# Probe 0 (0.0005 0.0001 0.0001)
# Probe 1 (0.0005 0.0001 0.0009)
# Probe 2 (0.0005 0.0009 0.0009)
# Probe 3 (0.0005 0.0009 0.0001)
# Probe 4 (0.0005 0.0005 0.0005)
#       Probe             0             1             2             3             4
#        Time
            1             (37.5442 5.05222e-17 -4.58167e-17)             (37.5015 1.44481e-17 -2.62094e-17)             (37.5008 -3.7153e-18 5.33393e-18)             (37.5015 2.23911e-17 -1.47732e-17)             (37.5163 9.0909e-18 -1.75508e-17)
            2             (38.1685 3.84286e-15 -3.44195e-15)             (37.6096 4.34435e-15 -3.3156e-15)             (37.5069 -7.24101e-17 1.66992e-16)             (37.6096 1.58683e-15 -4.36945e-15)             (37.7604 9.64055e-16 -1.30357e-15)
            3             (38.2904 2.47909e-15 -2.00323e-15)             (37.7052 -8.97742e-15 9.33841e-15)             (37.5356 5.06565e-16 -6.92493e-16)             (37.7052 -5.54793e-15 9.28356e-15)             (38.0241 -5.63603e-15 6.52488e-15)
            4             (38.5436 2.45563e-15 -1.87731e-15)             (37.75 7.11189e-15 -3.5906e-15)             (37.5569 1.67563e-16 -4.4041e-16)             (37.75 1.02826e-15 -6.3618e-15)             (38.2516 3.74172e-15 -4.24774e-15)
            5             (38.7816 -5.28961e-16 2.3031e-16)             (37.7694 3.38976e-15 1.63082e-15)             (37.5748 -1.07973e-15 9.20013e-16)             (37.7694 5.80887e-17 -2.68894e-15)             (38.4739 -2.52149e-16 6.96171e-17)
            6             (39.0266 -6.53851e-16 5.97797e-16)             (37.7505 -1.73654e-15 5.34438e-15)             (37.5689 1.53216e-15 -7.223e-16)             (37.7505 -3.42979e-15 1.8966e-15)             (38.7009 -1.58823e-15 1.96531e-15)
            7             (39.2746 1.17251e-15 1.11088e-16)             (37.6769 2.47356e-15 -3.84746e-15)             (37.5017 -4.75576e-16 9.69409e-17)             (37.6769 1.62155e-15 -2.12088e-15)             (38.9451 1.8464e-15 -1.66905e-15)
            8             (39.5353 -1.16935e-17 3.5015e-16)             (37.5494 1.53799e-15 1.25395e-15)             (37.3746 -6.74459e-16 7.47262e-17)             (37.5494 -1.72263e-16 -1.38854e-15)             (39.1975 -1.87558e-16 -3.49236e-17)
            9             (39.8079 -7.9268e-16 -4.64011e-16)             (37.3615 4.37967e-16 3.28405e-15)             (37.1757 8.74542e-16 -5.26231e-16)             (37.3615 -2.23992e-15 -4.67526e-16)             (39.4665 -5.66827e-16 3.41609e-16)
           10             (40.0914 6.21695e-16 -4.52263e-16)             (37.1156 1.29309e-15 -2.05819e-15)             (36.9125 -1.20184e-16 2.72609e-16)             (37.1156 7.36256e-16 -1.11732e-15)             (39.7433 1.05043e-15 -3.45212e-16)
           11             (40.3841 -1.68415e-16 9.19806e-17)             (36.8157 9.22156e-16 8.40471e-16)             (36.5847 1.96921e-16 -9.20438e-17)             (36.8157 -2.16816e-16 -8.18869e-16)             (40.0284 -4.12475e-16 -6.05169e-16)
           12             (40.6855 4.12812e-16 5.04497e-16)             (36.4681 9.5355e-16 1.88657e-15)             (36.1945 -4.1903e-17 -4.64083e-16)             (36.4681 -1.26731e-15 -6.24558e-16)             (40.3244 -1.3111e-16 1.97063e-16)
           13             (40.9949 9.97155e-16 -5.1256e-17)             (36.0778 6.63131e-16 -1.28349e-15)             (35.745 -2.14317e-16 1.77827e-16)             (36.0778 2.76133e-16 -7.11353e-16)             (40.6252 7.41526e-16 -4.66445e-16)
           14             (41.3256 -6.37946e-17 2.55884e-16)             (35.6528 8.20892e-16 1.12114e-15)             (35.2429 4.43839e-16 2.6349e-17)             (35.6528 -4.27878e-16 -7.81486e-16)             (40.9336 -2.43723e-16 -3.2491e-18)
           15             (41.6652 -8.39106e-16 -8.10282e-16)             (35.1986 7.62606e-16 8.74372e-16)             (34.6933 7.77546e-17 -1.22285e-16)             (35.1986 -5.84824e-16 -6.86935e-16)             (41.2432 -2.52111e-16 -2.56301e-16)
           16             (42.012 -8.78204e-17 -3.29037e-16)             (34.7211 5.13771e-16 -5.74847e-16)             (34.1097 -2.33945e-16 -1.25537e-16)             (34.7211 2.01758e-16 -6.02336e-16)             (41.5514 5.56819e-16 -2.55723e-16)
           17             (42.3645 4.19965e-16 2.87142e-16)             (34.2272 7.19026e-16 1.02941e-15)             (33.4932 2.71856e-17 -3.91105e-17)             (34.2272 -5.51288e-16 -6.39424e-16)             (41.8597 1.10957e-18 3.67324e-16)
           18             (42.7179 4.21911e-16 -3.85168e-16)             (33.7235 5.73343e-16 2.36674e-16)             (32.8514 1.70019e-16 9.98403e-17)             (33.7235 -4.10724e-16 -4.10482e-16)             (42.1745 1.54244e-16 -5.95991e-16)
           19             (43.0768 4.57177e-16 4.86523e-16)             (33.2117 6.33528e-16 -1.23831e-16)             (32.1886 8.37478e-17 -3.54809e-17)             (33.2117 8.38744e-17 -4.37134e-16)             (42.4837 2.64978e-16 -1.78406e-16)
           20             (43.4562 -5.42865e-16 -3.21602e-16)             (32.6983 5.48018e-16 6.6906e-16)             (31.5127 -1.7467e-16 -1.15505e-16)             (32.6983 -4.11768e-16 -6.19367e-16)             (42.7948 2.11244e-17 1.61888e-16)
           21             (43.8448 -1.18991e-15 -1.49122e-15)             (32.1867 5.13513e-16 8.01746e-17)             (30.8282 4.83004e-18 -9.38312e-18)             (32.1867 -2.92005e-16 -4.8615e-16)             (43.1055 2.60769e-16 -5.92592e-16)
           22             (44.2312 -7.55637e-16 -7.10007e-16)             (31.6765 4.2088e-16 6.71792e-17)             (30.1375 1.52248e-16 9.00217e-17)             (31.6765 -5.7804e-17 -3.67292e-16)             (43.4027 1.91149e-16 -3.27517e-16)
           23             (44.6268 6.47157e-16 -4.73114e-17)             (31.1713 4.46573e-16 4.6924e-16)             (29.4457 -3.50497e-17 -6.73258e-17)             (31.1713 -2.83878e-16 -4.04923e-16)             (43.6905 3.91733e-17 -1.2563e-16)
           24             (45.0192 1.03197e-15 -4.22434e-17)             (30.675 4.78882e-16 7.00498e-17)             (28.7567 -8.93855e-17 -1.53762e-16)             (30.675 -2.16219e-16 -3.72951e-16)             (43.9744 4.59753e-16 -1.87051e-16)
           25             (45.4162 -7.85891e-16 -9.53345e-16)             (30.188 3.4155e-16 8.63116e-17)             (28.0726 4.38076e-17 3.70263e-17)             (30.188 -7.30427e-17 -4.23442e-16)             (44.2503 -5.38877e-17 -7.23215e-17)
           26             (45.82 -1.91457e-17 -3.51809e-16)             (29.7121 3.31089e-16 4.33641e-16)             (27.3961 4.59537e-17 -3.92529e-18)             (29.7121 -2.71196e-16 -3.91911e-16)             (44.5198 1.27949e-16 -2.59689e-16)
           27             (46.226 1.01622e-15 -1.0507e-16)             (29.2477 3.36571e-16 1.11986e-16)             (26.7288 -4.6804e-18 1.9994e-17)             (29.2477 -1.31918e-16 -3.29248e-16)             (44.7799 4.05759e-16 -2.39226e-16)
           28             (46.6366 8.67199e-16 6.07516e-16)             (28.7955 3.67966e-16 1.02344e-16)             (26.0721 -9.88296e-18 -9.04876e-18)             (28.7955 -1.03973e-16 -3.35071e-16)             (45.0295 1.72724e-16 -4.88417e-17)
           29             (47.0512 6.71504e-16 3.8233e-16)             (28.3563 3.01937e-16 2.80021e-16)             (25.4274 4.18371e-18 -9.52472e-18)             (28.3563 -3.02959e-16 -3.95109e-16)             (45.2679 1.49782e-16 -2.59468e-16)
           30             (47.4687 1.66014e-16 -4.6562e-16)             (27.9309 3.09303e-16 8.42319e-17)             (24.7959 2.21323e-17 -2.77443e-17)             (27.9309 -1.05646e-16 -2.3582e-16)             (45.4938 3.12519e-16 -2.55648e-16)
           31             (47.888 -3.65511e-16 -5.79809e-16)             (27.5197 2.74688e-16 1.09204e-16)             (24.1783 -5.55177e-17 -1.33886e-17)             (27.5197 -4.87669e-18 -1.94483e-16)             (45.7056 1.93912e-16 -8.63163e-17)
           32             (48.3175 1.65073e-16 -5.40318e-17)             (27.1219 2.72239e-16 3.11997e-16)             (23.5778 -2.34082e-17 2.16902e-17)             (27.1219 -2.04812e-16 -2.58198e-16)             (45.9007 9.41518e-17 -2.34154e-16)
           33             (48.7446 7.83156e-17 9.30076e-18)             (26.7398 3.20565e-16 5.65952e-17)             (22.9919 2.45808e-17 1.8025e-17)             (26.7398 -1.40221e-16 -2.65534e-16)             (46.0801 -2.50184e-16 3.93019e-17)
           34             (49.1706 -9.87667e-16 -1.45509e-15)             (26.3736 2.55935e-16 1.06913e-16)             (22.4212 -7.44965e-18 1.55991e-17)             (26.3736 -5.0781e-17 -3.55259e-16)             (46.2472 9.54082e-17 -4.88451e-16)
           35             (49.5958 -4.36849e-16 -8.2237e-16)             (26.0237 2.66049e-16 1.59322e-16)             (21.8658 -4.42544e-17 3.83053e-18)             (26.0237 -4.54181e-17 -2.69895e-16)             (46.4027 1.55699e-16 -2.69363e-16)
           36             (50.02 -9.01452e-17 -2.1184e-16)             (25.6907 2.67604e-16 1.36118e-16)             (21.326 -4.80177e-17 7.25134e-18)             (25.6907 -1.01061e-16 -1.69299e-16)             (46.5444 3.00309e-17 -8.81713e-17)
           37             (50.4432 4.65712e-16 5.54108e-18)             (25.3751 2.19577e-16 4.40491e-17)             (20.8019 2.57712e-17 -8.0296e-18)             (25.3751 -1.06284e-16 -1.61571e-16)             (46.6706 3.59136e-16 -1.8719e-16)
           38             (50.865 1.21365e-15 6.29774e-16)             (25.0777 3.13914e-16 1.4111e-16)             (20.2937 2.11278e-17 3.60917e-17)             (25.0777 -4.63107e-17 -1.91103e-16)             (46.781 2.38279e-16 -1.2331e-16)
           39             (51.2851 2.55386e-16 2.22986e-16)             (24.7995 2.02934e-16 8.47673e-17)             (19.8012 -2.397e-18 3.33143e-17)             (24.7995 -1.33127e-16 -2.88651e-16)             (46.8746 -5.42212e-16 -1.07009e-16)
           40             (51.7028 2.80494e-16 4.20646e-16)             (24.5416 1.88355e-16 5.63924e-17)             (19.3244 -4.64465e-17 -1.03094e-17)             (24.5416 -3.07255e-17 -2.11565e-16)             (46.951 3.98162e-16 -1.33788e-16)
           41             (52.117 -5.80182e-16 -7.80648e-16)             (24.3056 2.13232e-16 8.32475e-17)             (18.8633 -1.17444e-17 4.40717e-18)             (24.3056 -6.27034e-17 -1.70011e-16)             (47.0094 2.7788e-16 -1.21202e-16)
           42             (52.5263 -1.91195e-16 -5.88193e-16)             (24.093 2.54109e-16 6.08557e-17)             (18.4179 3.37331e-17 3.53772e-17)             (24.093 -1.92349e-16 -1.71444e-16)             (47.0496 2.25743e-17 -6.68459e-17)
           43             (52.9283 5.49944e-17 -6.21785e-16)             (23.906 1.88989e-16 1.16549e-16)             (17.988 2.57596e-17 2.99583e-17)             (23.906 -8.98843e-17 -1.37661e-16)             (47.0713 3.22384e-17 -3.01871e-16)
           44             (53.3198 2.70706e-16 -4.93087e-16)             (23.7465 1.57677e-16 1.0547e-16)             (17.5736 -2.42066e-17 -3.58832e-17)             (23.7465 -1.31016e-17 -1.14224e-16)             (47.0749 3.84886e-16 -4.15208e-16)
           45             (53.6979 9.35662e-16 1.0632e-15)             (23.6168 3.22384e-16 6.08267e-17)             (17.1746 -3.10354e-17 -5.78398e-18)             (23.6168 -6.37127e-17 -1.30028e-16)             (47.0609 2.53306e-16 5.85507e-16)
           46             (54.054 -9.92835e-16 -8.96516e-16)             (23.5198 9.57207e-17 9.73041e-17)             (16.7906 7.80732e-17 4.0863e-17)             (23.5198 -1.60528e-16 -2.21837e-16)             (47.0321 -2.23431e-16 -5.4755e-16)
           47             (54.4008 -8.15076e-17 -9.13778e-16)             (23.4561 1.8463e-16 2.67639e-17)             (16.4218 -5.64628e-17 -1.8065e-17)             (23.4561 -1.08444e-16 -2.03924e-16)             (46.9876 -3.23908e-18 1.09642e-17)
           48             (54.7363 9.07935e-17 -7.60427e-16)             (23.4275 2.48973e-16 6.69297e-17)             (16.0681 -6.54421e-17 -3.76309e-17)             (23.4275 3.36542e-17 -1.65471e-16)             (46.9292 2.4679e-16 1.4868e-16)
           49             (55.0545 -2.12653e-16 -7.07377e-16)             (23.4347 1.52582e-16 1.23538e-16)             (15.7294 8.42954e-17 2.46821e-17)             (23.4347 -8.52458e-17 -2.48222e-16)             (46.8587 2.27279e-16 -2.68466e-16)
           50             (55.3488 3.07291e-16 -5.36531e-18)             (23.4774 1.51385e-16 -1.93239e-17)             (15.4054 -2.02851e-17 -1.83362e-18)             (23.4774 -6.92192e-17 -1.98773e-16)             (46.7782 1.40819e-16 8.48035e-17)
           51             (55.6134 1.36764e-16 6.07886e-17)             (23.5535 1.47801e-16 1.87817e-16)             (15.0957 -5.20823e-17 -3.32918e-17)             (23.5535 -1.2184e-17 -1.51875e-16)             (46.6927 8.26513e-17 2.0545e-16)
           52             (55.8438 -4.8799e-16 -1.52635e-15)             (23.659 2.15964e-16 5.71064e-17)             (14.7999 3.91711e-17 9.70468e-18)             (23.659 -2.10201e-16 -1.06888e-16)             (46.6102 2.81656e-16 -3.2082e-16)
           53             (56.0341 -2.11547e-16 -1.23264e-15)             (23.7887 1.25932e-16 -3.74382e-17)             (14.5181 3.21888e-17 8.75567e-18)             (23.7887 -4.77157e-17 -2.50668e-16)             (46.5382 3.02424e-16 -3.66809e-16)
           54             (56.1887 8.76957e-16 1.49056e-16)             (23.9362 1.09005e-16 1.81627e-16)             (14.2496 -2.48005e-17 -2.40087e-17)             (23.9362 1.4964e-17 -1.93244e-16)             (46.4732 3.99277e-16 -2.17217e-16)
           55             (56.3079 1.43106e-15 1.26366e-15)             (24.0949 2.23849e-16 9.35065e-17)             (13.9943 -4.01866e-17 -1.96511e-17)             (24.0949 -7.79127e-17 -8.39522e-18)             (46.411 1.42177e-16 2.88969e-16)
           56             (56.3947 1.30751e-15 1.04307e-15)             (24.2593 1.72128e-16 2.16869e-17)             (13.752 2.3207e-17 2.02978e-18)             (24.2593 -8.85851e-17 -1.53503e-16)             (46.3498 5.21317e-17 1.24205e-16)
           57             (56.4534 3.82157e-16 5.50707e-17)             (24.4246 4.94411e-17 1.07454e-16)             (13.5229 4.14489e-17 2.1586e-17)             (24.4246 -3.96092e-17 -2.02392e-16)             (46.2894 -6.34991e-17 -1.48e-16)
           58             (56.4887 -9.74203e-17 -5.35685e-16)             (24.5875 1.21809e-16 1.74313e-17)             (13.3069 -4.26114e-18 -3.15655e-18)             (24.5875 -1.09605e-16 -4.02565e-17)             (46.2296 9.09549e-17 -3.01029e-16)
           59             (56.5059 3.13267e-16 1.36185e-16)             (24.7464 2.69716e-16 1.24893e-16)             (13.1041 -6.08933e-17 -2.43836e-17)             (24.7464 -2.39996e-17 -9.8439e-17)             (46.1704 1.07481e-16 3.00768e-16)
           60             (56.5091 -2.54696e-17 -2.61829e-17)             (24.8994 -2.00376e-17 8.82224e-17)             (12.9145 8.70397e-19 1.6358e-17)             (24.8994 -8.06298e-17 -1.90198e-16)             (46.1117 -1.60865e-16 1.53247e-16)
           61             (56.5006 3.17255e-16 2.05743e-16)             (25.0465 -3.66521e-17 1.03167e-17)             (12.738 4.05392e-17 3.62142e-17)             (25.0465 -1.53573e-16 -6.17371e-17)             (46.0536 -1.28877e-16 -1.93186e-16)
           62             (56.4826 1.18789e-15 8.44694e-16)             (25.187 2.79512e-16 8.32332e-17)             (12.5743 -3.10956e-17 -3.85516e-17)             (25.187 4.19616e-17 -1.19127e-16)             (45.9961 3.94888e-16 -7.80735e-17)
           63             (56.4568 8.38571e-17 -2.61788e-16)             (25.3212 1.13297e-16 9.3258e-17)             (12.4234 -4.50881e-17 -2.47418e-17)             (25.3212 -1.20992e-16 -1.86227e-16)             (45.9394 -1.78078e-16 -9.77283e-17)
           64             (56.4245 1.31065e-16 -2.57931e-16)             (25.4502 3.41749e-17 7.61054e-17)             (12.2854 5.60884e-17 2.17708e-17)             (25.4502 -1.39599e-16 -7.78098e-17)             (45.8838 3.73964e-16 -3.31638e-16)
           65             (56.386 -2.10917e-16 -5.77655e-16)             (25.5754 1.14921e-16 2.23881e-17)             (12.16 1.00662e-17 2.77794e-18)             (25.5754 2.93376e-17 -8.39651e-17)             (45.8295 1.27024e-16 -7.61345e-17)
           66             (56.3413 -9.66205e-17 -5.37378e-16)             (25.6979 1.21776e-16 7.33298e-17)             (12.0468 -4.76898e-17 -1.13918e-17)             (25.6979 -1.00875e-16 -1.27529e-16)             (45.7765 7.52019e-18 -3.21352e-17)
           67             (56.2906 -1.86571e-16 -7.90366e-16)             (25.8185 5.02193e-17 4.13902e-17)             (11.9454 2.52957e-17 4.28916e-18)             (25.8185 -1.09784e-16 -1.08016e-16)             (45.725 1.46834e-17 -3.19584e-16)
           68             (56.2343 5.00649e-17 -4.03848e-16)             (25.9369 1.98317e-16 7.89229e-17)             (11.8555 -2.67615e-17 9.17307e-18)             (25.9369 5.1293e-17 -6.0773e-17)             (45.675 -1.73163e-17 2.34391e-16)
           69             (56.1726 -8.96698e-17 -2.90418e-16)             (26.0527 6.19011e-17 4.82648e-17)             (11.7766 -2.15304e-17 7.94425e-18)             (26.0527 -1.04599e-16 -1.01187e-16)             (45.6263 -2.50418e-18 2.51198e-16)
           70             (56.1059 -7.94716e-16 -7.64199e-16)             (26.1666 -8.12423e-17 2.90931e-17)             (11.7081 4.83315e-17 1.50801e-17)             (26.1666 -3.82481e-17 -9.17199e-17)             (45.5792 -3.0613e-16 6.16893e-17)
           71             (56.0346 -7.75893e-16 -1.14828e-15)             (26.2793 -2.03318e-17 4.46353e-17)             (11.6496 -1.55719e-17 5.74964e-18)             (26.2793 -8.53833e-17 -1.57425e-16)             (45.5334 -2.17719e-16 -3.86287e-16)
           72             (55.9592 1.21084e-17 -2.96654e-16)             (26.3911 2.15887e-16 9.95964e-17)             (11.6005 -1.00747e-16 -3.65058e-17)             (26.3911 -2.01137e-17 9.24818e-17)             (45.4889 -5.07415e-17 2.67878e-16)
           73             (55.8802 4.4644e-16 2.34808e-17)             (26.5022 2.30539e-16 9.18782e-17)             (11.5602 6.98779e-17 2.69447e-17)             (26.5022 -1.06008e-16 7.30477e-17)             (45.4458 2.65403e-16 3.87028e-16)
           74             (55.7979 3.77694e-16 -5.70608e-16)             (26.6128 7.81242e-17 -2.27193e-17)             (11.5283 6.13947e-17 3.98949e-17)             (26.6128 -1.61915e-16 -2.28753e-16)             (45.404 -2.5201e-16 -4.75711e-16)
           75             (55.7127 8.40756e-16 8.00082e-17)             (26.7227 1.03056e-16 1.87277e-16)             (11.5042 -1.28435e-16 -4.7097e-17)             (26.7227 -1.06903e-17 -1.04831e-16)             (45.3634 4.79682e-17 -3.7714e-16)
           76             (55.6252 1.15693e-15 6.14383e-16)             (26.8316 1.72321e-16 1.47028e-16)             (11.4873 1.22579e-17 -1.15923e-18)             (26.8316 -1.30542e-16 1.23526e-17)             (45.324 3.15688e-16 3.41015e-16)
           77             (55.5357 3.88141e-16 7.37216e-17)             (26.9392 9.82315e-17 2.29462e-17)             (11.477 1.17733e-16 6.29765e-17)             (26.9392 -2.20577e-16 -6.80596e-17)             (45.2857 -7.80502e-17 -8.24665e-17)
           78             (55.4443 5.0848e-16 7.4286e-17)             (27.0457 2.74537e-18 7.09526e-17)             (11.473 -8.54526e-17 -2.11313e-17)             (27.0457 -1.01766e-17 -1.11771e-16)             (45.2484 -9.22882e-17 -2.25962e-16)
           79             (55.3513 8.87485e-16 5.6116e-16)             (27.1516 7.42149e-17 4.96675e-17)             (11.4747 -1.01261e-16 -1.28897e-17)             (27.1516 -1.18652e-17 -7.69446e-17)             (45.2121 8.25311e-17 4.41071e-16)
           80             (55.2569 1.26052e-15 5.66631e-16)             (27.2566 1.20468e-16 1.71883e-16)             (11.4816 8.80078e-17 3.73701e-17)             (27.2566 -1.71394e-16 -2.13658e-16)             (45.1767 4.96232e-16 2.92984e-16)
           81             (55.1615 3.78144e-16 -3.03846e-16)             (27.3609 1.87745e-17 -3.63733e-17)             (11.4933 1.92506e-17 4.01993e-17)             (27.3609 -2.69887e-17 -1.14263e-16)             (45.1421 -4.40261e-17 -2.0412e-16)
           82             (55.0655 -3.48879e-17 -3.1984e-16)             (27.4644 1.16661e-16 7.0155e-17)             (11.5095 -7.16875e-17 -5.49738e-17)             (27.4644 1.966e-17 3.15337e-17)             (45.1084 -2.41686e-16 -6.85269e-17)
           83             (54.969 2.15818e-17 -2.72385e-16)             (27.5668 1.28758e-16 6.53093e-17)             (11.5297 2.29471e-17 -3.02601e-17)             (27.5668 -7.8261e-17 -9.35149e-17)             (45.0754 1.13844e-16 -3.68372e-17)
           84             (54.8723 3.18033e-16 -2.70127e-16)             (27.6682 1.90381e-16 3.47845e-17)             (11.5537 3.87167e-17 1.42236e-17)             (27.6682 -1.40269e-16 -1.11809e-16)             (45.043 2.8968e-16 2.05233e-17)
           85             (54.7756 1.36045e-16 -6.01875e-16)             (27.7685 1.77687e-16 4.34684e-17)             (11.5812 -5.73122e-18 1.66781e-17)             (27.7685 -9.23273e-18 -1.30409e-17)             (45.0113 2.69269e-16 -2.85358e-17)
           86             (54.679 -2.83886e-16 -8.5635e-16)             (27.8677 9.02902e-17 3.39562e-17)             (11.6118 1.57115e-17 -3.96757e-18)             (27.8677 -2.0714e-18 6.21022e-17)             (44.9801 8.04489e-17 -2.0147e-16)
           87             (54.5826 -1.51452e-16 -5.44687e-16)             (27.9659 -4.81649e-18 -2.48457e-17)             (11.6452 -4.94003e-18 -2.89401e-17)             (27.9659 -1.17274e-16 -3.31401e-18)             (44.9495 -1.76444e-16 4.9385e-17)
           88             (54.4865 1.18769e-16 -4.68585e-16)             (28.063 8.04474e-17 1.55195e-16)             (11.6812 -2.52767e-17 -3.02527e-17)             (28.063 -1.23979e-16 -1.49611e-16)             (44.9194 -3.74024e-17 -8.39768e-17)
           89             (54.3909 2.48807e-16 -3.09419e-16)             (28.1591 8.62879e-17 1.16725e-16)             (11.7196 -3.04296e-17 2.08767e-17)             (28.1591 7.99809e-17 -4.79675e-17)             (44.8898 1.88018e-16 -3.14782e-17)
           90             (54.2958 3.41047e-16 -2.3367e-16)             (28.2541 1.31443e-16 1.15567e-17)             (11.7602 3.46191e-17 2.84073e-17)             (28.2541 -4.8973e-17 2.00542e-17)             (44.8607 9.26246e-17 8.71936e-17)
           91             (54.2012 4.82274e-16 6.71192e-18)             (28.348 1.23779e-16 8.8535e-17)             (11.8027 4.10846e-17 -1.03315e-17)             (28.348 -1.41639e-16 4.28884e-17)             (44.832 2.55272e-16 1.16127e-16)
           92             (54.1074 1.64506e-17 -2.75644e-16)             (28.4408 7.49176e-17 2.71243e-17)             (11.847 -1.6335e-17 -3.97398e-18)             (28.4408 -5.74636e-17 -4.35795e-17)             (44.8037 -1.86446e-16 -8.73065e-17)
           93             (54.0144 2.15092e-17 -1.97502e-16)             (28.5325 1.12234e-16 3.84225e-17)             (11.893 -7.68943e-17 8.91337e-18)             (28.5325 4.42314e-17 -7.20955e-17)             (44.7757 -3.79345e-16 -1.10969e-16)
           94             (53.9223 3.68871e-16 3.03386e-16)             (28.6231 2.57428e-17 -2.24884e-17)             (11.9406 4.57859e-17 7.76824e-18)             (28.6231 -1.2337e-16 -9.12981e-17)             (44.7481 -1.75453e-16 -4.5011e-17)
           95             (53.8311 4.95655e-16 3.20477e-16)             (28.7126 -1.65094e-17 1.19984e-16)             (11.9894 5.21003e-17 -4.61569e-18)             (28.7126 -1.26648e-16 4.89808e-17)             (44.7209 9.79582e-17 1.32482e-16)
           96             (53.7409 -2.01778e-16 -5.03848e-16)             (28.801 2.62147e-17 1.91717e-17)             (12.0396 -5.25e-17 2.18734e-17)             (28.801 -1.13971e-16 -1.99063e-16)             (44.694 -3.08798e-16 -1.38249e-16)
           97             (53.6516 1.04469e-16 -2.69907e-16)             (28.8883 2.48647e-16 6.04232e-17)             (12.0909 -1.45546e-17 -6.30861e-18)             (28.8883 -8.09471e-18 -1.18359e-16)             (44.6673 8.88931e-17 -2.66302e-16)
           98             (53.5633 4.56952e-16 2.0237e-16)             (28.9744 -2.8203e-17 9.43277e-17)             (12.1434 2.40247e-17 -1.80136e-17)             (28.9744 -5.62343e-17 9.45695e-17)             (44.6409 -5.09504e-18 7.5226e-17)
           99             (53.4762 6.02049e-18 -3.32391e-16)             (29.0594 -2.13573e-16 7.51811e-17)             (12.1967 4.86345e-17 1.35449e-17)             (29.0594 -2.12971e-16 -8.80553e-17)             (44.6148 -3.10644e-16 -2.4079e-16)
          100             (53.3901 6.96562e-16 1.79852e-16)             (29.1433 9.83353e-17 4.59313e-17)             (12.251 -6.74277e-17 -1.08161e-17)             (29.1433 -4.37874e-17 -1.32788e-16)             (44.589 -4.38416e-17 1.30457e-16)
          101             (53.3051 8.33261e-16 2.23732e-16)             (29.226 1.76522e-16 1.03965e-16)             (12.306 -7.06605e-18 -2.15575e-18)             (29.226 5.8584e-17 -7.40064e-17)             (44.5633 2.1608e-16 3.34359e-16)
          102             (53.2213 2.10106e-16 -4.01389e-16)             (29.3076 5.51922e-17 1.23922e-17)             (12.3618 1.15615e-16 3.66354e-17)             (29.3076 -2.5419e-16 -2.37552e-16)             (44.5379 -3.55338e-16 -2.27721e-16)
          103             (53.1386 2.10148e-16 -2.54701e-16)             (29.388 3.18242e-17 -3.72572e-17)             (12.4182 -6.88101e-17 -2.66949e-17)             (29.388 -5.63111e-17 -8.28699e-18)             (44.5126 -3.3022e-16 -3.04688e-16)
          104             (53.0571 1.91439e-16 -2.55054e-16)             (29.4673 6.86071e-17 5.30338e-17)             (12.4751 -1.14877e-16 -2.18078e-17)             (29.4673 4.73948e-17 1.40226e-16)             (44.4876 -1.2885e-16 -6.80463e-17)
          105             (52.9767 1.81186e-16 -4.28146e-16)             (29.5454 1.66942e-16 8.65645e-17)             (12.5326 8.54886e-17 3.82992e-17)             (29.5454 -1.56684e-16 -8.43842e-17)             (44.4627 2.0201e-16 3.88174e-17)
          106             (52.8975 9.57696e-17 -6.33393e-16)             (29.6222 -3.33566e-17 2.77134e-17)             (12.5899 1.07884e-16 1.38669e-17)             (29.6222 -1.48029e-16 2.59916e-17)             (44.4384 1.28419e-16 -1.24709e-16)
          107             (52.8196 8.04472e-17 -5.49441e-16)             (29.6978 -1.11291e-16 1.04195e-16)             (12.6476 -7.30142e-17 -3.81727e-17)             (29.6978 -4.95747e-17 -3.5621e-17)             (44.4141 3.14363e-17 -1.79161e-16)
          108             (52.7429 -2.52266e-16 -7.84886e-16)             (29.7721 -3.98388e-17 5.4943e-18)             (12.7057 -8.59907e-17 -2.04641e-17)             (29.7721 -4.84732e-17 -1.96493e-16)             (44.39 -4.01604e-16 -1.46998e-16)
          109             (52.6673 1.05619e-16 -4.86286e-16)             (29.8453 2.17027e-16 9.96595e-17)             (12.764 2.27908e-17 3.72732e-17)             (29.8453 -1.82228e-16 -1.88144e-17)             (44.366 1.24428e-17 3.40627e-16)
          110             (52.5929 -3.27588e-16 -9.30142e-16)             (29.9174 3.4593e-17 3.61036e-17)             (12.8224 1.51577e-16 3.62424e-17)             (29.9174 -4.95098e-17 6.3469e-18)             (44.3421 1.13771e-16 -4.34529e-16)
          111             (52.5197 -2.07275e-16 -9.41359e-16)             (29.9881 8.57652e-17 6.54169e-17)             (12.881 -8.39205e-17 -6.06359e-17)             (29.9881 -8.29734e-17 -1.41474e-16)             (44.3185 1.75421e-17 -3.00401e-16)
          112             (52.4476 3.02417e-16 -4.23531e-16)             (30.0577 2.07857e-16 1.04825e-16)             (12.9397 -5.03316e-17 -5.43753e-17)             (30.0577 -4.63117e-17 -5.26214e-17)             (44.2948 3.22571e-16 5.78905e-17)
          113             (52.3767 1.23093e-16 -5.25501e-16)             (30.1261 2.10634e-16 1.68999e-16)             (12.9983 1.07712e-16 5.92263e-17)             (30.1261 -8.20626e-17 -1.53719e-16)             (44.2712 3.25617e-16 4.34451e-17)
          114             (52.307 -1.32959e-16 -6.93503e-16)             (30.1932 6.04502e-17 1.86905e-17)             (13.057 7.78079e-18 1.55493e-17)             (30.1932 -1.25752e-16 -1.47349e-16)             (44.2477 -6.17966e-17 -1.60784e-16)
          115             (52.2384 2.81875e-16 -1.63239e-16)             (30.2591 7.73296e-17 6.11671e-17)             (13.1156 -4.12649e-17 -6.44871e-17)             (30.2591 5.61264e-17 -1.94422e-17)             (44.2244 -9.23468e-18 -8.26211e-17)
          116             (52.1709 5.43329e-16 8.71132e-17)             (30.3238 1.75474e-16 1.35897e-16)             (13.1741 -3.47559e-17 2.08003e-17)             (30.3238 -1.45046e-16 2.07828e-17)             (44.2012 2.17773e-16 1.46823e-16)
          117             (52.1046 -2.41257e-16 -6.07875e-16)             (30.3873 -5.67373e-17 -4.81688e-17)             (13.2325 1.1635e-16 4.30264e-17)             (30.3873 -2.96164e-16 -1.82604e-16)             (44.1782 -3.61973e-16 -1.21345e-16)
          118             (52.0394 -4.0074e-16 -8.1959e-16)             (30.4495 7.98694e-18 1.59912e-16)             (13.2906 -6.2813e-18 -1.67911e-17)             (30.4495 -2.71297e-19 -2.53284e-16)             (44.1553 -3.36766e-16 -2.06191e-16)
          119             (51.9753 -3.90685e-19 -6.76721e-16)             (30.5105 2.1344e-16 1.67642e-16)             (13.3486 -1.1753e-16 -5.36398e-17)             (30.5105 1.32431e-16 1.46237e-16)             (44.1324 2.78586e-16 9.37602e-17)
          120             (51.9123 -2.02408e-16 -7.11728e-16)             (30.5702 1.5907e-16 -9.77467e-17)             (13.4063 2.30633e-17 -2.6837e-18)             (30.5702 -1.76654e-16 -8.73875e-17)             (44.1096 3.64723e-16 1.683e-16)