5 	0.00391112967796258 	1.73472347597681e-17 	0.125942696643557 	1.44072476601232e-05 	889.593711621921 	1.12500151540468e-06 	1.38567885922685e-38
5 	0.0118766651674913 	1.04083408558608e-17 	0.125939758440068 	0.000221884216951822 	195.882042340515 	2.21902932973266e-05 	0
5 	0.020134001548576 	3.46944695195361e-18 	0.125932727430827 	0.00126039273194169 	55.5848172948938 	0.000111453868808665 	0
5 	0.0286938283423949 	3.46944695195361e-18 	0.125914438080559 	0.00347071330999094 	24.0278256596621 	9.02615150619976e-05 	0
5 	0.0375672266585908 	1.04083408558608e-17 	0.125875438991659 	0.00598124233774905 	13.3894122199996 	1.54952143989361e-05 	0
5 	0.046765683540303 	1.73472347597681e-17 	0.125812174682758 	0.00819471780432741 	8.92336829938812 	6.02322399715019e-05 	0
5 	0.0563011068347006 	2.08166817117217e-17 	0.125729083641426 	0.0100785901580015 	6.6592044644226 	0.000155078896853062 	0
5 	0.0661858406082648 	1.73472347597681e-17 	0.125631790385014 	0.011720022366912 	5.33068296241483 	0.000259796670153955 	0
5 	0.0764326811267815 	1.04083408558608e-17 	0.125523738847005 	0.0131913114574211 	4.46733875777159 	0.000366216819640861 	0
5 	0.0870548934207257 	1.04083408558608e-17 	0.12540692787569 	0.0145411058439468 	3.86506304538252 	0.000473921742969229 	0
5 	0.0980662284574838 	1.04083408558608e-17 	0.125282853181867 	0.0158020049708116 	3.42313726839686 	0.000583794183185134 	0
5 	0.109480940942647 	1.38777878078145e-17 	0.125152796439475 	0.0169965917541535 	3.08664551360416 	0.00069680534587687 	0
5 	0.121313807773416 	2.42861286636753e-17 	0.12501788561812 	0.0181411181762128 	2.82324494195701 	0.000813841535658141 	0
5 	0.13358014716801 	2.42861286636753e-17 	0.124879139218514 	0.019247703918612 	2.6126993960792 	0.000935714574842288 	0
5 	0.146295838495838 	1.73472347597681e-17 	0.124737505296465 	0.0203256771472597 	2.44172116195185 	0.00106319473328534 	0
5 	0.159477342834115 	1.38777878078145e-17 	0.124593886089643 	0.0213824183795743 	2.30123656721269 	0.0011970404402131 	0
5 	0.173141724277517 	2.08166817117217e-17 	0.124449151609502 	0.0224239082897201 	2.18484692185536 	0.00133802211851692 	0
5 	0.18730667202848 	1.73472347597681e-17 	0.124304147040041 	0.0234550929713925 	2.08791787480177 	0.00148694090980097 	0
5 	0.201990523296728 	1.04083408558608e-17 	0.124159696405615 	0.0244801326024694 	2.0070173662582 	0.00164464351779403 	0
5 	0.217212287037676 	1.73472347597681e-17 	0.124016603675496 	0.0255025729373607 	1.93955597441195 	0.0018120341716226 	0
5 	0.232991668560442 	2.08166817117217e-17 	0.123875652064798 	0.026525463815295 	1.88354945544026 	0.00199008431019434 	0
5 	0.249349095037321 	2.42861286636753e-17 	0.123737602106135 	0.0275514398308951 	1.8374575876623 	0.00217984022673989 	0
5 	0.266305741947753 	2.08166817117217e-17 	0.123603188934053 	0.028582772771887 	1.80007207709182 	0.00238242862064035 	0
5 	0.283883560490999 	1.38777878078145e-17 	0.123473119151363 	0.0296214019213991 	1.77043681466021 	0.00259905975295554 	0
5 	0.30210530600303 	1.38777878078145e-17 	0.123348067649325 	0.0306689460296099 	1.74778993076773 	0.0028310276649902 	0
5 	0.320994567414413 	1.73472347597681e-17 	0.123228674694415 	0.0317266992232811 	1.73152079897937 	0.00307970664043043 	0
5 	0.34057579778732 	2.08166817117217e-17 	0.123115543103161 	0.0327956122942825 	1.72113743136219 	0.00334654277453552 	0
5 	0.3608743459712 	2.08166817117217e-17 	0.123009235723046 	0.0338762554248631 	1.71624115581848 	0.00363303861830905 	0
5 	0.38191648941809 	2.42861286636753e-17 	0.122910277907634 	0.0349687901294185 	1.71650640119573 	0.00394073198182765 	0
5 	0.403729468200046 	2.08166817117217e-17 	0.122819156049231 	0.0360729275136232 	1.72166401732337 	0.00427116295612685 	0
5 	0.426341520272734 	1.38777878078145e-17 	0.122736317182451 	0.037187822300828 	1.73148696352695 	0.00462582682350975 	0
5 	0.449781918030829 	1.38777878078145e-17 	0.122662169583441 	0.0383119793945272 	1.74577747863533 	0.00500611652200972 	0
5 	0.474081006202548 	1.38777878078145e-17 	0.122597089942594 	0.0394431445657432 	1.76435501058014 	0.00541324154508516 	0
5 	0.499270241132363 	1.04083408558608e-17 	0.122541468400737 	0.0405781780367118 	1.78704429516493 	0.00584811823487576 	0
5 	0.525382231502763 	1.04083408558608e-17 	0.122495749670784 	0.0417129114807435 	1.81366304697028 	0.00631124998864937 	0
5 	0.552450780547767 	1.38777878078145e-17 	0.12246000527106 	0.0428419893538297 	1.84400873580742 	0.00680267310615556 	0
5 	0.580510929812849 	1.04083408558608e-17 	0.122432691059287 	0.043958693147263 	1.87784378345556 	0.00732190834295163 	0
5 	0.60959900451791 	1.04083408558608e-17 	0.122413838337221 	0.0450547460115305 	1.91487840042426 	0.00787337777276487 	0
5 	0.639752660582032 	1.38777878078145e-17 	0.122426802978907 	0.0461205270802549 	1.95476818872252 	0.00855512360815339 	0
5 	0.671010933370886 	2.42861286636753e-17 	0.122513806091647 	0.047152157895709 	1.99738236145905 	0.00932435815962243 	0
5 	0.7034142882299 	3.46944695195361e-17 	0.122664176423205 	0.0481438060771677 	2.04212296944011 	0.0101965010555602 	0
5 	0.737004672868606 	3.12250225675825e-17 	0.122820154513338 	0.0490612834983958 	2.08659721885103 	0.0110781478715028 	0
5 	0.771825571663976 	2.42861286636753e-17 	0.122951068317045 	0.0498486597397723 	2.12696360160509 	0.011839841010962 	0
5 	0.807922061953053 	2.77555756156289e-17 	0.123057622174105 	0.0504495465692884 	2.15919698515489 	0.0124188987917542 	0
5 	0.845340872387742 	4.5102810375397e-17 	0.123150891628242 	0.050819492196574 	2.17996695532378 	0.0128050053099466 	0
5 	0.884130443427308 	5.20417042793042e-17 	0.123240540388171 	0.0509282958698896 	2.18687073130806 	0.0130084134898441 	0
5 	0.924340990046896 	5.20417042793042e-17 	0.123331418662022 	0.0507575653687724 	2.17832929786883 	0.0130358376188805 	0
5 	0.966024566743241 	5.20417042793042e-17 	0.123423863207554 	0.050298828308153 	2.15350107149917 	0.0128830431974027 	0
5 	1.00923513492173 	4.85722573273506e-17 	0.123515298437463 	0.0495542437058679 	2.11230407967555 	0.0125409555018717 	0
5 	1.05402863275205 	5.89805981832114e-17 	0.123601850660824 	0.0485391069225614 	2.05546923413881 	0.0120071860735622 	0
5 	1.10046304758287 	6.24500451351651e-17 	0.123679367854971 	0.0472841098729778 	1.98455387186956 	0.0112956950062538 	0
5 	1.14859849100923 	5.55111512312578e-17 	0.123743820088672 	0.0458353635621804 	1.90188633932395 	0.0104403747725269 	0
5 	1.19849727668994 	5.89805981832114e-17 	0.12379137014096 	0.0442510344225572 	1.81041570868907 	0.00949166288394318 	0
5 	1.25022400101563 	6.93889390390723e-17 	0.123818433578291 	0.0425947461530091 	1.71344218519343 	0.0085079149579219 	0
5 	1.30384562673185 	7.63278329429795e-17 	0.123821913256774 	0.040927239964094 	1.61424431533333 	0.00754478145360863 	0
5 	1.35943156962565 	7.28583859910259e-17 	0.123799606469293 	0.0392986188440239 	1.51568700833543 	0.00664609819695745 	0
5 	1.41705378838762 	6.93889390390723e-17 	0.123750613879275 	0.037743349890458 	1.41993599696006 	0.00583884892348666 	0
5 	1.47678687776592 	6.93889390390723e-17 	0.123675495689561 	0.0362790557628583 	1.32837291072838 	0.00513297146062412 	0
5 	1.53870816513277 	7.28583859910259e-17 	0.123575985648392 	0.0349086270955776 	1.2417123203431 	0.00452498845172538 	0
5 	1.60289781058851 	7.28583859910259e-17 	0.123454284558548 	0.0336241850806087 	1.160232756398 	0.00400343669380092 	0
5 	1.66943891073266 	6.59194920871187e-17 	0.123312327935406 	0.0324113146592127 	1.08400330199468 	0.00355404316572047 	0
5 	1.73841760623657 	5.89805981832114e-17 	0.123151795288268 	0.0312525297952722 	1.01302059326604 	0.00316330092732504 	0
5 	1.80992319335659 	5.89805981832114e-17 	0.122974189704734 	0.0301296301093282 	0.947237060981709 	0.002820150587953 	0
5 	1.88404823953248 	5.89805981832114e-17 	0.12277934364988 	0.0290251613771652 	0.886523983113279 	0.00251590672313688 	0
5 	1.96088870322037 	5.55111512312578e-17 	0.122574592525091 	0.0279235366645656 	0.830636647796022 	0.00224364129700344 	0
5 	2.04004996790234 	5.55111512312578e-17 	0.122392631987411 	0.0268157504547676 	0.779285326573386 	0.0019931011609797 	0
4.99999999999999 	2.11873460271874 	5.89805981832114e-17 	0.122236143937337 	0.025722833050223 	0.733069544190781 	0.00176466959881362 	0
4.99999999999999 	2.19463865000284 	6.24500451351651e-17 	0.12208018416585 	0.0246706316953955 	0.692548611478271 	0.0015657192012834 	0
4.99999999999999 	2.26786037121375 	5.89805981832114e-17 	0.121923315796002 	0.0236594090182534 	0.657264688536607 	0.00139045154896027 	0
4.99999999999999 	2.33849455540975 	5.55111512312578e-17 	0.121766901460693 	0.0226878620058127 	0.626483008020338 	0.00123527889987256 	0
4.99999999999999 	2.40663264195736 	6.24500451351651e-17 	0.121611702206846 	0.0217551765998471 	0.599554015088893 	0.00109712027007752 	0
4.99999999999999 	2.47236283890404 	6.93889390390723e-17 	0.121458148455698 	0.0208610852722608 	0.575980608747715 	0.000973486747044683 	0
4.99999999999999 	2.5357702371677 	6.93889390390723e-17 	0.121306533653715 	0.0200055259175307 	0.555387793654231 	0.000862456970626968 	0
4.99999999999999 	2.59693692069107 	6.93889390390723e-17 	0.121157062253181 	0.0191883520722821 	0.537485865994691 	0.00076253109715267 	0
4.99999999999999 	2.65594207270333 	6.93889390390723e-17 	0.12100988324244 	0.0184091784638225 	0.522044501789671 	0.000672494808180965 	0
4.99999999999999 	2.71286207822658 	6.59194920871187e-17 	0.120865113862124 	0.0176673318838021 	0.508876535817711 	0.000591327612899365 	0
4.99999999999999 	2.76777062295999 	6.24500451351651e-17 	0.120722853428157 	0.0169618665161445 	0.497828289865859 	0.000518147663332981 	0
4.99999999999999 	2.82073878866949 	5.89805981832114e-17 	0.120583191161777 	0.0162916122503016 	0.488773979615596 	0.000452180158146411 	0
4.99999999999999 	2.87183514520654 	5.89805981832114e-17 	0.120446210787054 	0.0156552351969436 	0.481612539952667 	0.000392739458021025 	0
4.99999999999999 	2.92112583927514 	6.59194920871187e-17 	0.120311993363187 	0.0150512981734197 	0.476265844705204 	0.000339218599085104 	0
4.99999999999999 	2.9686746800619 	6.93889390390723e-17 	0.120180619115928 	0.0144783149030867 	0.472677737076125 	0.000291082587457196 	0
