# Probe 0 (1e-06 1 0)
# Probe 1 (1 0.5 0)
# Probe 2 (4.65 0.1 0)
#                Probe                      0                      1                      2
#                 Time
                     1       1974.60613735576        1.8044359831641       0.15105328147783
                     2       1974.60613735576       15.9455388246476      0.186600007411033
                     3       1974.60613735576       112.911113316969      0.216684554050837
                     4       1974.60613735576       441.700727956563      0.341183455612556
                     5       1974.60613735576       775.384191534661      0.966511838253614
                     6       1974.60613735576       574.832254887259       1.68023430670844
                     7       1974.60613735576       521.932803542794       2.49375657618779
                     8       1974.60613735576       253.645258876334       4.23607096110787
                     9       1974.60613735576       712.405173628114       5.69725085930359
                    10       1974.60613735576        698.01344366694       6.61003790958801
                    11       1974.60613735576       366.182252177064       7.17885357826713
                    12       1974.60613735576       679.623862127252        7.6429958553474
                    13       1974.60613735576       621.023272799101       8.27842185363609
                    14       1974.60613735576       420.505579026408       8.92904399392826
                    15       1974.60613735576       506.237347252562        9.3539302612989
                    16       1974.60613735576          382.537523201       9.54148023136852
                    17       1974.60613735576       260.635796435448       9.58908057426262
                    18       1974.60613735576       258.162491307791        9.5758878276208
                    19       1974.60613735576       192.056450579766       9.52044112158486
                    20       1974.60613735576       160.446274580436       9.41308931960216
                    21       1974.60613735576       141.327428933054       9.25373503385591
                    22       1974.60613735576       116.402244771965       9.05389166915899
                    23       1974.60613735576       103.191647975367       8.83698057303828
                    24       1974.60613735576        104.01152494335       8.62093758692432
                    25       1974.60613735576        111.82658218721       8.37839091291473
                    26       1974.60613735576       119.935696660432       8.15195591390496
                    27       1974.60613735576       125.211024326233       7.97673305965709
                    28       1974.60613735576       126.985908868336       7.80954766631698
                    29       1974.60613735576        126.28671350592       7.64704828399077
                    30       1974.60613735576       124.114771187185       7.49740633564438
                    31       1974.60613735576       121.143146280603       7.36826453517332
                    32       1974.60613735576       117.488325826425       7.25951364765455
                    33       1974.60613735576       113.191889919757       7.17430182002502
                    34       1974.60613735576       108.409900548193       7.11709010619531
                    35       1974.60613735576       103.359508205166       7.09036638177273
                    36       1974.60613735576       98.1945946469492       7.09554581886151
                    37       1974.60613735576       93.0926489041349        7.1337659202768
                    38       1974.60613735576       88.1510458956876       7.20470822096885
                    39       1974.60613735576       83.4404768913121        7.3065712294543
                    40       1974.60613735576       78.9587229325357       7.43780817434891
                    41       1974.60613735576        74.794034613106       7.59363583725503
                    42       1974.60613735576       70.9330932352901       7.77008673651105
                    43       1974.60613735576       67.3712619018014       7.96253086417494
                    44       1974.60613735576        64.097354909012       8.16665361329123
                    45       1974.60613735576        61.098645569241       8.37884767655839
                    46       1974.60613735576       58.3724221655471       8.59607581650792
                    47       1974.60613735576       55.8980513814388       8.81529906478034
                    48       1974.60613735576       53.6439756985813       9.03423107013142
                    49       1974.60613735576       51.5803301959098       9.25154755440648
                    50       1974.60613735576       49.6896500131757       9.46494425504704
                    51       1974.60613735576       47.9433443515968       9.67410414287362
                    52       1974.60613735576       46.3218047653538       9.87839822609275
                    53       1974.60613735576       44.8085803523379       10.0771622514368
                    54       1974.60613735576        43.279926401488       10.3087384750064
                    55       1974.60613735576       41.9635356831017       10.4884439269138
                    56       1974.60613735576       40.6155762345635       10.6983718969753
                    57       1974.60613735576       39.3523750682838        10.893237645683
                    58       1974.60613735576       38.1616685613683       11.0742272033844
                    59       1974.60613735576       37.0333112229845       11.2424559199881
                    60       1974.60613735576       35.9582433916093       11.3993824942499
                    61       1974.60613735576       34.9294191160071       11.5457060509197
                    62       1974.60613735576       33.9411133074786       11.6819899607977
                    63       1974.60613735576       32.9890626710403        11.808371935875
                    64       1974.60613735576       32.0698265669288       11.9248273046297
                    65       1974.60613735576       31.1806273487478       12.0310472191943
                    66       1974.60613735576       30.3639640662386       12.1148432900279
                    67       1974.60613735576        29.559878147159       12.1946715342482
                    68       1974.60613735576        28.772271339258       12.2684379445198
                    69       1974.60613735576       28.0047949540177       12.3340529675021
                    70       1974.60613735576       27.2564161362307       12.3899400852084
                    71       1974.60613735576       26.5241207185631        12.434450539144
                    72       1974.60613735576       25.8141297730456       12.4651084484963
                    73       1974.60613735576        25.124548416943        12.480032322727
                    74       1974.60613735576       24.4591521414185       12.4773602446865
                    75       1974.60613735576       23.8208114951264       12.4560798390912
                    76       1974.60613735576       23.2103043565871       12.4161113055905
                    77       1974.60613735576       22.6287911156866       12.3585771846468
                    78       1974.60613735576       22.0752607736699       12.2856216864173
                    79       1974.60613735576       21.5494848323602       12.1999227269644
                    80       1974.60613735576       21.0475717733535        12.104499118734
                    81       1974.60613735576       20.5682198592523       12.0013858302906
                    82       1974.60613735576       20.1128441968551        11.891979817716
                    83       1974.60613735576       19.6824382063567       11.7762181432147
                    84       1974.60613735576       19.2833233960699       11.6524130656627
                    85       1974.60613735576       18.9311043651978       11.5182794422487
                    86       1974.60613735576       18.6339271161042       11.3713749839363
                    87       1974.60613735576       18.4026455642458       11.2100748843037
                    88       1974.60613735576       18.2541722689534       11.0050854349987
                    89       1974.60613735576       18.2116029659584       10.8185238142242
                    90       1974.60613735576       18.3151552782518       10.5966642757945
                    91       1974.60613735576       18.6145662345673       10.3756019961739
                    92       1974.60613735576       19.1843058864715       10.1815254523092
                    93       1974.60613735576       20.1005872123862       9.99193884539766
                    94       1974.60613735576       21.3953957440153       9.81145956736903
                    95       1974.60613735576       23.0419953837485       9.64511951801165
                    96       1974.60613735576       24.8296831877338       9.49836334734997
                    97       1974.60613735576       26.2905423795507       9.37607273276146
                    98       1974.60613735576       27.5329231887078       9.28208747060269
                    99       1974.60613735576       28.0492279296548       9.21497573110764
                   100       1974.60613735576       28.0354410582582       9.17737709101862
                   101       1974.60613735576       27.7117402063947        9.1717249920083
                   102       1974.60613735576       27.1046477618726       9.19729489084211
                   103       1974.60613735576        26.313947760455        9.2494036776231
                   104       1974.60613735576        25.593122734127       9.31861674686196
                   105       1974.60613735576        25.385869946943       9.39328096490437
                   106       1974.60613735576       25.9232451275717       9.45878122483124
                   107       1974.60613735576       27.1462403588244       9.49847512979542
                   108       1974.60613735576       28.8233402889001       9.49434876804598
                   109       1974.60613735576       30.7861478612418       9.42549784369044
                   110       1974.60613735576       33.3396699896434       9.15966232547555
                   111       1974.60613735576       35.9960056064075       8.83886443335874
                   112       1974.60613735576       38.7813009309945       8.44848094192985
                   113       1974.60613735576       41.6449127112626       7.97160586135841
                   114       1974.60613735576        44.439238095032       7.38988508607187
                   115       1974.60613735576       46.9277068727065        6.7610613586437
                   116       1974.60613735576       48.8478457809478        6.1486977112518
                   117       1974.60613735576       49.9721963661818       5.60780745242137
                   118       1974.60613735576       50.1925008578951       5.17576647374565
                   119       1974.60613735576        49.630686381824       4.86597496531217
                   120       1974.60613735576       48.4588938987414       4.66583589683025
                   121       1974.60613735576       46.8580324544699       4.54609986925949
                   122       1974.60613735576       44.9264787272294       4.47775906690686
                   123       1974.60613735576       42.8051709391382        4.4394791035864
                   124       1974.60613735576       40.5668580250348       4.41589836073003
                   125       1974.60613735576       38.2780847202253       4.39869644063736
                   126       1974.60613735576       36.1650468695849       4.38477028291267
                   127       1974.60613735576       34.1586241650146       4.37290379177499
                   128       1974.60613735576       32.2420638056898       4.36238322555394
                   129       1974.60613735576       30.4333672175451       4.35296649588988
                   130       1974.60613735576       28.7381664337745        4.3417507722709
                   131       1974.60613735576       27.1854956779131       4.32843112200841
                   132       1974.60613735576       25.7592751843969       4.31228452088558
                   133       1974.60613735576       24.4618994046348       4.29290270378388
                   134       1974.60613735576       23.2913000423685       4.27002862040926
                   135       1974.60613735576       22.2378621447426       4.24112724979299
                   136       1974.60613735576       21.2901643048418       4.20828978769806
                   137       1974.60613735576       20.4416383713832       4.17399698457541
                   138       1974.60613735576       19.6800016427988       4.13992034981842
                   139       1974.60613735576       18.9939987461401       4.10656145477511
                   140       1974.60613735576       18.3899755412483       4.07781737953342
                   141       1974.60613735576       17.8361137872635       4.04979775431734
                   142       1974.60613735576       17.3297294831694       4.02262401618267
                   143       1974.60613735576        16.866128910114       3.99657323997307
                   144       1974.60613735576       16.4392253839542       3.97199414963162
                   145       1974.60613735576       16.0469272938412       3.94934073025468
                   146       1974.60613735576       15.6892950118097       3.92903535944674
                   147       1974.60613735576       15.3668086923162       3.91159629490719
                   148       1974.60613735576       15.0784755700206       3.89744393916581
                   149       1974.60613735576       14.8230174695494        3.8868626308802
                   150       1974.60613735576       14.5986318612068       3.87994082547332
                   151       1974.60613735576       14.4038665050155       3.87659487729877
                   152       1974.60613735576       14.2369869614207       3.87655808235683
                   153       1974.60613735576       14.0961134051345       3.87944103044333
                   154       1974.60613735576       13.9797456811851       3.88479250425476
                   155       1974.60613735576        13.886427181501       3.89215171967105
                   156       1974.60613735576       13.8148196641378       3.90110129888546
                   157       1974.60613735576       13.7640812043046       3.91125336347351
                   158       1974.60613735576       13.7331627456178       3.92230508460126
                   159       1974.60613735576       13.7211348120663       3.93401760211742
                   160       1974.60613735576       13.7271381083664       3.94622033829156
                   161       1974.60613735576       13.7504394715339       3.95879294005376
                   162       1974.60613735576       13.7903094064531       3.97163392894214
                   163       1974.60613735576       13.8465230454839       3.98466458028188
                   164       1974.60613735576       13.9195106342861       3.99782956122263
                   165       1974.60613735576       14.0103349338287       4.01106411190565
                   166       1974.60613735576        14.121152096843       4.02430415527423
                   167       1974.60613735576       14.2563435765571       4.03748253123958
                   168       1974.60613735576       14.4202290281411       4.05055440982559
                   169       1974.60613735576       14.6149002686815       4.06348864025833
                   170       1974.60613735576       14.8433005588642       4.07850498552815
                   171       1974.60613735576       15.0906436088089       4.09085260424705
                   172       1974.60613735576       15.3770158488887       4.10461899817927
                   173       1974.60613735576        15.700775466957       4.11721520969946
                   174       1974.60613735576       16.0642054033633       4.12870813230763
                   175       1974.60613735576       16.4630770296402       4.13998952049697
                   176       1974.60613735576       16.8848325199903       4.15106424625863
                   177       1974.60613735576       17.3174935536477       4.16190844220905
                   178       1974.60613735576       17.7571457199727       4.17248031928816
                   179       1974.60613735576       18.1940980795708       4.18275774477087
                   180       1974.60613735576       18.6216712840665       4.19273953472655
                   181       1974.60613735576       19.0319929790878       4.20247064053242
                   182       1974.60613735576       19.4085742840868       4.21195972124029
                   183       1974.60613735576       19.7365229874341        4.2212208053376
                   184       1974.60613735576       20.0133482988656        4.2302421922601
                   185       1974.60613735576       20.2473146914295       4.23900892876597
                   186       1974.60613735576       20.4391390915471       4.24753385585871
                   187       1974.60613735576       20.5864419617358       4.25579336362274
                   188       1974.60613735576       20.6887624222733       4.26375355814258
                   189       1974.60613735576       20.7470684548644       4.27148620350395
                   190       1974.60613735576       20.7604869894755       4.27901489197289
                   191       1974.60613735576       20.7280298664624       4.28634964133584
                   192       1974.60613735576       20.6494992348941       4.29350874069479
                   193       1974.60613735576       20.5261582225927       4.30052331973318
                   194       1974.60613735576       20.3592099357715       4.30741875474957
                   195       1974.60613735576       20.1497102781989       4.31421741267467
                   196       1974.60613735576       19.8985041037659       4.32094492113788
                   197       1974.60613735576       19.6079209796523       4.32762690896948
                   198       1974.60613735576       19.2814905852802       4.33428619391374
                   199       1974.60613735576       18.9279182179974       4.34094563158908
                   200       1974.60613735576       18.5470329422215       4.34762596185772
                   201       1974.60613735576       18.1407384854934       4.35434819252625
                   202       1974.60613735576       17.7131544597083       4.36113445976083
                   203       1974.60613735576       17.2699748495491       4.36800617988009
                   204       1974.60613735576       16.8164758053389       4.37498219268236
                   205       1974.60613735576       16.3563472293647       4.38207890190289
                   206       1974.60613735576       15.8956881637138       4.38931349281162
                   207       1974.60613735576       15.4465153033884       4.39670017173949
                   208       1974.60613735576       15.0128906771763       4.40425386975778
                   209       1974.60613735576       14.5957772760852       4.41198592290402
                   210       1974.60613735576        14.196363937896       4.41990698149547
                   211       1974.60613735576       13.8155848837848        4.4280256931432
                   212       1974.60613735576        13.454347746794       4.43635565710545
                   213       1974.60613735576       13.1140461782444       4.44490256256606
                   214       1974.60613735576       12.7956226750398       4.45366899953861
                   215       1974.60613735576       12.4987624816697       4.46265807365722
                   216       1974.60613735576       12.2219523429827       4.47187892905701
                   217       1974.60613735576       11.9636225615058       4.48134079488978
                   218       1974.60613735576       11.7224389578741       4.49103908112175
                   219       1974.60613735576       11.4974448862238       4.50097425023898
                   220       1974.60613735576       11.2882260251194       4.51113734771249
                   221       1974.60613735576       11.0936919005751       4.52151846607119
                   222       1974.60613735576       10.9125327381343       4.53211196583512
                   223       1974.60613735576       10.7435726402538       4.54291714654297
                   224       1974.60613735576       10.5859292771685       4.55392599090693
                   225       1974.60613735576       10.4387919583662       4.56512640971534
                   226       1974.60613735576       10.3014622641953       4.57650953873586
                   227       1974.60613735576       10.1735480453934         4.588062161108
                   228       1974.60613735576       10.0547579708198        4.5997605183015
                   229       1974.60613735576       9.94395179677517       4.61157178460415
                   230       1974.60613735576       9.84029836346896       4.62347266501579
                   231       1974.60613735576       9.74364418611948        4.6354399149408
                   232       1974.60613735576       9.65175084711447       4.64745010330754
                   233       1974.60613735576        9.5640625684651       4.65948009805174
                   234       1974.60613735576       9.48090089242893       4.67149833386195
                   235       1974.60613735576       9.40259029060759       4.68347349008274
                   236       1974.60613735576       9.32905934910965       4.69535965576312
                   237       1974.60613735576        9.2593883576335       4.70708607147545
                   238       1974.60613735576       9.19172644337514       4.71866575612411
                   239       1974.60613735576       9.12498539556549       4.73005761602326
                   240       1974.60613735576       9.05873822340327       4.74123219320906
                   241       1974.60613735576       8.99275608460106       4.75223961937779
                   242       1974.60613735576       8.92824851894242       4.76294883300617
                   243       1974.60613735576       8.86538567086559       4.77335050609841
                   244       1974.60613735576       8.80379537474222       4.78343360470465
                   245       1974.60613735576       8.74303550568713       4.79313758696834
                   246       1974.60613735576       8.68199003028207       4.80247631028264
                   247       1974.60613735576       8.62003328304392       4.81143655448675
                   248       1974.60613735576       8.55706353721119       4.82001731997382
                   249       1974.60613735576       8.49357085135393       4.82821317800757
                   250       1974.60613735576       8.43009823776136       4.83605068625906
                   251       1974.60613735576       8.36726223409223       4.84355092918009
                   252       1974.60613735576       8.30529499504462       4.85074564626837
                   253       1974.60613735576       8.24429836382022       4.85767200365741
                   254       1974.60613735576       8.18388105447134       4.86440912643395
                   255       1974.60613735576        8.1244125173689        4.8709847782373
                   256       1974.60613735576       8.06626054812709       4.87746443118684
                   257       1974.60613735576       8.00964822852986       4.88394216372793
                   258       1974.60613735576       7.95536613775595       4.89047502516625
                   259       1974.60613735576       7.90359018274397        4.8971629542886
                   260       1974.60613735576       7.85522638715022       4.90409648256093
                   261       1974.60613735576        7.8106300571687        4.9113537212159
                   262       1974.60613735576       7.76921189749313       4.91902522213635
                   263       1974.60613735576       7.73059609323492       4.92722405729295
                   264       1974.60613735576       7.69491991076914       4.93600984287019
                   265       1974.60613735576       7.66230832954153       4.94544928760819
                   266       1974.60613735576       7.63282158758491       4.95560381593039
                   267       1974.60613735576       7.60652369914071       4.96648303082788
                   268       1974.60613735576       7.58316400472368       4.97812252758292
                   269       1974.60613735576       7.56252329114899       4.99051506106086
                   270       1974.60613735576       7.54441210050064       5.00363241598837
                   271       1974.60613735576       7.52866169106832       5.01746469194119
                   272       1974.60613735576         7.515231468854       5.03193937457102
                   273       1974.60613735576       7.50401702071972        5.0469782336765
                   274       1974.60613735576       7.49483967203302       5.06245688857253
                   275       1974.60613735576       7.48748335554899       5.07826502742073
                   276       1974.60613735576       7.48182409565682       5.09426305660874
                   277       1974.60613735576       7.47775141145141       5.11034789515095
                   278       1974.60613735576       7.47516760062452       5.12637772316064
                   279       1974.60613735576       7.47398785330836       5.14216386805766
                   280       1974.60613735576       7.47416180022993       5.15761590049966
                   281       1974.60613735576       7.47569473324213       5.17250464214037
                   282       1974.60613735576       7.47861112175888        5.1866959386381
                   283       1974.60613735576       7.48291256421481       5.20005821985544
                   284       1974.60613735576       7.48856489944337       5.21241903987366
                   285       1974.60613735576       7.49555669724639        5.2236645831425
                   286       1974.60613735576       7.50391540279072       5.23369696651777
                   287       1974.60613735576       7.51366218099531       5.24241030930105
                   288       1974.60613735576       7.52463142461379       5.24969772897402
                   289       1974.60613735576       7.53686749195213       5.25551844070822
                   290       1974.60613735576       7.55036158528147        5.2597683709433
                   291       1974.60613735576       7.56523895626295         5.262403416041
                   292       1974.60613735576       7.58163303484417       5.26337415308488
                   293       1974.60613735576       7.59950686400559       5.26264521850964
                   294       1974.60613735576       7.61915702738983       5.26022718725802
                   295       1974.60613735576       7.63968275055899       5.25564073223135
                   296       1974.60613735576       7.66238479144831       5.24953893145131
                   297       1974.60613735576       7.68733641956648       5.24206330350085
                   298       1974.60613735576       7.71452879947556       5.23333293454903
                   299       1974.60613735576       7.74399698029359       5.22343982990384
                   300       1974.60613735576       7.77580046891317       5.21255583249068
                   301       1974.60613735576       7.80963106272116       5.20077059436293
                   302       1974.60613735576       7.84541267745534       5.18811028474569
                   303       1974.60613735576       7.88319546769624       5.17458293631782
                   304       1974.60613735576       7.92295313762896        5.1602419009994
                   305       1974.60613735576       7.96466924290268       5.14512732569457
                   306       1974.60613735576       8.00841830391216       5.12927041317129
                   307       1974.60613735576       8.05398818930881       5.11270244893902
                   308       1974.60613735576       8.10084508362396        5.0954631786446
                   309       1974.60613735576       8.15155058934343       5.07760636056176
                   310       1974.60613735576       8.20407005575325       5.05919778952713
                   311       1974.60613735576       8.25744698739453       5.04031685524594
                   312       1974.60613735576       8.31206706608836       5.02117890137178
                   313       1974.60613735576       8.36805610509541       5.00185950095268
                   314       1974.60613735576       8.42546758742306       4.98238445729793
                   315       1974.60613735576       8.48367826265725       4.96279410506198
                   316       1974.60613735576       8.53959656936318       4.94222771493491
                   317       1974.60613735576        8.5919830912855       4.92217688047434
                   318       1974.60613735576       8.64561448320781       4.90171145358488
                   319       1974.60613735576       8.69918913221004       4.88136066950624
                   320       1974.60613735576       8.75271310363945        4.8611121232954
                   321       1974.60613735576       8.80595706122019       4.84107158060892
                   322       1974.60613735576       8.85928731198629        4.8212456180161
                   323       1974.60613735576       8.91268463351814       4.80180663459731
                   324       1974.60613735576       8.96603586775338       4.78277655502815