# Probe 0 (1e-06 1 0)
# Probe 1 (1 0.5 0)
# Probe 2 (4.65 0.1 0)
#                Probe                      0                      1                      2
#                 Time
                     1                      (0.814515501943923 -0.000537232131212608 -1.40493461589076e-21)                      (0.565942377080281 -0.175735917530523 1.72847655996387e-20)                      (0.718262668181375 -1.54774013262104e-05 4.99982475072801e-21)
                     2                      (0.227684387200307 -0.020091807351414 -6.18115426537314e-22)                      (-1.33943646559905 -2.49652880885492 1.87428330492952e-19)                      (0.710010126467205 0.000156025319990651 -1.88708679802816e-22)
                     3                      (-0.263916919253097 -0.404106940468518 7.51714915056571e-21)                      (-0.0697788771018931 -1.29639360679129 2.02674079897985e-20)                      (0.687457510233864 0.00090577464173072 -6.39113564689281e-21)
                     4                      (1.56542091838691 0.646110436789887 1.54645868152874e-20)                      (2.29293254268222 2.81771103890109 -1.23599162653494e-18)                      (0.767835433709757 0.0032144729436624 -1.2108389128482e-20)
                     5                      (2.78124501022803 0.286413642748033 1.52135793191852e-21)                      (1.85102823990205 2.25347411960145 -1.08642970491839e-19)                      (0.951953465122253 0.00179320880349261 1.88070441989034e-20)
                     6                      (2.98996402247059 0.0984186929919576 -7.47994120001578e-21)                      (-0.527466025244555 -0.961379583194127 2.06255811376162e-20)                      (1.00308074392978 -0.000697172214407929 1.52202549613585e-20)
                     7                      (0.783285886114732 0.118950501803952 -1.26188595411197e-20)                      (-1.94025153025338 -2.92445510725783 6.46919399420615e-20)                      (0.95262153594979 -0.00293823649921936 8.84950346006159e-21)
                     8                      (0.634713336774713 -0.23124866031781 -1.20294052942317e-20)                      (-0.346598199251295 -0.845567689867171 1.99304170863407e-21)                      (0.845290834335455 -0.0028758784202273 2.14458635077104e-20)
                     9                      (0.817305711942259 -0.287069951117173 -6.374565304111e-21)                      (0.421631488072832 0.473913789483911 -1.03912348343395e-19)                      (0.821170309264707 0.000433681701666759 2.62945078939332e-20)
                    10                      (1.80439239538873 -0.183040251692365 1.05225957091761e-20)                      (2.19814189900207 2.43252887830406 -4.81403395235588e-20)                      (0.914741284360803 0.000484960643036203 -2.19228564175663e-20)
                    11                      (0.572241600459122 0.0134858899976584 1.69838254126174e-20)                      (0.785755120904146 0.265635319720843 5.98865039173266e-20)                      (0.993004561316037 0.000141552852825294 -4.31635965564264e-20)
                    12                      (-3.0294599813576 0.149261654209131 2.38024168846344e-20)                      (-1.99431027671656 -5.00710290799252 4.06865632896372e-19)                      (0.985014576357582 0.000277985781648161 -4.30640971379119e-20)
                    13                      (-2.85789068012592 -0.0596157807740072 -2.19440761633834e-21)                      (-1.24514322654682 -4.23465531991673 1.3621157379097e-20)                      (0.912020869988692 0.000187470890295842 9.15175443147805e-22)
                    14                      (-0.945031913779815 -0.0204406544722294 -1.74245570112211e-20)                      (1.1734903187913 -1.05498050871439 -2.4634329840482e-20)                      (0.854638132992042 0.00174463612984218 3.38710154299721e-20)
                    15                      (1.00144186390942 -0.11492997844799 -7.09435149822842e-21)                      (1.5145687006106 0.135799901069149 -3.91556825652101e-20)                      (0.862724891293129 0.00374944328072682 2.64563784642852e-20)
                    16                      (1.3506874545376 0.0110647015059177 -2.524566910093e-21)                      (0.729166985407863 0.423574133156121 -2.45138562025645e-20)                      (0.903117661350832 0.00477986339064482 6.99879403897066e-21)
                    17                      (0.676482897443071 0.136762074217358 4.92673191300824e-22)                      (-0.265329803799299 -0.196734463390363 -4.25295211545601e-21)                      (0.922656997017841 0.0043313531648531 -2.34712733270869e-21)
                    18                      (0.410924462090444 0.0785109094226564 1.92331829244657e-21)                      (-0.350707212301401 -0.518213477455563 1.00586126438745e-20)                      (0.906861099266427 0.00386908761311305 -2.70750583029536e-21)
                    19                      (1.02342493069553 0.00169280311369394 1.3513916536758e-21)                      (0.252001633876069 -0.109708950164822 1.13149492691214e-20)                      (0.881479456354474 0.00428208749736485 8.30778395606601e-22)
                    20                      (1.58025554546928 -0.0466571940252741 -5.91641500806675e-22)                      (0.627171249473528 0.260444714724839 2.41173128877686e-21)                      (0.870518395880703 0.00523593524261025 4.50130727770395e-21)
                    21                      (1.68916888679274 -0.0425557782518192 -2.29335476277449e-21)                      (0.461197632473944 0.113663567502144 -7.43152164973335e-21)                      (0.874210731614614 0.00609098383707359 6.11434680021229e-21)
                    22                      (1.48234038995803 -0.00398013931990083 -2.35669414373917e-21)                      (0.132349101888448 -0.189256456760973 -1.62793611688465e-20)                      (0.880118241637772 0.00637265919200739 5.88650174499511e-21)
                    23                      (1.30358327888717 0.0186980419985728 -1.20070904354032e-21)                      (0.0670762416381735 -0.192482723038472 -1.80684284225186e-20)                      (0.878704247382355 0.00608225280863832 4.68535198859897e-21)
                    24                      (1.28357068613169 0.0121530752355033 -2.63418530043852e-22)                      (0.197758989868324 0.0327949680806729 -1.25571287991082e-20)                      (0.871448120899692 0.00564442992103792 3.42312462836956e-21)
                    25                      (1.29170522663898 -0.00624142635319799 -1.69642861668314e-22)                      (0.338566598905687 0.218379083296709 -7.13159240750916e-21)                      (0.863684633679962 0.005388519282626 2.76711707436087e-21)
                    26                      (1.22539240491596 -0.019302364166663 -5.83657025091694e-22)                      (0.405532463083815 0.246612148175978 -4.59433269129039e-21)                      (0.858572027432946 0.00524314536840435 2.87564609638516e-21)
                    27                      (1.08313004873287 -0.0214641142623542 -1.04803168494885e-21)                      (0.424468125221504 0.168046458976929 -4.8477242068197e-21)                      (0.855426117169149 0.00495492620715336 3.45504988752239e-21)
                    28                      (0.920903974009691 -0.0170741961232923 -1.28594932810926e-21)                      (0.437818665021136 0.0707054608249067 -6.03851884044999e-21)                      (0.852209976315896 0.0044538626572463 3.98947165936607e-21)
                    29                      (0.774316803513746 -0.0139899628276921 -1.35669632700645e-21)                      (0.465738116100127 -0.00324238695024543 -6.87921796198974e-21)                      (0.847912430479576 0.00385439370857328 4.20037550478264e-21)
                    30                      (0.639629308253881 -0.0153099387375309 -1.38832066442756e-21)                      (0.507639724979632 -0.0511084479739563 -6.99382661127143e-21)                      (0.842858924545611 0.00330196398188438 4.07961487477315e-21)
                    31                      (0.492468211677795 -0.0187638895733838 -1.47072518023522e-21)                      (0.552884825054153 -0.090440588239667 -6.60119735207198e-21)                      (0.837832065518015 0.00283762516016111 3.83705650697685e-21)
                    32                      (0.334266326516656 -0.0207548428008597 -1.52882888121269e-21)                      (0.591082248166847 -0.134628350732399 -6.07972210223688e-21)                      (0.833340674458801 0.00242691428114998 3.69321394835327e-21)
                    33                      (0.177976645621135 -0.0184560051825164 -1.47664200848566e-21)                      (0.617373730008547 -0.18445653208812 -5.65621541517123e-21)                      (0.829516187027158 0.00204549523775192 3.73181124685551e-21)
                    34                      (0.0365215192427043 -0.012639104841109 -1.43031516522068e-21)                      (0.632359090906894 -0.23329435976499 -5.43936011091018e-21)                      (0.826304232400123 0.00171527072971265 3.92393942630154e-21)
                    35                      (-0.083871230217146 -0.00618526995651137 -1.45829476981066e-21)                      (0.639283902393372 -0.274843362877616 -5.36949420735251e-21)                      (0.823652127160652 0.00148063124505905 4.12866749581105e-21)
                    36                      (-0.188057156463581 -0.0011401874523608 -1.5846228004397e-21)                      (0.641342752478754 -0.307015902598204 -5.34854835467571e-21)                      (0.821578893971115 0.00136891408493176 4.21967927689603e-21)
                    37                      (-0.278724634849096 0.00144976666296612 -1.72374551674253e-21)                      (0.6403480649038 -0.331529691446384 -5.3720093464587e-21)                      (0.820194089774276 0.00136883315751654 4.21630609784408e-21)
                    38                      (-0.353110370267929 0.00218875595351908 -1.83401849715866e-21)                      (0.636812711504489 -0.351218774214686 -5.42058326392902e-21)                      (0.819655363966757 0.00144132515608117 4.18658022987049e-21)
                    39                      (-0.404113888850622 0.00262504228891158 -1.91698577562822e-21)                      (0.630688448781074 -0.367864962994041 -5.48105612683995e-21)                      (0.820084640399505 0.00154314634532594 4.18064207538161e-21)
                    40                      (-0.421704550453931 0.00382286521008154 -1.9226629092112e-21)                      (0.621998337487274 -0.381756293393863 -5.4765706660354e-21)                      (0.821458402906879 0.00163952658211981 4.18546224001615e-21)
                    41                      (-0.407921765401644 0.00490958689979744 -1.91069282146417e-21)                      (0.610999121008679 -0.39264813351783 -5.41654319817903e-21)                      (0.823602692067668 0.0017069575220482 4.16902187688354e-21)
                    42                      (-0.37222755260921 0.00556199377919852 -1.79493409758389e-21)                      (0.597720351135322 -0.400040438367339 -5.32450677264164e-21)                      (0.826300064782889 0.00173150456246937 4.10809936245167e-21)
                    43                      (-0.330543548200447 0.0064770765077279 -1.681246207758e-21)                      (0.582404941980798 -0.403956511668079 -5.24167500438737e-21)                      (0.829384349765593 0.00170659991008736 3.99395635572122e-21)
                    44                      (-0.287133040049214 0.00747984043716916 -1.62229083774825e-21)                      (0.565457029285353 -0.404814144387846 -5.19492712953712e-21)                      (0.83276460570315 0.00163165148917294 3.84956929674443e-21)
                    45                      (-0.240042380262414 0.00771168696035744 -1.55972138506997e-21)                      (0.547355956653601 -0.403243715888463 -5.17211546379117e-21)                      (0.836375043248325 0.00151169078991866 3.69228599372983e-21)
                    46                      (-0.190870567359944 0.00685405301625427 -1.48681400095939e-21)                      (0.528544667452383 -0.399901189608604 -5.14914273349982e-21)                      (0.840141948697332 0.00135671217628633 3.54119076106787e-21)
                    47                      (-0.143406614570429 0.00510403424023401 -1.40411125214325e-21)                      (0.50939127870831 -0.395327731996364 -5.05548307393378e-21)                      (0.843971680620134 0.00117953944199951 3.39548276865694e-21)
                    48                      (-0.100904890818956 0.00282260604703712 -1.32835298684293e-21)                      (0.490114346853464 -0.389836036471107 -4.86814821089864e-21)                      (0.847785078488836 0.000993919903591895 3.23314453134574e-21)
                    49                      (-0.0630956378957387 0.000253678504219256 -1.25771892721736e-21)                      (0.470757702472881 -0.383528764958258 -4.63268152088348e-21)                      (0.851546229533771 0.000813800237837542 3.05339667728657e-21)
                    50                      (-0.0267134597376365 -0.00240429872341696 -1.17968212175935e-21)                      (0.451221977341323 -0.376362443372442 -4.39060264130976e-21)                      (0.855252744666235 0.000653374145455151 2.87124660563721e-21)
                    51                      (0.0123482299627861 -0.0050333471268259 -1.08892204588003e-21)                      (0.431531869334239 -0.368350526392194 -4.16722662538142e-21)                      (0.858917724624735 0.000526807336759501 2.7019140870037e-21)
                    52                      (0.0564790732161441 -0.00753262101384201 -1.01326738492608e-21)                      (0.411792899965415 -0.35956963180139 -3.98313076705347e-21)                      (0.862541178302242 0.000446838159476421 2.55743878324088e-21)
                    53                      (0.097565392533814 -0.00901221536094558 -9.15679201861351e-22)                      (0.39214765722921 -0.350146854584635 -3.82148885086363e-21)                      (0.866122677390459 0.000424348186949953 2.42916710651274e-21)
                    54                      (0.133440388826303 -0.00953193348455511 -8.98636452691512e-22)                      (0.372740615250024 -0.34023659874682 -3.64513719743482e-21)                      (0.869667830184555 0.000469158289823997 2.3010953389551e-21)
                    55                      (0.161637564529173 -0.00930736063292433 -9.0593992522461e-22)                      (0.353709751247392 -0.33002017603302 -3.44513261239854e-21)                      (0.873190586827417 0.000590211849978461 2.17819102954048e-21)
                    56                      (0.180475873299868 -0.00854701657858499 -8.99575006113488e-22)                      (0.335015518899553 -0.319567171959684 -3.24366617550162e-21)                      (0.876685327078327 0.000797159329039155 2.05812808573518e-21)
                    57                      (0.19059787709043 -0.00729894818994237 -8.77097781275184e-22)                      (0.316714101341801 -0.308956773755318 -3.05847942926186e-21)                      (0.880158880594768 0.00109762454254595 1.96106437731703e-21)
                    58                      (0.194679877586324 -0.00563008837986768 -8.54786783425761e-22)                      (0.298787571551152 -0.298194819943319 -2.92048211099299e-21)                      (0.883599287290551 0.0014975300579675 1.88931171109373e-21)
                    59                      (0.195774416848513 -0.00365026992144699 -8.46256201989209e-22)                      (0.281230224231113 -0.287282134384784 -2.82432243266146e-21)                      (0.886999615692255 0.00200096900159105 1.83822461172613e-21)
                    60                      (0.197452179438625 -0.00148443046572298 -8.23488015649045e-22)                      (0.264050305417751 -0.276238884981662 -2.75991922700988e-21)                      (0.890352966480494 0.00261042047264323 1.80173266181281e-21)
                    61                      (0.200363603589009 0.000648799527491273 -7.84089525293134e-22)                      (0.247238046097665 -0.265104929438463 -2.73500522466988e-21)                      (0.893657729203254 0.0033265708407038 1.78422812292198e-21)
                    62                      (0.205448293417873 0.00247755905515111 -7.50847905429154e-22)                      (0.230783929490361 -0.253904335705526 -2.76268286074673e-21)                      (0.896909714824515 0.00414735390924739 1.78902180695703e-21)
                    63                      (0.215375527472104 0.00383749856750503 -7.0730990237309e-22)                      (0.214709781768925 -0.242641007860671 -2.83008127352417e-21)                      (0.900113722957876 0.00506645528595421 1.80660728997581e-21)
                    64                      (0.230348394526446 0.00470920660711814 -6.7317492455262e-22)                      (0.199089086269075 -0.231320737850389 -2.88257463374966e-21)                      (0.903284850588632 0.00607463382630631 1.81166735037732e-21)
                    65                      (0.240627920448961 0.00519108812296909 -7.34661750132182e-22)                      (0.184018412466917 -0.219992242871339 -2.88243049708761e-21)                      (0.90644536867959 0.00716043208622178 1.79082717645006e-21)
                    66                      (0.238233579061579 0.00560838906308909 -8.30668549420353e-22)                      (0.169539582889175 -0.208767496312727 -2.84089473786359e-21)                      (0.909625347907308 0.00830834121762254 1.7526993966739e-21)
                    67                      (0.231347103166318 0.00599045536457445 -8.84790893780901e-22)                      (0.155572688940809 -0.197745142603645 -2.85022014750768e-21)                      (0.912854065206397 0.00949953468548797 1.74012475477428e-21)
                    68                      (0.234062670756586 0.00594759554867891 -9.34047920644202e-22)                      (0.142073724168351 -0.186921856231846 -2.95733701476754e-21)                      (0.916168956063511 0.0107143472036978 1.77500781239869e-21)
                    69                      (0.251047487400707 0.0051334598713519 -1.02924164499221e-21)                      (0.129147147099707 -0.176191026079741 -3.14333829572097e-21)                      (0.919608736173949 0.0119331392704255 1.84078567955139e-21)
                    70                      (0.27714130015229 0.0037612707361715 -1.1297318795073e-21)                      (0.116931256909135 -0.16551865904716 -3.34886888960925e-21)                      (0.923210206754163 0.0131374699729029 1.90613942261938e-21)
                    71                      (0.303957829921528 0.00239680315734501 -1.17810957279789e-21)                      (0.105452119395033 -0.15501815915915 -3.51730024689712e-21)                      (0.927028435641822 0.0143104029626633 1.9541468903593e-21)
                    72                      (0.326456007480099 0.00144618051470634 -1.17950104735882e-21)                      (0.0946459756841076 -0.144814222180434 -3.62568357869985e-21)                      (0.931134490230853 0.0154392116170588 1.98403073356222e-21)
                    73                      (0.344076068528089 0.000878803682194262 -1.18033181880268e-21)                      (0.0844843640599221 -0.134928241132572 -3.68342335324901e-21)                      (0.935600818747101 0.0165179162392163 2.00201533915265e-21)
                    74                      (0.357610629363093 0.000392301546626683 -1.19490410710585e-21)                      (0.0750216190115783 -0.125311251938202 -3.70973709417915e-21)                      (0.940477367898651 0.0175491476053719 2.01386646582036e-21)
                    75                      (0.366362742543835 -0.00021843000646744 -1.21082816960197e-21)                      (0.0663301184871787 -0.115926700583721 -3.72002016958249e-21)                      (0.945798288032617 0.0185461638386215 2.02518273726422e-21)
                    76                      (0.36817170120979 -0.000872457580424021 -1.24114237546042e-21)                      (0.0584395308966828 -0.106767280800354 -3.70873956340943e-21)                      (0.951589738764566 0.0195345925870353 2.03335602596113e-21)
                    77                      (0.361560676347033 -0.00140278766391819 -1.27977665386202e-21)                      (0.0513391553872377 -0.0978274757135533 -3.6776277291448e-21)                      (0.957869146096932 0.0205538560331558 2.03934270777907e-21)
                    78                      (0.347994461374957 -0.00173834929368252 -1.29509493620717e-21)                      (0.0449903512544959 -0.0890847749533107 -3.64932616557936e-21)                      (0.964624568289355 0.0216586187307413 2.05074193125012e-21)
                    79                      (0.329612395986516 -0.00191576594840768 -1.29423425308193e-21)                      (0.0393840596225849 -0.0804547726922486 -3.63006604747814e-21)                      (0.971808580577988 0.0229153937728324 2.0645735909776e-21)
                    80                      (0.307703739264076 -0.00202056392376916 -1.30809318834355e-21)                      (0.0344951482440987 -0.071786586545385 -3.64832279597402e-21)                      (0.979342505647758 0.0243962557452705 2.06804227077563e-21)
                    81                      (0.282041566482667 -0.00214075855552647 -1.32680220756706e-21)                      (0.0303267583854706 -0.0630296124752705 -3.63776411387206e-21)                      (0.98713166699167 0.0261726216386419 2.05524723520172e-21)
                    82                      (0.252501394718753 -0.0023191987289595 -1.33229477710887e-21)                      (0.0268649332887692 -0.0541294916905058 -3.59755261935346e-21)                      (0.99508461686153 0.0283050942955712 2.02580268380385e-21)
                    83                      (0.22061766094739 -0.00251274286760685 -1.3263226179846e-21)                      (0.0240789044906204 -0.0450063387788493 -3.5360887753888e-21)                      (1.00312822203773 0.0308325011924741 1.98048215174341e-21)
                    84                      (0.18942797138276 -0.00260962168181121 -1.32230625563394e-21)                      (0.0220328495135394 -0.0355434495903338 -3.48273748240258e-21)                      (1.01121652601302 0.0337666877173737 1.92324148624116e-21)
                    85                      (0.160004104144653 -0.00253278660121998 -1.30885647303811e-21)                      (0.0208201245070833 -0.0256279427045872 -3.47765780061704e-21)                      (1.01933522780086 0.0370863490375766 1.85932591560948e-21)
                    86                      (0.13168115868995 -0.00232362477675459 -1.28088686489867e-21)                      (0.0203694792732335 -0.0152341061912307 -3.49213618015278e-21)                      (1.02749758461451 0.040734933201165 1.78970312393723e-21)
                    87                      (0.103980428713057 -0.0020529599445844 -1.24507887209759e-21)                      (0.020615682835646 -0.00436580588988515 -3.50980714453315e-21)                      (1.03574182484994 0.0446265313881039 1.71187967708815e-21)
                    88                      (0.0787507648515345 -0.00170184535020452 -1.21899142702299e-21)                      (0.021573493702642 0.00698700598395939 -3.53007997417535e-21)                      (1.04412724551455 0.0486492409105935 1.62992271978457e-21)
                    89                      (0.0569093771414609 -0.00120328502658 -1.20652039019175e-21)                      (0.0232882662838188 0.0188137758090418 -3.57921888586721e-21)                      (1.05270692909455 0.0526703450422003 1.54975163805876e-21)
                    90                      (0.0371281702121283 -0.000591602284622213 -1.18859201716814e-21)                      (0.0257593211599586 0.0310469230425956 -3.69296145920548e-21)                      (1.06154498645043 0.0565627578984901 1.47975410305795e-21)
                    91                      (0.0171815978560035 -2.03693587268934e-05 -1.16297044357974e-21)                      (0.0289133857021184 0.043532941287136 -3.88464033063491e-21)                      (1.07066115738065 0.0601870108688179 1.41458648226677e-21)
                    92                      (-0.0040690017610192 0.000354381397278524 -1.14182947783606e-21)                      (0.0325394831398402 0.0560615441805494 -4.16823580812618e-21)                      (1.0800688073266 0.0634241740287085 1.3535710202774e-21)
                    93                      (-0.0248309543338711 0.000429913400756644 -1.14927941786766e-21)                      (0.0361996281234266 0.0684025774726573 -4.55900485441334e-21)                      (1.0897720263057 0.0661811185474767 1.29659040648897e-21)
                    94                      (-0.0410269418532317 0.000277836893976442 -1.1743716320736e-21)                      (0.0390388358222214 0.080349625074631 -5.08854246435987e-21)                      (1.09973209218053 0.0683754023802373 1.24224203548944e-21)
                    95                      (-0.0498200199091564 0.000193970652962188 -1.18012092057384e-21)                      (0.0397089008919825 0.0919588437707275 -5.78183805635145e-21)                      (1.10986774800918 0.0699535979276986 1.19147303207939e-21)
                    96                      (-0.0514701887526582 0.000432883338591158 -1.15688457217558e-21)                      (0.0360625481756862 0.103847053576035 -6.64451359693454e-21)                      (1.12005852627378 0.0708742361172295 1.14468991139273e-21)
                    97                      (-0.0482046991046164 0.000892722066198347 -1.12358744727333e-21)                      (0.0255518728261272 0.11719257447787 -7.71077819442382e-21)                      (1.13014535013406 0.0711041776692858 1.10161292954667e-21)
                    98                      (-0.0425601002265718 0.00127939427599644 -1.10338520516502e-21)                      (0.00602593126045376 0.133442959839996 -8.94762838685271e-21)                      (1.13993890579254 0.0706371573177359 1.06186797209311e-21)
                    99                      (-0.0361234935324752 0.00139450275604333 -1.11156587624529e-21)                      (-0.023552786243617 0.154192890240279 -1.05331170142292e-20)                      (1.14919152922474 0.069449561807987 1.0254492648701e-21)
                   100                      (-0.0294771699940567 0.00124963273154189 -1.13030966557554e-21)                      (-0.0631704382339294 0.180169451467965 -1.24849371297202e-20)                      (1.15758677365538 0.0675268179016294 9.93085266433671e-22)
                   101                      (-0.0219354194898746 0.000998015673159822 -1.14283200962487e-21)                      (-0.110816561374189 0.210821383554429 -1.47365079486286e-20)                      (1.1647770290281 0.0648463939561512 9.66334178853335e-22)
                   102                      (-0.0116551382055596 0.000744937194271672 -1.13801308063372e-21)                      (-0.163795333122638 0.244363405386579 -1.73047687522881e-20)                      (1.17033736050007 0.0613704061515296 9.45080037363048e-22)
                   103                      (0.00194634021334121 0.000445160434106152 -1.12257387419128e-21)                      (-0.214864559230451 0.276838672803707 -1.95018195172101e-20)                      (1.17378811019295 0.0570573873029495 9.27899246818013e-22)
                   104                      (0.0174889925093987 5.16503988737652e-05 -1.11126752109556e-21)                      (-0.258171463601848 0.304225203511459 -2.12119918945769e-20)                      (1.17462088074874 0.0518549564609314 9.13238196432862e-22)
                   105                      (0.0324422534089491 -0.000368484066284663 -1.11079180059111e-21)                      (-0.290933745759947 0.324032574217984 -2.24782789855036e-20)                      (1.17234471558827 0.0457414051661471 8.99877630479468e-22)
                   106                      (0.0442627064593582 -0.000683600955626874 -1.11375651146028e-21)                      (-0.312754796654297 0.335798784860511 -2.33157184852485e-20)                      (1.16651317718777 0.0387074878634191 8.88243162500449e-22)
                   107                      (0.0518145001618059 -0.000805802602596889 -1.12656611842924e-21)                      (-0.325061886279903 0.340440896281766 -2.39131513541563e-20)                      (1.15665898375651 0.0306958208015539 8.79396563504898e-22)
                   108                      (0.0557628490413759 -0.000763506524700104 -1.1421058489909e-21)                      (-0.329556556491178 0.339475118152689 -2.43676551483527e-20)                      (1.14261962841452 0.021883821553018 9.02601068251954e-22)
                   109                      (0.0574597030874244 -0.000656532386250669 -1.15636799133303e-21)                      (-0.327887194314849 0.334264049028463 -2.47962948512831e-20)                      (1.12430476195373 0.0125117072982255 9.34432737374268e-22)
                   110                      (0.0577994970420186 -0.000556912752808576 -1.16886792566047e-21)                      (-0.321221030373497 0.325694285126667 -2.52604018899273e-20)                      (1.10119575769454 0.00251115909090692 1.05903400986016e-21)