/*--------------------------------*- C++ -*----------------------------------*\
  =========                 |
  \\      /  F ield         | OpenFOAM: The Open Source CFD Toolbox
   \\    /   O peration     | Website:  https://openfoam.org
    \\  /    A nd           | Version:  7
     \\/     M anipulation  |
\*---------------------------------------------------------------------------*/
FoamFile
{
    version     2.0;
    format      ascii;
    class       volScalarField;
    location    "30000";
    object      k;
}
// * * * * * * * * * * * * * * * * * * * * * * * * * * * * * * * * * * * * * //

dimensions      [0 2 -2 0 0 0 0];

internalField   nonuniform List<scalar> 
21000
(
0.00194525355711254
0.000941867206263814
0.000670064140808645
0.000521193070653735
0.000432597771552361
0.000387956525001251
0.000366758140144412
0.000353821363671969
0.000344275245393297
0.000336295893310755
0.000329302453917891
0.000323269558139286
0.000318265761876492
0.000314273225133757
0.000311181788287101
0.000308843058796413
0.000307113203093635
0.000305875472081098
0.000305041576625352
0.00030454917447187
0.000304403445358494
0.000304461637260988
0.000304714775879349
0.000305189143053202
0.000305900002315317
0.000306853908625232
0.000308058985448606
0.000309527559304531
0.000311278262743087
0.000313336046677505
0.000315728524026093
0.000318491994035735
0.000321678376258266
0.000325357717984565
0.000329627335594887
0.000334608787975221
0.000340487110568993
0.000347481229763916
0.000356016990698787
0.000366501851694516
0.000380196883225513
0.000397957437378314
0.000424661843859715
0.000464742652804144
0.000553510931441207
0.000518720501847479
0.000339663925190438
0.000167995255407702
8.08256994808541e-05
3.97270979432861e-05
2.49704070159405e-05
3.48216006884233e-05
3.7252107439835e-05
2.75078766705666e-05
1.61818894264284e-05
7.30624493843576e-06
3.39585839856094e-06
2.31645287932724e-06
2.46065974469396e-06
3.40911180468106e-06
5.65022172073251e-06
8.94352344815803e-06
1.71071015993654e-05
2.29577229813769e-05
2.42570722067603e-05
4.63959979407157e-05
8.02844763827889e-05
0.000111554217709178
0.000146173607568897
0.000178137913436206
0.000208267637289194
0.000233729470742482
0.000255531147097007
0.00027243319309932
0.000285172377690491
0.000293741264901133
0.000298814344718835
0.000300758280354779
0.000300223313832124
0.000297678367491103
0.000293653482816239
0.000288648379563025
0.000282845420763873
0.000276441133876068
0.000269792311358836
0.000263105951837773
0.000256564199604177
0.000250242333824019
0.000244161440588555
0.000238354324259643
0.000232874571536507
0.000227750432307003
0.000222982099133608
0.000218558704383288
0.000214478677586248
0.000210736916373456
0.000207314613514879
0.000204196045031006
0.000201364074221241
0.000198805517247039
0.000196502677505326
0.000194437045506783
0.000192593425747422
0.000190957037222109
0.00018951676222676
0.000188260191611005
0.000187172696675655
0.000186242921700234
0.000185460657598419
0.000184817234949627
0.00018430597970288
0.000183918856813162
0.00018364746728371
0.000183484855457119
0.000183425686594565
0.000183464971286589
0.000183599598947465
0.000183827265910286
0.00018414411569396
0.000184547431791748
0.000185035482761087
0.000185607632699454
0.000186263972324446
0.000187005737467013
0.000187834716895119
0.000188753411375537
0.000189762264638856
0.000190866609518189
0.000192062772281829
0.000193365673746347
0.000194747236216353
0.000196261703007709
0.000197767759242906
0.000199502308533151
0.000200794479827464
0.000202784836115535
0.000202108709101465
0.000204761485823384
0.000193957106621529
0.000174651527893157
0.00966190932548609
0.00789888804811737
0.00647004194515005
0.00554194507950482
0.00502482144687271
0.00476339963753856
0.00463463892166584
0.00455294107808922
0.0044905387660422
0.00443649265843164
0.00438798905174593
0.00434557082040609
0.00431002753825596
0.00428136805038869
0.00425888298023766
0.00424155675749955
0.00422838910690093
0.00421856175874724
0.00421144755577043
0.00420665494021141
0.00420344913490502
0.00420136861788975
0.00420049894627479
0.00420101106125148
0.00420296935216076
0.00420638211537002
0.00421125163543372
0.00421759089613476
0.00422543201468907
0.00423482501479367
0.00424580708463359
0.00425844833297115
0.00427287003747361
0.00428924700381692
0.00430780967560777
0.00432884726418343
0.00435272975137461
0.00437993230413961
0.00441109101712439
0.00444708791455339
0.00448906087334779
0.00453946848170059
0.00459929496460414
0.00467981375579311
0.00480618609038894
0.00469058744203694
0.00419884582237043
0.00346001514682275
0.00246175253400007
0.00135062193467058
0.000784662276742499
0.000947620068661099
0.000962968914473092
0.000739792279139369
0.000471437482034215
0.000233439555412523
0.000113511546942447
7.59680566195252e-05
7.69206910606583e-05
0.000105744028297395
0.000171528069158636
0.000270269384423447
0.000467512586686026
0.000602539892634148
0.000706000753486037
0.00113588302719516
0.00160534606966648
0.0019715538431704
0.00232773734122019
0.00264024965020447
0.00291629473929313
0.00314805422146542
0.0033467960603485
0.00350729200442453
0.00363429811639707
0.00372828357547177
0.00379288216879454
0.00383032431205833
0.00384451090350856
0.00383864523789301
0.00381646884807887
0.00378177198925165
0.00373658672011723
0.00368292035473295
0.0036237097215091
0.00356129748245616
0.00349768395691964
0.00343407989344288
0.00337118410370237
0.0033096586435308
0.00325025527311754
0.00319353586916414
0.00313978614133028
0.00308911650610981
0.00304162807008277
0.00299738853578985
0.00295636161021743
0.0029184703591916
0.00288359869249486
0.0028516325485708
0.00282243631083017
0.00279586216840037
0.00277176788961616
0.00275000740091499
0.00273044745063793
0.00271295500545683
0.00269739081413424
0.00268362955538075
0.0026715543799664
0.00266105655041271
0.00265203872909989
0.00264440422335733
0.00263805820809399
0.00263291440422993
0.00262889678075491
0.00262593475736083
0.00262396744539369
0.00262294158611458
0.00262280318515248
0.00262350426399198
0.00262500378698681
0.0026272677824799
0.00263026831793322
0.00263398384279678
0.00263839847226709
0.00264350036951217
0.0026492773553079
0.00265572735039882
0.00266283926926284
0.00267062931801908
0.00267905590622769
0.00268819059465784
0.0026978108417203
0.002708297533354
0.00271831542675522
0.00273080666090429
0.00273472674180899
0.00275938260102126
0.00269722552650919
0.0026295671611318
0.00975229269234612
0.00881266205121138
0.00778527650195165
0.00697160589183692
0.00641841940423302
0.00606933456486418
0.00585548180058282
0.00572170080814291
0.00563390973186251
0.00556879636897961
0.00551733021238069
0.00547650835588346
0.00544447827028455
0.00541970503539801
0.00540084277307053
0.00538671833546108
0.00537633595580954
0.00536888456031371
0.00536371475472265
0.00536037460090803
0.00535836613095583
0.00535759761347803
0.00535789414417238
0.00535912320788623
0.00536115535914989
0.00536392924481901
0.00536741900942536
0.00537160964455157
0.00537649389673108
0.00538206639107358
0.0053882876891243
0.00539516001943326
0.00540271802859689
0.00541101719024178
0.00542012251133531
0.00543011716153122
0.00544107675919702
0.00545313385933167
0.00546632995914115
0.00548098474803182
0.00549673430363061
0.00551510238020566
0.00553235862021369
0.00555673692033503
0.00557599778369916
0.00549155023546478
0.00537336640506057
0.00520573913244017
0.00492098105488941
0.00455680556207863
0.00426521791544695
0.00417913496277147
0.00344774971578217
0.00257860397415145
0.00177027579962644
0.00103226775932905
0.000569075239906028
0.000397305580961429
0.000408029591403715
0.00053560758249579
0.000755073286463169
0.00102864710202441
0.00142652844654012
0.00178216559038017
0.00218640180436171
0.00296850378766634
0.00371049736452774
0.00431107861129512
0.00487264116298016
0.00536885047789621
0.00580759225583313
0.00618054535637116
0.00649525957243603
0.00674818608617695
0.00694517422511264
0.00708855796296609
0.00718341141095355
0.00723382117558606
0.00724545242277881
0.00722337948441828
0.0071731735422881
0.00710030432928689
0.00700833421196048
0.00690062748480999
0.00678134853197252
0.00665423693268803
0.00652246446249428
0.00638817263833058
0.00625279756748923
0.0061176659935309
0.00598418104133405
0.00585349790473783
0.00572636708881404
0.00560325343006559
0.00548456419823066
0.0053706560147627
0.00526173198363927
0.00515787635193832
0.00505908509534401
0.00496532952093951
0.00487654622959406
0.00479263307485669
0.00471346139390843
0.00463887434716517
0.00456871050056858
0.00450280321668605
0.004440972923972
0.0043830413505075
0.0043288300509968
0.00427816098483644
0.00423086288760273
0.00418676593009627
0.00414570134778306
0.0041075067358672
0.00407202910594331
0.00403912122027097
0.00400864452585252
0.00398046977365747
0.0039544705525749
0.00393052670553412
0.00390852621751896
0.00388836570946231
0.00386994947247184
0.0038531889364917
0.00383800277339515
0.00382431497110353
0.00381205294850578
0.00380115084656677
0.00379154552658144
0.00378318507987474
0.00377600556571501
0.00376998234983679
0.00376498086990759
0.00376116645113012
0.00375772208504566
0.00375681071771981
0.0037511053391259
0.00375979554375209
0.00373760085489094
0.00377244123360406
0.00873135771965095
0.00837817488956895
0.00782785685069446
0.00726343798972125
0.00679369303742386
0.00644368685098082
0.00619813302503553
0.00603018359623391
0.00591578356066391
0.00583622630743984
0.00577921664775593
0.00573752822451082
0.00570687702666083
0.00568451628725798
0.00566851756208665
0.00565743041429763
0.00565012087549296
0.00564569307032071
0.00564343467171995
0.00564281548355257
0.0056433569135144
0.0056448051074469
0.00564699703868938
0.00564975808886066
0.00565287779279542
0.00565631915969075
0.00566004356068534
0.00566400458426839
0.00566816202357051
0.00567246175823009
0.00567678066315585
0.00568112513285173
0.00568550015464581
0.00568990233510342
0.00569431840654986
0.00569873585550052
0.00570310744717127
0.00570741085386178
0.00571146896008798
0.00571532411415192
0.00571814760736666
0.00572083599808466
0.00571836967975722
0.00571701793692537
0.00569134235723661
0.00558884276917862
0.00548486822232707
0.00547335725918756
0.00555309338631273
0.00582246764122739
0.0064135949123588
0.00687040193283273
0.00603835382784402
0.00453488186099196
0.00319471466756929
0.00200479388862674
0.00118107034403705
0.000826550248802753
0.00081042833564336
0.00098324118914935
0.00128602212072996
0.00166560952297445
0.00218611640523985
0.00272691103637824
0.00341487440466036
0.0044339407285221
0.0053313448026907
0.0060821136110711
0.00676962596005065
0.0073743830326501
0.00790635994003472
0.00835965409880987
0.00873882721247318
0.00904205195375316
0.00927539808003729
0.00944260011871456
0.00954956151993299
0.00960167548803852
0.00960571892621335
0.00956803180408571
0.00949535677899977
0.00939416597167526
0.00926902972740455
0.00912421441873019
0.00896462015981457
0.00879478481443228
0.00861851916415292
0.0084384663865151
0.00825647015351203
0.00807421820169443
0.0078934418142633
0.00771557227477146
0.00754156118922457
0.00737202217702672
0.00720749381253525
0.00704845950668265
0.00689522283859801
0.00674792429392613
0.00660659621128153
0.00647124309415859
0.00634183814635108
0.00621830583046933
0.00610052725384671
0.00598834459196715
0.00588159126618967
0.00578009947229532
0.0056836898219034
0.00559217824459164
0.00550537476052885
0.00542308522840525
0.00534512082709509
0.00527129653698398
0.00520142924364142
0.00513534032607934
0.00507285820621505
0.00501381517594364
0.00495805023959628
0.00490541196965117
0.00485575334595789
0.00480893317445933
0.00476481748844473
0.00472327993177803
0.00468420084924313
0.00464746675179726
0.00461297098913659
0.00458061269333528
0.00455029461616316
0.00452192585119865
0.00449541789568144
0.00447069400562893
0.0044476646752235
0.00442628475480362
0.00440639492779741
0.00438815660675603
0.00437077051551591
0.00435627702198493
0.00433842729297211
0.00433344837042059
0.00430626433933349
0.00431935741253453
0.00794070670399468
0.00777345311668424
0.00751384688762961
0.00717997353058028
0.00684415319162525
0.00655331440469916
0.00632262178022667
0.00614854195738609
0.006020671434864
0.00592744673664709
0.00585920771153371
0.00580898556570224
0.00577201430429858
0.00574502192561619
0.0057256818548833
0.0057122665700584
0.00570344542946145
0.00569817020478871
0.00569560352547771
0.00569508901794748
0.00569608065306953
0.00569816670113551
0.00570106380386304
0.00570454604185757
0.00570840393178715
0.00571248696081881
0.0057166862973946
0.00572091550025399
0.0057251036450322
0.00572918953953022
0.00573309279246562
0.00573675513753448
0.00574013226882691
0.00574318256027355
0.00574585611272308
0.00574809775322368
0.00574981592272435
0.00575092237823179
0.00575118521811615
0.00575050909349367
0.00574802739029232
0.00574417927108418
0.00573419959539435
0.00572232802990174
0.00568346097953576
0.00558274294513462
0.00546416973357957
0.00540976459444405
0.00549289085290945
0.00585347815639314
0.00687853123456719
0.00832309278083531
0.00831752402052171
0.00654778753634077
0.00464040098406407
0.00300315538557327
0.00182629666496749
0.0012631776805943
0.00118608202431391
0.0013713429098356
0.00172874047341085
0.0021865168142452
0.00280733718522797
0.00350289903340895
0.00440916209166847
0.00560224464395297
0.00662350620507332
0.00749432739545886
0.00828097253198966
0.00897207842643723
0.00957785066803775
0.0100941789938744
0.0105236612751941
0.0108657183949986
0.0111266207171885
0.0113112344962292
0.0114261958612066
0.0114779953453947
0.0114743655329199
0.0114227507491931
0.0113308244653756
0.0112059063149871
0.0110533908562659
0.0108783296856423
0.0106862608647429
0.0104823441721623
0.0102708705565721
0.0100548525853282
0.00983645515512967
0.00961766359412021
0.00940046421666931
0.00918647414844883
0.00897676743394764
0.00877205246507546
0.00857295918945813
0.00838005156227745
0.0081936822802124
0.0080140066960734
0.00784106298802006
0.00767486473113466
0.00751539608999388
0.00736258201975955
0.00721629047741
0.00707634420627484
0.00694255785885179
0.00681475036962553
0.00669273092050794
0.00657629984718499
0.00646524754338444
0.00635935819536513
0.00625842248628982
0.00616223875627467
0.00607060961636461
0.00598334195128663
0.00590024855848054
0.00582114529723282
0.0057458544145614
0.00567420920650524
0.00560604975674167
0.0055412229714632
0.00547958307577275
0.005420991454261
0.00536531564882595
0.00531242897336015
0.0052622117990226
0.00521455118965182
0.00516933861873558
0.00512647224965208
0.00508585256418234
0.00504739229877665
0.00501099021738393
0.00497659318922624
0.00494402946745938
0.00491345858782069
0.00488410761709074
0.00485786882342259
0.0048293426351247
0.00481203701602019
0.004780234231476
0.00476510562497533
0.00739897298310487
0.0072799430682261
0.0071460827054815
0.00695979543831169
0.00674360261613623
0.00653012122812099
0.00634070284803169
0.00618364400861238
0.00605878473768303
0.00596185021862785
0.00588745064032524
0.00583066166324432
0.00578753206845442
0.00575505078515558
0.00573093996975108
0.00571345044031796
0.00570120914933708
0.00569311788778258
0.00568828711036021
0.00568599813028351
0.00568565492948366
0.00568677369905625
0.0056889814563911
0.00569198335958722
0.0056955241759139
0.00569940158246374
0.00570345792653422
0.00570756602136217
0.00571161975364536
0.0057155287898569
0.00571919499700301
0.00572253182278787
0.00572546392423972
0.00572792049011035
0.00572982482532883
0.00573109369537666
0.00573160954336206
0.00573124714821202
0.00572974968152593
0.00572694656784381
0.00572197099862358
0.00571499592520279
0.00570148513156175
0.00568447656884327
0.00564023160528193
0.00554424297999975
0.00542872147133798
0.00534847788345786
0.00535833598690271
0.00557526328998998
0.0064644709968416
0.00846731383202467
0.00985448944846086
0.00864727295609729
0.00625106128198977
0.00411031852182172
0.00253342862061917
0.00171340042647261
0.00153961650891714
0.00171795976226616
0.00211819160281816
0.00264103383335195
0.0033458579888193
0.00417570509713823
0.0052638240395111
0.00659941268938474
0.0077274773071771
0.00870381500935704
0.0095780789938089
0.0103469965891042
0.0110189009749704
0.0115913375051993
0.0120654449642875
0.0124415849227246
0.0127263395071185
0.0129255781136212
0.0130466816783378
0.013097159719711
0.0130856801942668
0.0130207154924038
0.0129107895331543
0.0127640169524696
0.0125865234392299
0.0123841067126023
0.0121629182100004
0.0119286612826079
0.0116860276889398
0.0114383321214838
0.0111880261887528
0.0109373745252304
0.0106885911144576
0.0104434351692682
0.010203065795416
0.00996826610658128
0.00973974717833089
0.00951813624193326
0.00930381100913099
0.00909692357482429
0.00889750847257733
0.00870558303932121
0.00852113396262289
0.00834407520139161
0.00817425115511182
0.00801145789163721
0.00785548726120294
0.00770614110607667
0.00756321163318146
0.00742647735869165
0.00729570326118264
0.00717064749335819
0.0070510774113054
0.00693677229416513
0.00682751781251031
0.00672310352801713
0.00662332395126129
0.00652797630201906
0.00643686476818835
0.00634980681778808
0.00626662935008559
0.00618716735986741
0.00611126343839201
0.00603876706327546
0.00596953362078495
0.00590342434720771
0.00584030834631377
0.0057800627332935
0.00572257035066122
0.00566772129263931
0.00561540872473011
0.00556553771341175
0.0055180008422435
0.00547273746287393
0.00542957561204081
0.00538866120492845
0.00534927956297314
0.00531314211619834
0.00527564744770205
0.00524782420051414
0.00521225448437217
0.00517540294995346
0.00699294960600298
0.00689923927578816
0.00681730968645186
0.00671219234547199
0.00658046323354363
0.00643580440022089
0.00629394536901112
0.00616559065677365
0.00605556336891812
0.00596448621789542
0.00589071995867011
0.00583178294206217
0.00578515419534368
0.0057486138850683
0.00572031532261551
0.00569874676477447
0.00568266799973257
0.00567105448357951
0.00566305608319467
0.00565796709940922
0.00565519177447802
0.00565423074119486
0.00565467221548169
0.00565617982158844
0.00565846853849917
0.00566129961117953
0.00566447621255766
0.00566783466891062
0.0056712358384895
0.00567456080917297
0.00567769547336785
0.00568053206181547
0.00568297011511315
0.00568491349486443
0.00568626207151789
0.00568690951909188
0.00568671785692557
0.00568553548493487
0.00568308824855398
0.005679155823181
0.00567287410843018
0.00566423310983939
0.00564891262213764
0.0056290168407029
0.00558284409665452
0.00549215709116747
0.00538433102644431
0.00530060658034555
0.00527469007851199
0.00536065181686045
0.00589022454717965
0.00776994703367867
0.0103003625752056
0.0105454889127655
0.00812519087985997
0.00542780192270874
0.0033711105747845
0.00221080823899314
0.0018886534937816
0.00203840484171576
0.00247386475120596
0.00305258941810269
0.003828924825511
0.0047775756115222
0.00602453005295276
0.00748552901773748
0.00871218154978868
0.00978749701916147
0.0107447882730485
0.0115880353218987
0.0123228033848099
0.012948264384588
0.013464359242718
0.0138721904122254
0.0141788018855643
0.014391009678498
0.0145169938458192
0.0145652692036764
0.0145454845794229
0.0144670786019367
0.0143394333610442
0.0141714350740913
0.0139698857812211
0.013741327221892
0.0134925238894893
0.0132296786508067
0.0129578303560317
0.0126805508193546
0.0124005643635192
0.0121204116799936
0.0118425180724641
0.0115687522021924
0.0113003336232228
0.0110381113277617
0.0107828749733488
0.0105353032283138
0.0102957807489596
0.0100644446261743
0.00984132245594559
0.00962643471078921
0.00941976586198861
0.00922121075440431
0.00903058345100882
0.00884765005342226
0.00867217918251483
0.00850395491752235
0.00834274954753236
0.00818831568493017
0.00804038936878845
0.00789870071928771
0.00776299316773118
0.00763302650433369
0.00750856824488494
0.00738938868794585
0.00727526204976517
0.00716596532122263
0.00706128378865201
0.00696101885169594
0.00686498400018666
0.00677300181884156
0.00668490245804149
0.00660052257121983
0.00651970462576978
0.00644229736683625
0.00636815865241311
0.00629715593248815
0.00622916387856246
0.00616406489679459
0.0061017455154351
0.00604210325258611
0.00598502620597639
0.00593044517235404
0.00587819378242126
0.00582839775027029
0.0057804160084171
0.00573577319900782
0.00569060186542301
0.00565379263934934
0.00561460902816609
0.00556137291435358
0.00666777402684064
0.0065967667331803
0.00654299405954912
0.00648170904199998
0.00640299866287901
0.00630954420549212
0.00620979217921269
0.0061121743813704
0.00602242935560307
0.00594341313146482
0.00587586077005274
0.00581925322413548
0.00577249137787434
0.00573431357661927
0.0057034966842714
0.00567893090335786
0.0056596374918291
0.00564476560966217
0.00563358361785453
0.00562546434383732
0.00561986368226192
0.00561631147960241
0.00561440195984604
0.0056137920308807
0.00561418905577243
0.00561534124366836
0.00561703232563315
0.00561907582794598
0.00562130910179754
0.00562359064816563
0.00562579074630419
0.00562778654152992
0.00562945992266119
0.00563069518760134
0.00563137273764283
0.00563136683211668
0.00563052191441496
0.00562866516814758
0.0056255068256843
0.00562078924120436
0.00561364678532058
0.00560393110643082
0.00558752402703295
0.00556576334924953
0.00551912178411515
0.00543371768076393
0.00533392877264924
0.00525372310886922
0.00521934435503984
0.00524429136423562
0.00547627310614435
0.0068138342128956
0.00976037444995065
0.0116971844611853
0.0101828010280476
0.00700443196842611
0.00440074727880141
0.00280307634543348
0.00225382578217276
0.0023431950845096
0.00280621787317452
0.00343367687112073
0.00427136360470412
0.0053258285496582
0.00671588153669755
0.0082934822967221
0.00961543682366463
0.0107873101261522
0.0118263562738146
0.0127428816342161
0.0135393369027001
0.0142165025036691
0.0147732851070266
0.0152113916182109
0.0155385108109513
0.0157623938666545
0.015892101843432
0.0159371953046907
0.015908346143322
0.0158159550116746
0.0156702892482108
0.015481001865269
0.0152555338687435
0.0150011911703001
0.0147253597020422
0.0144347096821625
0.0141345809240799
0.0138287661281237
0.0135202606672924
0.0132118850701916
0.0129062605259836
0.0126053331484864
0.0123103641566954
0.0120222661040872
0.0117419075560596
0.0114700059024221
0.0112069352778133
0.0109528090363032
0.0107076478677963
0.010471476108849
0.0102442711112129
0.0100259005475659
0.00981614253889622
0.00961473176088006
0.00942141464175187
0.00923595752528824
0.00905811005490681
0.00888759517016442
0.00872411729969853
0.00856737771033305
0.00841709642149697
0.00827301414104302
0.00813487949928792
0.00800244191149185
0.00787545374283357
0.00775367082368111
0.0076368594037026
0.00752480522768778
0.007417308648105
0.0073141795524154
0.00721523485302844
0.00712029743774262
0.00702919612419365
0.00694176681889814
0.00685785618477747
0.00677732224897385
0.00670003172514497
0.00662585931081952
0.00655468483134315
0.00648639786692367
0.00642088240791697
0.00635805992800725
0.00629777218997894
0.00624012200182689
0.00618454731710054
0.00613239168396369
0.00608045267320064
0.00603580243563829
0.00599296506449019
0.00592696283001456
0.00639400928856631
0.00635318809288033
0.00631902408671265
0.00628140907750558
0.00623371624928868
0.00617468492525663
0.00610750060237954
0.00603717326079675
0.0059682524901477
0.00590391308811504
0.00584592171064671
0.00579495477780742
0.00575098735670781
0.00571360988371322
0.00568222880168185
0.00565618385137168
0.00563481575659578
0.00561750442554807
0.00560368796487416
0.00559286240558754
0.005584573326444
0.00557841135065431
0.00557401093813796
0.00557105312270569
0.00556926075437973
0.00556838974200816
0.00556822339040749
0.00556856842508757
0.00556925175249093
0.00557011974837426
0.00557103256819411
0.00557185788012097
0.00557246645186549
0.00557272924791307
0.00557251234074719
0.00557167507089863
0.0055700475335289
0.00556743973687529
0.00556354742575237
0.00555808324101961
0.00555017686944408
0.00553956942536041
0.00552233483548065
0.00549917897423128
0.00545266739971657
0.00537221367011707
0.00527993402476125
0.00520487145692245
0.00517019786277578
0.00518066270761644
0.00525821242996855
0.00599829250711064
0.00864142547378347
0.0118492910055951
0.0120165692337517
0.00886956103197085
0.00567334737996188
0.00353940562765353
0.0026621257389844
0.00264177685143702
0.00312186236760992
0.00379228287315578
0.00468243300995006
0.0058312398414154
0.00735350777735993
0.00904368892018375
0.0104601827483672
0.0117283654097993
0.0128496281988539
0.0138396473282013
0.0146976510997445
0.015426001848836
0.0160227096796754
0.0164899890451889
0.0168363948910547
0.0170706359462486
0.0172027601637887
0.0172434639691372
0.0172044567032143
0.0170971586519767
0.016932752064369
0.0167216607932031
0.0164719327845456
0.0161916738058883
0.0158888995556559
0.0155707156481385
0.0152427153417557
0.014908878961977
0.014572480969638
0.0142366283281299
0.0139041178246566
0.0135769366372829
0.0132563729691061
0.0129434059994581
0.012638984228916
0.0123438468602763
0.0120583388496513
0.0117825438656456
0.0115164786542049
0.0112601722724207
0.0110135882717017
0.0107765581914936
0.0105488195210364
0.0103300756852838
0.0101200529320973
0.00991849969370029
0.00972513953853205
0.0095396617616786
0.00936173711667035
0.00919103814383281
0.00902726270255003
0.00887013309306575
0.00871937822392539
0.00857472492068692
0.00843590238792453
0.00830264490203479
0.00817470014058121
0.0080518390980106
0.00793384952995575
0.00782052836600524
0.00771167843786869
0.00760710799080152
0.00750663168412532
0.00741007254467672
0.00731726638396867
0.00722806226801345
0.00714231922657458
0.00705990417228704
0.00698068993943067
0.00690455771639582
0.00683138734864101
0.00676109061058001
0.00669351858301438
0.00662875036417902
0.00656630412980825
0.00650735071950717
0.00644928994643361
0.00639763769598945
0.00635107569903664
0.0062746896117879
0.00619575996240304
0.00615774614259972
0.0061342330204066
0.00610999879297781
0.00608031803446322
0.00604330217496096
0.00599939935125625
0.00595085815358665
0.00590047737418481
0.00585076111193756
0.00580357224053718
0.00576009004866266
0.00572092864724595
0.00568628927087148
0.0056560896801109
0.0056300733285155
0.00560789432068966
0.00558917706726329
0.00557354957025216
0.00556065180287302
0.00555013769052888
0.00554167894180644
0.00553497203949746
0.00552974460548084
0.00552575388117087
0.00552277945260768
0.00552061891832839
0.00551908604179779
0.00551801009951856
0.00551723682916694
0.00551662442004777
0.00551603724875784
0.00551534073535078
0.00551439832588903
0.00551306730626883
0.00551119725766964
0.00550860786484372
0.00550509594237433
0.00550034455248435
0.0054940423761282
0.00548531383241894
0.00547380902751703
0.00545578825728531
0.00543143998479862
0.00538525661668819
0.00530930861765436
0.00522379753563149
0.00515422307169783
0.00512053446405114
0.0051319572548065
0.00515940403894611
0.00546947513748403
0.00739264071447425
0.0111041310822495
0.0131461633869357
0.010972274360271
0.007239522545577
0.00446699090373077
0.00315361770715749
0.00294603244046725
0.00342604661981073
0.00413426299026685
0.00506874185644997
0.00630133739625297
0.00794830062876443
0.00974987101040089
0.0112614385364939
0.01262681531613
0.0138316208507123
0.0148959323431189
0.0158157484714417
0.0165949712005137
0.0172308704817894
0.0177261009281563
0.0180903495642696
0.0183333361746186
0.0184662425667598
0.0185009734224496
0.0184503431415704
0.0183268522032447
0.0181426353277013
0.0179088932710187
0.017634246890103
0.0173276492154624
0.0169977458462478
0.0166520380003498
0.0162963180139775
0.0159347210694562
0.0155708178331825
0.0152080070379623
0.0148492307471056
0.0144964733471873
0.0141510401384065
0.0138139851125725
0.0134863362828217
0.0131688305794519
0.0128617636312716
0.0125651872662618
0.0122791202548443
0.0120035962253936
0.0117385552435155
0.0114837827048477
0.0112389722487278
0.0110037982085149
0.0107779694677671
0.0105612155560697
0.0103532293722906
0.0101536624399026
0.00996215066318993
0.00977833910579999
0.0096019053857299
0.00943255403709917
0.00926999299490077
0.00911392459808389
0.00896405391492752
0.00882009392156183
0.00868177482674444
0.00854885419495171
0.00842110781017136
0.00829831922640554
0.00818027622835638
0.00806677164907651
0.00795760580329295
0.00785258919566945
0.00775154748153213
0.00765432145912229
0.00756076280853782
0.00747073053164949
0.00738409007265083
0.00730071380390967
0.00722047732064693
0.00714328265237251
0.007068990916795
0.00699765752926217
0.00692888058376184
0.00686366579875388
0.00679996170711773
0.00674193468098884
0.00669158627297649
0.00660641470297641
0.00603412730393429
0.00599791317781698
0.00597895592652405
0.00596232269946722
0.00594344020165443
0.00592034505558293
0.00589236873624651
0.00586009413747651
0.00582482400239117
0.00578810998365408
0.00575143240893578
0.0057160018071233
0.00568269623594255
0.00565206011036267
0.00562434942116709
0.00559961275528017
0.00557776874901898
0.00555866644640041
0.005542116033593
0.00552789932641124
0.0055157805163458
0.00550552079500433
0.00549689086249933
0.00548967861252488
0.00548368761119118
0.00547873112921626
0.00547463089712504
0.00547121819948236
0.00546833552731249
0.00546583824951042
0.00546359056281122
0.00546145939031034
0.00545930984164047
0.00545700310218671
0.00545439313346291
0.00545132498887518
0.00544761203007729
0.00544304169228407
0.00543728678817567
0.00543001693682701
0.0054203528435106
0.00540786847611743
0.0053890071725269
0.00536353869706461
0.00531768681963938
0.00524576737072476
0.00516628358032729
0.0051020749986466
0.00506979537829972
0.00508281069125994
0.00511009511079006
0.00519784308118851
0.00633672921133392
0.00979701816327248
0.0133291671149902
0.0129223466445016
0.00911994283480591
0.00565370591294855
0.00377522796582041
0.0032739780086554
0.00372442126266751
0.00446456963243135
0.00543569482373536
0.0067419569218467
0.00850844252190795
0.0104219008668725
0.0120297070755662
0.01349361564408
0.0147835868015282
0.0159230590352996
0.0169048667728865
0.0177343837698844
0.0184083516571465
0.0189298293309259
0.0193099480760045