/*--------------------------------*- C++ -*----------------------------------*\
  =========                 |
  \\      /  F ield         | OpenFOAM: The Open Source CFD Toolbox
   \\    /   O peration     | Website:  https://openfoam.org
    \\  /    A nd           | Version:  7
     \\/     M anipulation  |
\*---------------------------------------------------------------------------*/
FoamFile
{
    version     2.0;
    format      ascii;
    class       volScalarField;
    location    "30000";
    object      nut;
}
// * * * * * * * * * * * * * * * * * * * * * * * * * * * * * * * * * * * * * //

dimensions      [0 2 -1 0 0 0 0];

internalField   nonuniform List<scalar> 
21000
(
1.53361001835281e-05
7.4255460333318e-06
5.28268962946128e-06
4.10901145369038e-06
3.4105388161049e-06
3.05859362781712e-06
2.89146860048871e-06
2.78947690932421e-06
2.7142166812933e-06
2.65130861335049e-06
2.59617333971778e-06
2.54861085424153e-06
2.5091616418221e-06
2.47768505449044e-06
2.45331260956261e-06
2.43487440152514e-06
2.42123646714695e-06
2.41147837327835e-06
2.40490406104827e-06
2.40102203305802e-06
2.39987312561908e-06
2.40033190223627e-06
2.40232761081473e-06
2.40606745361058e-06
2.41167176612857e-06
2.41919222672924e-06
2.42869287965144e-06
2.44027090540512e-06
2.45407320034341e-06
2.4702964738902e-06
2.48915842233405e-06
2.51094522373436e-06
2.53606620439456e-06
2.56507360711496e-06
2.59873466028582e-06
2.6380077167391e-06
2.68435156938482e-06
2.7394922024796e-06
2.80678691805075e-06
2.88944805908944e-06
2.99741772443636e-06
3.13743938732243e-06
3.34797309982638e-06
3.66396445178231e-06
4.36382945405911e-06
4.08705493568581e-06
2.67243190078963e-06
1.31981769194512e-06
6.34009954099015e-07
3.1111347058319e-07
1.95199948127816e-07
2.71667705103597e-07
2.89974776504324e-07
2.13569195623273e-07
1.25255741433165e-07
5.63536844353752e-08
2.60833772884103e-08
1.77051436105581e-08
1.86986115881326e-08
2.58925362345462e-08
4.78371533028816e-08
8.55224075974e-08
1.80390107342582e-07
2.71268532948766e-07
2.98811384999857e-07
5.71530307331675e-07
9.88986410415147e-07
1.37418353222916e-06
1.800643386621e-06
2.19439651979702e-06
2.56555030671458e-06
2.87920256433779e-06
3.14776708154397e-06
3.35597537482346e-06
3.51290335153934e-06
3.6184594115091e-06
3.68095227718764e-06
3.70489869887812e-06
3.69830869985501e-06
3.66695871216244e-06
3.61737806561317e-06
3.55572257101235e-06
3.48423867211758e-06
3.40534729752313e-06
3.32344360441741e-06
3.24107751075377e-06
3.1604927657219e-06
3.08261669768559e-06
3.00770905620844e-06
2.93617394267534e-06
2.86867146623411e-06
2.80554962386344e-06
2.74681078764885e-06
2.69232108437034e-06
2.6420611681549e-06
2.59596818533678e-06
2.55381045856378e-06
2.51539429158539e-06
2.4805085855094e-06
2.44899093487798e-06
2.42062334362586e-06
2.39517780212748e-06
2.37246712417166e-06
2.35230922956223e-06
2.33456716457237e-06
2.31908806676043e-06
2.30569173211507e-06
2.29423827489834e-06
2.28460193421406e-06
2.27667591558033e-06
2.2703780045262e-06
2.26560922114112e-06
2.26226610216361e-06
2.26026296414889e-06
2.25953409097569e-06
2.26001802047707e-06
2.2616764348186e-06
2.26448095622142e-06
2.26838407852292e-06
2.27335233836324e-06
2.27936440692214e-06
2.28641245081878e-06
2.29449758756025e-06
2.30363504076036e-06
2.31384684540709e-06
2.32516380725768e-06
2.33759139242083e-06
2.35119529353992e-06
2.36593025565445e-06
2.38198008123139e-06
2.39899889445126e-06
2.41765489300939e-06
2.4362072859132e-06
2.45757437645843e-06
2.47349202215511e-06
2.49801027785627e-06
2.48968138964877e-06
2.52235968869297e-06
2.3892656624867e-06
2.15144938880853e-06
0.00026068170385542
0.00021703780967161
0.000175765007120004
0.000147441698896756
0.00013158926721007
0.000123835697045254
0.00012031253954285
0.000117955569627598
0.000116410447054431
0.000115172477792574
0.000114079257103253
0.000113126803422199
0.000112342601886158
0.000111735856078523
0.000111291625384993
0.000110982010221255
0.000110777098906646
0.000110651505914158
0.000110585555644308
0.000110566707226036
0.000110572029898258
0.000110586410487303
0.00011061196846741
0.000110654172602393
0.000110716121281029
0.000110798014427998
0.000110899513372244
0.000111020469058279
0.000111161168188958
0.000111322438959347
0.000111504976607673
0.000111709276926905
0.000111936988429472
0.000112191081579818
0.000112476187301997
0.0001127979672249
0.00011316525142708
0.000113587681088216
0.000114085508687294
0.000114675458031877
0.00011541421415933
0.000116342525761285
0.00011764917461541
0.000119468024188435
0.000124593366185956
0.000118461559737254
9.44437623545155e-05
6.82013605710447e-05
4.59338300249396e-05
2.78691193470884e-05
2.14055893459296e-05
3.47597378587479e-05
4.18813664918261e-05
3.42737228437704e-05
2.21249434926777e-05
1.08652149393905e-05
5.21642939344476e-06
3.41362312241026e-06
3.32958599477572e-06
4.37633472355263e-06
7.78485125012505e-06
1.29292740803209e-05
2.62540657137132e-05
3.54011802357332e-05
3.63742578943619e-05
6.15580640882026e-05
9.51427741359279e-05
0.000121699512131705
0.000148950904757853
0.000171958740325778
0.000191611371752158
0.000207556292843463
0.000221244926896797
0.000232186082508566
0.000240768294839008
0.000246984252315226
0.000251102472047697
0.000253254568790046
0.000253711519646544
0.000252683541786338
0.000250427604251742
0.000247207956070549
0.00024315616946027
0.000238413666241532
0.00023320270180367
0.000227687472037369
0.000222014965932902
0.000216276311683772
0.000210530598860521
0.000204838378246344
0.00019926608059109
0.000193862531175189
0.000188656227512832
0.00018366468193387
0.000178905431380332
0.000174390940488717
0.00017012350045355
0.000166102581243153
0.000162324514264009
0.000158785190673501
0.000155477171237253
0.000152390987655717
0.000149517166752806
0.000146845618845251
0.000144367022539074
0.000142071393031458
0.000139947632215636
0.000137985501133808
0.000136175263420868
0.000134507786785058
0.000132974775133858
0.000131567767370903
0.000130278295624722
0.000129098513212499
0.000128021376841266
0.000127040272495078
0.000126149381298587
0.000125343445589138
0.00012461703907422
0.00012396516094397
0.000123383324093913
0.000122867584452468
0.000122414432842664
0.000122020834228637
0.000121684106187604
0.000121401842521173
0.000121171363114354
0.000120990960013662
0.000120857543107596
0.000120771248617045
0.000120725088961575
0.000120725701853617
0.000120746779888612
0.000120826502122478
0.000120839896332642
0.000121018530761731
0.000120556797755881
0.000121266661386801
0.000115934738443862
0.000108583997894259
0.000531584041400873
0.000492732387512476
0.000436684795859129
0.000392014767223798
0.00035916434529762
0.000336588116242784
0.000321720943696698
0.000311965222056834
0.000305395901164776
0.000299528545710227
0.000294644123547746
0.000290789524745983
0.000287776711775068
0.000285464243392344
0.000283730375397307
0.000282466733177703
0.000281578165047062
0.000280984428113836
0.000280619705409926
0.000280432920698214
0.000280378609429915
0.000280423645283449
0.000280548234527918
0.000280739679983863
0.000280985438099556
0.000281278621246381
0.000281615606090603
0.000281994313602041
0.000282413934175808
0.000282874549591058
0.000283373223378247
0.000283910730837178
0.000284491622166734
0.000285123662746091
0.000285819024164727
0.00028659289704922
0.000287470001921042
0.000288477198442802
0.000289673522096097
0.000291106003941875
0.000292948421931671
0.000295292939676569
0.000298827106790239
0.000303627449727553
0.00031804603372926
0.000312613180095333
0.000279008085375617
0.000211346153960336
0.000152346837671961
0.000124570011399918
0.000124359136775519
0.000188587735337271
0.000265673603261518
0.000264474598367553
0.000220113811431254
0.000142535314386228
8.03047337053224e-05
5.28868570114436e-05
5.08253694922247e-05
6.73098561146362e-05
0.000102103127033572
0.000149268501817561
0.000216742498428304
0.000267709554269066
0.000321092363455367
0.000448179031801147
0.000562406835047419
0.00064546401490544
0.00072224535856567
0.000794439682090254
0.0008581226836395
0.000910118593825005
0.000953703539480493
0.000987932443926015
0.00101408626055432
0.00103242357300363
0.00104380556207367
0.00104874587455256
0.00104807015528553
0.00104244897821959
0.00103264869560941
0.00101944055903507
0.00100327028337621
0.000984581404359238
0.000964008672001628
0.000942075932608001
0.000919248161717467
0.000895834054065211
0.000872051537295546
0.000848126806500857
0.000824307663415018
0.000800791638922589
0.000777710858881978
0.000755161851466021
0.000733241902851396
0.000712034583907974
0.000691588454079276
0.000671934810437838
0.000653091925266516
0.000635074540742213
0.00061788561475336
0.000601517097659585
0.000585955463086868
0.000571181732252254
0.000557176533158099
0.000543917201164449
0.000531375646614748
0.00051952320621793
0.000508330611497875
0.000497768770812614
0.000487810038076347
0.000478425931287657
0.000469587118038134
0.00046126500825579
0.000453432652268739
0.000446064015062051
0.000439134997868072
0.000432623201278003
0.000426505981399503
0.000420761579754946
0.000415369517419309
0.000410310839497457
0.000405567912203887
0.00040112450642413
0.000396965563787719
0.000393076985847856
0.000389444156861824
0.00038605476109942
0.000382893431009335
0.000379952345296792
0.000377207408258997
0.000374665729158289
0.000372258324255925
0.000370064644288073
0.000367787023217149
0.0003659250132557
0.000362889491011282
0.000361207597850753
0.000356493796948063
0.000346275292665326
0.000816325913183658
0.000766315149625177
0.000709942092346249
0.000659410380020534
0.000618025801398993
0.000585698975383118
0.000561224858645319
0.000542988590171308
0.000529427810172833
0.000519265589134332
0.000511516203809238
0.000505513858963288
0.000500832599791298
0.000497188702381015
0.000494377708199978
0.000492241732351157
0.000490653215332437
0.000489507685066065
0.000488718787841791
0.000488218174188373
0.000487939128384564
0.000487867176612794
0.000487975138374931
0.000488209971737428
0.000488498731648379
0.000488912834541225
0.000489443474024595
0.000490081613383853
0.000490820335449756
0.000491630364458552
0.000492440646686931
0.000493313978265021
0.000494258540017821
0.00049528624317782
0.000496414430913929
0.000497666549101369
0.000499076463331642
0.000500689647068232
0.000502578217145692
0.000504840786713158
0.000507645271104195
0.000511290906066391
0.000516179323731599
0.000523517670142272
0.000538148816339445
0.00053132991544166
0.000503741977029343
0.000443088518548491
0.000314537390296586
0.000226378614969621
0.000209536322015071
0.000261267974005846
0.000409357800472071
0.000549859392698256
0.000565571713857695
0.000461303377731067
0.00031280063860204
0.000215462041308304
0.00019657699708101
0.000235805013236186
0.000320159507695467
0.000426650179934939
0.000555551244304645
0.000675730581838269
0.000833279397102048
0.00106718746741535
0.00125348235891835
0.00139960736551278
0.00153606124145252
0.00166110249205395
0.0017691677457134
0.00185787019723964
0.00193129531217744
0.00198852235951177
0.00203165782977211
0.00206143712290458
0.00207931773839484
0.00208629279588167
0.00208374850695579
0.00207285658445786
0.00205488714555236
0.00203110116190527
0.00200228092746815
0.00196916832656595
0.00193276047460699
0.00189392758165991
0.00185342542306031
0.00181175764821985
0.00176927957977687
0.00172636070875142
0.0016834092040272
0.00164075484830175
0.00159861683427838
0.00155715556787346
0.00151653797117649
0.00147691666871628
0.00143838824043801
0.00140101555290545
0.00136484121369626
0.00132990567241263
0.00129623433424112
0.00126383392122743
0.00123269931748238
0.00120281523266076
0.00117416566285548
0.0011467306742114
0.00112048145753286
0.00109538604345264
0.00107140949155096
0.00104851555543661
0.00102666953157748
0.00100583526414318
0.000985974442576396
0.000967048509862568
0.000949020127139992
0.000931852245520933
0.000915509922999374
0.000899960518689972
0.000885170725031733
0.000871107900435225
0.000857740650668813
0.000845039294253175
0.000832975667063152
0.000821523352998836
0.000810657543716243
0.000800354780038474
0.000790590628177893
0.000781343723779841
0.000772587845670093
0.000764307590560458
0.000756462701051409
0.000749059001167549
0.000741985962310881
0.000735356538705568
0.000728707645247807
0.00072276108106938
0.000715226701662382
0.000709318708627514
0.0006994465173561
0.000678408512695884
0.00106937300729724
0.00102958434969503
0.000980302851583675
0.000930558065469122
0.000886418439593749
0.000849655316449335
0.000819927375483809
0.0007961619625074
0.000777205301594328
0.000762052283672823
0.000749889027503771
0.000740088705808825
0.000732181092165829
0.000725811567290618
0.000720705115774906
0.000716642787030665
0.000713446282963622
0.000710969031316009
0.000709089253756144
0.000707706948523945
0.00070673209447529
0.0007061091518697
0.000705798677818334
0.000705757169144412
0.000705944118772792
0.000706323435838843
0.000706868269402918
0.000707559445495467
0.000708384225932697
0.000709335712138564
0.000710411151582244
0.00071161021559879
0.000712939028768963
0.000714410834677466
0.000716047383694328
0.000717879863054904
0.000719953693780923
0.000722331743127136
0.000725109859677266
0.000728425746300671
0.00073249268441129
0.000737713816725468
0.000744594844329892
0.000754482471890651
0.000773521931000276
0.000768063736683715
0.000732506958636074
0.000674380092304349
0.000558688461411359
0.000370899483912779
0.000295721970766339
0.000324711479154386
0.000439067018189853
0.000707690712742263
0.000856549584102838
0.000813016808254493
0.000639152939807853
0.000476739722248525
0.000424995430493982
0.000474544140153319
0.000602484420934661
0.000758565654356446
0.000954856466027683
0.00114858477200602
0.0013958253361448
0.00173348740960848
0.00200659492127542
0.00222193079565954
0.0024192767486717
0.00259280909363118
0.00274125763068121
0.00286337795440714
0.00296356614125846
0.0030413200248923
0.00309945848000786
0.00313931180604252
0.00316288689476266
0.00317168171205554
0.00316758461107577
0.00315224248522073
0.00312735541470257
0.00309460211265934
0.00305506975680315
0.00300977027009438
0.00295998837040407
0.00290688308469174
0.00285144394025689
0.00279433268390735
0.00273602021882577
0.00267699484772849
0.00261779221507912
0.00255884410876823
0.00250043409085783
0.00244276942163936
0.00238607006693693
0.00233054226831425
0.00227631870702482
0.00222348254029974
0.00217209207104783
0.00212220679499905
0.00207387080079235
0.00202710327600359
0.00198190537122059
0.0019382644635586
0.00189616799546715
0.00185560079449678
0.00181653718102311
0.00177894592315508
0.00174279052718227
0.0017080319418209
0.00167463317640502
0.00164255622160629
0.00161176044167546
0.00158220415423038
0.0015538462652213
0.00152664522607314
0.00150056160526861
0.00147555892979797
0.00145160006730555
0.00142864845290656
0.00140666861885507
0.00138562668596905
0.00136549015968257
0.00134622831333873
0.00132781232097569
0.00131021495110024
0.00129340781486461
0.00127736578512851
0.00126205797791768
0.0012474653273897
0.00123353951668172
0.00122028447925022
0.00120756580979131
0.00119551134956242
0.00118355481652626
0.00117254040421962
0.00115972362199747
0.00114879002848744
0.00113285990502019
0.00109844693670358
0.00131805515735727
0.00128568786662148
0.00124497105069267
0.00120019164908121
0.00115728934437836
0.00111942967757759
0.00108737328756679
0.00106065066754221
0.00103842751198322
0.00101990161616357
0.00100441453109267
0.000991449815364927
0.000980602371730188
0.000971547353209248
0.000964016424646179
0.000957784471519025
0.000952660766202447
0.000948483844549022
0.000945116643254301
0.000942443166608151
0.000940360813278546
0.000938790659674139
0.000937676586006573
0.000936966004716375
0.000936610988245112
0.000936569215542498
0.000936805512552257
0.000937292017096116
0.000938008250331786
0.000938940812198167
0.000940081998732101
0.000941430228700611
0.00094299118682835
0.00094477915209488
0.000946819074851594
0.00094914830510871
0.000951821645958257
0.000954916881607002
0.000958549093657045
0.000962889970898846
0.000968186040514603
0.000974927401413661
0.000983682656774331
0.00099590062974995
0.00101840357236615
0.00101533022314019
0.000973904504413305
0.000903718971954148
0.000801865362430071
0.000587715716811296
0.00039890116093545
0.000390977251993404
0.000470238011264234
0.000675845981904977
0.00102029371863792
0.00108334091963435
0.000951409670605097
0.000778605606210556
0.000697713900763374
0.000745492328619238
0.000908992964423972
0.00111108915188932
0.00137369053893289
0.00163883527637961
0.00197202357060951
0.00241109958634443
0.00276715553482914
0.00304694519514704
0.00329805704560003
0.00351342203437736
0.00369620994870694
0.00384645250267647
0.00396873363126991
0.00406323973346055
0.00413343085727721
0.00418128218904953
0.0042092951275596
0.0042194512221521
0.00421406147449727
0.00419517676855741
0.00416483869776329
0.00412504415053186
0.00407712392739329
0.00402231494109706
0.00396211161672854
0.00389788642885866
0.00383079513720969
0.00376161484781161
0.00369091031156607
0.0036192661205774
0.00354731256874955
0.00347555184351974
0.00340431177854555
0.00333383562985338
0.00326438569529637
0.00319620868809269
0.00312946241943446
0.00306424249804609
0.0030006185395367
0.00293866550935449
0.0028784428610796
0.00281997915055523
0.00276327914191824
0.00270833156473333
0.00265512682016662
0.00260365469398566
0.00255389337688338
0.00250581293190952
0.0024593759499008
0.00241454157796812
0.00237127191241518
0.00232952907762535
0.00228927252348966
0.00225045990085882
0.00221304870264824
0.00217699530000201
0.0021422582788807
0.00210880002409729
0.00207658269865471
0.00204556912367069
0.00201572308312387
0.0019870097196533
0.00195939534987047
0.00193284803453031
0.00190733811635377
0.00188283786245594
0.00185931861194899
0.00183675489633672
0.00181511554565484
0.00179438057876954
0.00177450026549502
0.00175547618291593
0.00173716668745199
0.00171969887328233
0.00170246543401121
0.00168634452456687
0.00166839742105987
0.00165244007796892
0.00163148372559878
0.00158560398424372
0.00156251949990983
0.00153638916803419
0.00150389363111466
0.00146625667808563
0.00142757692481007
0.00139125108405986
0.00135897357125236
0.00133105832496905
0.00130713191820633
0.00128662918150677
0.0012690180666087
0.00125386222225393
0.00124081678875578
0.00122960482055925
0.00121999448088087
0.0012117864582914
0.00120480677347349
0.00119890398636234
0.00119394661037453
0.00118982051154886
0.00118642357228002
0.00118367204666047
0.00118150123772065
0.001179853816898
0.00117867918232369
0.00117793283933436
0.00117757681792104
0.00117757968346217
0.00117791706622
0.00117857197221021
0.0011795339119855
0.00118079981017563
0.00118237513198891
0.00118427537563295
0.00118652839542078
0.00118917683451151
0.00119228322922466
0.00119593787483858
0.00120027103176964
0.00120548266779094
0.00121184254342624
0.0012199107948311
0.00123028793225484
0.00124448789449163
0.00126970265774104
0.00126869126096468
0.00122532939729251
0.00114333261873971
0.00103606085199688
0.00085997913676078
0.000550394880260164
0.00046152691512946
0.000519061799561743
0.000658061967704896
0.000995043361737423
0.00123594740896757
0.00118269026791684
0.00106608876241033
0.000989300111925658
0.00103105438558287
0.00122408921850619
0.00147083286948407
0.00179474315305277
0.00212966875846239
0.00254858586741128
0.0030784019467547
0.00350519986272605
0.00384036785022324
0.00413553004634622
0.00438469702517235
0.0045945155159607
0.00476643928546052
0.00490526852425642
0.00501203046513708
0.00509077592723393
0.00514411927363288
0.00517499291767053
0.00518580801653139
0.00517920997095649
0.00515755793065662
0.00512314575764202
0.00507818131500179
0.00502416445822196
0.00496250327485159
0.00489482716509765
0.00482264314869266
0.00474720419712704
0.00466935785786876
0.00458973940728375
0.00450900642165573
0.00442785068828457
0.0043468125492351
0.00426624499274383
0.00418641852181058
0.00410762900590982
0.00403015088023724
0.00395415618802846
0.00387974709561911
0.00380700280382727
0.00373601225299153
0.00366684761189119
0.00359954393161306
0.00353410782077282
0.00347052942542007
0.00340880302389032
0.00334892422979988
0.00329087565269326
0.00323462884227345
0.00318014593430815
0.00312738531640711
0.0030763095935494
0.00302688266766718
0.00297906565442154
0.00293281687948858
0.00288809361677301
0.00284485148793074
0.0028030485930558
0.00276264781930783
0.00272361247376349
0.00268590657495771
0.00264949482221855
0.00261434289274699
0.0025804173850498
0.00254768665552739
0.00251612184356988
0.00248569645451858
0.00245638356258945
0.00242815920882556
0.00240099436892951
0.00237486963118151
0.00234973796301596
0.00232559831853465
0.00230231360433397
0.00227999997850325
0.00225805697828944
0.00223733166786186
0.00221491012887842
0.00219442718827398
0.00216971340210917
0.00211558409746733
0.00180456336756596
0.00178417564177758
0.0017590456095017
0.00172875678299497
0.00169575804138343
0.00166288184485187
0.00163215083656356
0.00160449172805465
0.00158005098068742
0.00155859668300781
0.00153978009498654
0.00152325999125515
0.00150874592797431
0.00149600006538332
0.00148482333980398
0.00147504467748047
0.00146651382479646
0.00145909896594458
0.00145268484765843
0.00144717012987034
0.00144246108933893
0.00143848409277617
0.00143517329027921
0.0014324728819858
0.00143033478242775
0.00142871699685554
0.00142758348071538
0.00142690393272951
0.00142665445843487
0.0014268182822686
0.00142738532992335
0.00142835324202897
0.00142972871712923
0.00143152939388799
0.00143378646050104
0.00143654775230686
0.00143988269343219
0.00144389237826202
0.0014487190778978
0.00145458599238804
0.00146177799240874
0.00147090988603644
0.00148259226269567
0.0014983611831896
0.00152561913191514
0.00152622489789956
0.00148241257072323
0.00139448207678736
0.00127215022177247
0.00111510315580525
0.00078128555590034
0.000547593974657449
0.000577176134049821
0.000680325052544128
0.000915747123656653
0.00130138407981966
0.00131563836703207
0.00128947205798997
0.00127698327269741
0.00132280513572186
0.00154025343321169
0.00182953159323304
0.00220912244594951
0.00261160908212664
0.00311274787534969
0.00371870626562867
0.00420205545879469
0.00458189118938659
0.00491054899370765
0.00518487431074123
0.0054139251642869
0.00560070645097045
0.00575030961070049
0.00586465538643083
0.00594833875848671
0.00600456504411172
0.00603662579595397
0.00604728887485897
0.00603943766761144
0.00601564644284177
0.00597837145057831
0.0059299324418928
0.00587192131144251
0.00580586193432776
0.00573345184454436
0.00565625986419202
0.00557557276062611
0.00549226574573069
0.00540702107821343
0.00532054539660086
0.00523355957728946
0.00514661120619756
0.00506006105996727
0.00497419899865329
0.00488934565715743
0.00480578971797852
0.00472370641815188
0.00464319971701351
0.00456435774015631
0.00448728215938969
0.00441205464759528
0.00433871349030281
0.00426726578102785
0.00419770392208108
0.00413002763131295
0.00406423929400967
0.00400032608519108
0.00393826096084127
0.00387800615867039
0.00381952069075957
0.00376276942883558
0.00370771973033434
0.00365433565592428
0.00360257712536448
0.00355240207160302
0.00350376651901469
0.00345662948285798
0.00341095586136248
0.00336671161296397
0.00332386321294552
0.00328237725493991
0.00324222076846251
0.00320336146412739
0.00316576892529796
0.00312941613840085
0.00309427897894207
0.00306033347825223
0.00302755825691571
0.00299592772656557
0.00296542386379924
0.00293600466858503
0.0029076665975602
0.00288028472149241
0.00285395882530741
0.00282812873043696
0.0028035676638928
0.00277754833351497
0.00275330962749032
0.00272598810525178
0.00266677731739368
0.0020456955026983
0.0020328043422721
0.00201319057644091
0.00198878172221869
0.0019613907078356
0.00193290408268745
0.00190501924787007
0.00187885687537333
0.00185493875211825
0.00183337540273088
0.00181405889687802
0.00179679460399136
0.00178137586159035
0.00176761386393324
0.00175534110432447
0.00174440993236118
0.00173468987689788
0.00172606733947758
0.0017184442234789
0.00171173382927343
0.00170585630061205
0.00170074766496391
0.00169634925356004
0.00169261145741593
0.00168949227733421
0.00168695546517206
0.0016849700658633
0.00168351013812366
0.00168255559371643
0.0016820931746996
0.00168211626126443
0.00168262582486648
0.0016836317977551
0.00168515534719735
0.0016872318554044
0.00168991470637019
0.00169327988276845
0.00169743807853091
0.00170254106894659
0.00170883084625237
0.00171660065461256
0.00172650552241123
0.00173915072960826
0.00175605001297182
0.00178471110995976
0.00178649268859002
0.00174249471906456
0.00165289751194004
0.00151773369919787
0.00136183938242623
0.00108497079972911
0.000678789838468484
0.00063658793249264
0.00073142317121111
0.00088833868725303
0.00123447824388129
0.00141095284703908
0.00142223304209958
0.00152905809376585
0.00161344750856437
0.00185284087090391
0.00218174403657908
0.00261128393161143
0.00307753531453386
0.0036538859096236
0.00431995639620426
0.00484544446540077
0.00525866690251415
0.00561040790395794
0.00590126651511427
0.00614189483141331
0.00633691814909187
0.00649178930062818
0.00660929289668508
0.00669451533205766
0.00675117409005411
0.00678284139388262
0.00679255886934227
0.0067833514165597
0.00675792539924472
0.0067188161525347
0.00666837167852558
0.00660820337287391
0.00653989946029389
0.00646516983687232
0.00638558447296736
0.00630241070401428
0.00621651384085494
0.00612860102043397
0.00603940435517431
0.00594964359199061
0.00585984595722778
0.00577036567804665
0.00568150477709363
0.00559359906600542
0.00550693709631282
0.00542168670231216
0.0053379500586416
0.00525582384366523
0.00517542036349855
0.00509682634833706
0.00502007951560547
0.00494518636046735
0.00487214271964316
0.00480095522748453
0.0047316333435857
0.00466416814019208
0.00459853348280408
0.00453469229603455
0.00447260577713377
0.00441224287077293
0.00435357581042986
0.00429657241049371
0.00424119468615985
0.00418740192307309
0.00413515169046251
0.00408440535871974
0.00403513130602594
0.0039872994126035
0.00394087947161837
0.00389584050919051
0.00385215136327205
0.00380978143353077
0.00376870227742067
0.00372888958355201
0.00369032247840337
0.00365298076204202
0.00361684626421539
0.00358189743592874
0.00354811810282578
0.00351547251149009
0.00348395512445629
0.0034534577659813
0.00342406195739678
0.00339526937974954
0.00336775523187918
0.00333908500099974
0.00331198317522538
0.00328309051258312
0.00322146842439276
0.00229806059050495
0.00228363101992561
0.00226713888683208
0.00224722538164004
0.00222468550086533
0.00220062170785701
0.00217619794634588
0.00215238872661152
0.00212984357442776
0.00210890513546158
0.00208969210647313
0.00207218538060096
0.00205629812963103
0.00204191634185539
0.00202891649642156
0.00201717767303503
0.00200658819483675
0.00199705056089328
0.00198848153197671
0.00198080579197064
0.00197395826261474
0.00196788186773133
0.00196252650132486
0.00195785082360022
0.00195382057835452
0.00195040652814937
0.0019475840204951
0.00194533291358695
0.00194363872826684
0.00194249378518485
0.00194189693189241
0.00194185429371167
0.0019423805612356
0.00194350161412893
0.00194525786084107
0.0019477086405331
0.00195093625024212
0.00195505986769248
0.00196023849788533
0.00196672867999047
0.00197482611546013
0.00198521186624803
0.00199847413888664
0.00201606292842373
0.0020454992793134
0.00204804851976121
0.00200399407756072
0.00191421146268035
0.00177383641162963
0.00160273359605365
0.00137359801468279
0.000892178316362831
0.000701051220431579
0.000792369221404718
0.000915883411094756
0.00115092579328259
0.00150298650548262
0.00151485380871572
0.00170652718163761
0.00189037557217245
0.0021577252754336
0.00252345537884478
0.00299707640824311
0.00352144695090116
0.0041633604513128
0.00487332968688781
0.0054270901084942
0.00586259683057419
0.00622766409218829
0.00652695096607204
0.00677212047553516
0.0069694065225219
0.00712466276902941
0.00724144118959927
0.00732525704308015
0.00738024132333532
0.00741016683965233
0.00741825511279302
0.00740759474324958
0.0073809467355803
0.00734085620779011
0.00728963457583181
0.00722884844841356
0.00716010681933595
0.00708508918863648
0.00700532127101485
0.00692201016854432
0.00683598039238321
0.00674794444913264
0.0066586377281201
0.0065687522376198
0.00647877207834546
0.00638903456081087
0.00629984732153004
0.00621155080237304
0.00612441850649051
0.00603860165217337
0.00595419853183417
0.00587131380431802
0.00579006682084716
0.00571054352915968
0.00563277702252802
0.00555677254953998
0.00548253064562089
0.00541006572126021
0.00533939347601173
0.00527050721158545
0.00520338084049277
0.00513797861038398
0.00507426548084179
0.00501221600667631
0.0049518081274101
0.00489301354480622
0.00483579642177996
0.00478011796255431
0.00472593844143435
0.00467322301022278
0.00462194483722078
0.00457207863275107
0.00452359790410428
0.00447647424499828
0.00443067852156321
0.00438618230329591
0.00434295982261347
0.00430099023951181
0.0042602566410331
0.00422074309365964
0.00418243491689741
0.00414531472433373
0.0041093684169725
0.00407456699702103
0.00404090371057192
0.00400828959723447
0.00397678846339452
0.00394597615944766
0.00391641997691826
0.00388603695363358
0.00385699795083834
0.00382742371665573
0.00376554082849639
0.00255208962613714
0.00253596620843081
0.00252147406427274
0.00250478542550406
0.00248597114333869
0.00246568921560629
0.0024446529265232
0.00242353920975817
0.00240290827837342
0.00238316876236401
0.00236458057021597
0.0023472764249364
0.00233129866232345
0.00231662612041988
0.00230319484605397
0.00229092153934138
0.00227971973289326
0.00226951108473491
0.00226022666401432
0.0022518016098864
0.0022441807697136
0.00223731345674848
0.00223115736369159
0.00222567919843711
0.00222085207398536
0.00221665314631982
0.00221306362615323
0.00221006917765976
0.0022076614279483
0.00220583904027716
0.00220460700695141
0.00220397713832207
0.0022039693695182
0.00220461479001478
0.0022059592444192
0.00220806809610799
0.00221102937801708
0.00221496930667735
0.00222005169388407
0.00222654319267701
0.00223473639308462