/*--------------------------------*- C++ -*----------------------------------*\
  =========                 |
  \\      /  F ield         | OpenFOAM: The Open Source CFD Toolbox
   \\    /   O peration     | Website:  https://openfoam.org
    \\  /    A nd           | Version:  7
     \\/     M anipulation  |
\*---------------------------------------------------------------------------*/
FoamFile
{
    version     2.0;
    format      ascii;
    class       volScalarField;
    location    "30000";
    object      omega;
}
// * * * * * * * * * * * * * * * * * * * * * * * * * * * * * * * * * * * * * //

dimensions      [0 0 -1 0 0 0 0];

internalField   nonuniform List<scalar> 
21000
(
126.84147428835
126.84147428835
126.84147428835
126.841474288333
126.841474288342
126.841474288342
126.841474288333
126.841474288342
126.841474288358
126.841474288342
126.841474288342
126.84147428835
126.84147428835
126.841474288342
126.841474288342
126.84147428835
126.84147428835
126.84147428835
126.841474288329
126.841474288342
126.841474288342
126.841474288342
126.84147428835
126.841474288358
126.841474288342
126.841474288342
126.84147428835
126.841474288342
126.84147428835
126.841474288333
126.841474288342
126.841474288342
126.84147428835
126.841474288337
126.84147428835
126.841474288346
126.841474288342
126.841474288337
126.841474288342
126.84147428835
126.841474288342
126.84147428835
126.84147428835
126.841474288342
126.840642437652
126.917917671796
127.099188230045
127.286712727812
127.483328863053
127.693274961115
127.922201083732
128.177181292655
128.466716618987
128.800769185315
129.190799888904
129.649818137701
130.192434860413
130.835023441768
131.595853151774
131.663880811049
118.113669619052
104.575206655313
94.8339232753883
84.6309844043463
81.1785407934571
81.1785435444822
81.1785435444839
81.1785435444838
81.1785435444822
81.1785435444839
81.178543544484
81.1785435444829
81.1785435444828
81.1785435444832
81.1785435444813
81.1785435444824
81.1785435444814
81.1785435444839
81.1785435444841
81.1785435444838
81.1785435444837
81.1785435444826
81.1785435444844
81.1785435444828
81.1785435444843
81.1785435444841
81.1785435444826
81.1785435444825
81.1785435444839
81.178543544482
81.1785435444849
81.178543544482
81.1785435444831
81.1785435444831
81.1785435444823
81.1785435444835
81.1785435444842
81.1785435444821
81.1785435444836
81.1785435444842
81.1785435444839
81.1785435444821
81.1785435444822
81.1785435444839
81.1785435444836
81.1785435444842
81.1785435444822
81.1785435444739
81.1785435444886
81.1785435444889
81.1785435444889
81.1785435444722
81.1785435444891
81.1785435444722
81.1785435445055
81.1785435444721
81.1785435444886
81.1785435444889
81.1785435444721
81.1785435444725
81.1785435444889
81.1785435444889
81.1785435444722
81.1785435445056
81.1785435444721
81.1785435444889
81.1785435444886
81.1785435444725
81.1785435444722
81.1785435444889
81.1785435444725
81.1785435444885
81.1785435444889
81.1785435444889
81.1785435444889
81.1785435444886
81.1785435444724
81.1785435444722
81.1785435444891
81.1785435444886
36.3434985282509
36.3940645183841
36.8107511908363
37.587365860356
38.1856480654387
38.4654808847067
38.5152332714382
38.4645253044706
38.3903105857855
38.3243479011155
38.2698139563778
38.2213043847751
38.1742256780738
38.1266363095024
38.0787495802812
38.0316630887877
37.9865658177318
37.9443113219132
37.905432378663
37.8702184812194
37.8417041038717
37.8203599272599
37.8038749429454
37.791303369821
37.782328241264
37.776911077535
37.7750740523122
37.7768398831743
37.7822092516228
37.7911628807775
37.8036534416004
37.8197137394698
37.8393712858201
37.8626073227175
37.8892391576532
37.9190753629591
37.9513953377418
37.9856847225844
38.0191289237932
38.0508975425912
38.0695986224068
38.0746123700598
38.0156026941114
37.8804032779552
37.1960153846034
38.9908407417081
44.4586886173503
50.7323478278485
53.5934524219617
48.4630288402597
36.6568873232965
27.2620027375326
22.9927768632151
21.5848241088824
21.3079632131145
21.4850379596465
21.760391712594
22.2543772101843
23.102178823839
24.1626920647316
22.0335705394346
20.9036781759319
17.8072452390424
17.0203334640792
19.4093514027531
18.4522213948709
16.8730214590229
16.2001786912404
15.627547513084
15.3539718027852
15.2198416650618
15.1672309152277
15.1271087083938
15.1055221162756
15.0945875943806
15.0952278962035
15.1049176770911
15.124403600528
15.1530798004935
15.1915127148995
15.2398089638807
15.2979380168994
15.3670241162759
15.4476058893447
15.5388839558122
15.6411657197883
15.7542710790799
15.878206294104
16.0127987188021
16.1574147963158
16.3111316460694
16.4731980429896
16.642896885642
16.8193278837467
17.001317660483
17.1877537181112
17.3777379511693
17.5702890186837
17.7644067229728
17.9590586280456
18.1533809006804
18.3466372349841
18.5381247505758
18.7272008694588
18.9132351877584
19.0957162280806
19.2742868988167
19.4486343371568
19.6184998130651
19.7836617047685
19.9439233977289
20.099179884253
20.2494068213262
20.3946144592393
20.5348266486346
20.6700970155946
20.8004781187388
20.9260370479386
21.046906623984
21.1632384777668
21.275191005462
21.3829204357499
21.4865866454966
21.586345147103
21.6823589779209
21.7747961201753
21.863890008464
21.9497998040427
22.0328760687464
22.1131216957722
22.1913765338405
22.2669286935878
22.3427145983438
22.4147640275862
22.4951817177365
22.5651943030186
22.6841355503371
22.7546678490614
23.2650330928659
24.2168939450224
17.6300518954226
17.8852908283571
17.8281373104254
17.7840389565143
17.8704247464052
18.0319336066111
18.2004992690282
18.340829052735
18.4478891510163
18.5273212884951
18.5880776472399
18.6362005031626
18.6744582783088
18.7040930575941
18.7259897017196
18.7410905258287
18.750439150345
18.7550887432847
18.7560197054604
18.7540913339172
18.7503286723755
18.7435017047943
18.7351746047043
18.7261405932473
18.7168317063817
18.7073835599273
18.6978599446526
18.6882916479119
18.6786620785011
18.6689302156601
18.6591140833035
18.6490759160435
18.6385872529329
18.6273203834858
18.614759919311
18.6002512424518
18.5826762652935
18.5607796201132
18.5317238728149
18.4931690422606
18.4364648346427
18.3569431164569
18.2226093819104
18.0172417336721
17.4911769594153
17.5665985477327
18.960745032911
22.739853773043
28.2290748224129
31.1339459188583
28.4675537128319
20.0087167116382
12.9773890723662
9.74991167419351
8.04254757171081
7.24218951474661
7.08644700814582
7.51236892136472
8.02806935749154
7.95734255594887
7.39520236451623
6.8912536100995
6.58167390744553
6.65708624126644
6.80926130049686
6.62347762173631
6.59753248591812
6.67903788862139
6.74651779369949
6.75803412006082
6.76778783099144
6.79092307124047
6.81056460792225
6.83061491467964
6.84870162950069
6.86593966693663
6.88194398646688
6.89759202025209
6.91313686038974
6.92924031328149
6.94638319187043
6.96490272665584
6.98548968118142
7.00869166760355
7.03453063123593
7.06337642472909
7.09543378396113
7.13097767308761
7.17021563528314
7.2131501405677
7.25964504144269
7.30963913735827
7.36310548247475
7.41993708923168
7.47988375582813
7.54268983015693
7.60818367137766
7.67615588866041
7.74635989149533
7.81849877832691
7.89231228751073
7.96757580707868
8.04406083881782
8.12153835675628
8.19975398940968
8.27847180976479
8.35750180171834
8.43666134264829
8.51577684499705
8.59467535066992
8.67317717422731
8.75112667665781
8.82839666706189
8.90487390621537
8.98044965568539
9.05502592427031
9.12850158906448
9.20077740144045
9.27178216727235
9.34145819070096
9.40975698410088
9.47663413967989
9.54205043353217
9.60596741106992
9.66835192648489
9.72917547654079
9.78844561239188
9.8461441991849
9.90235198495479
9.95699888868849
10.0104226031593
10.0622556493392
10.1138930269272
10.1635390172596
10.2171143836878
10.266613600133
10.3367703723591
10.4089602935362
10.4843362966999
10.8943413333567
10.6959212964327
10.9330670203596
11.0260497793906
11.0150495196862
10.9925718668142
11.001704154879
11.0439388590102
11.1055438463844
11.1739191765024
11.2393858356172
11.2982083553138
11.3498930301879
11.3947794713023
11.433317490995
11.4659651276058
11.4931954007136
11.5155076924642
11.5334104909073
11.5474068362333
11.5579791615364
11.5656986399063
11.5703727941653
11.5723048053128
11.5719845263463
11.5698142832336
11.5660915373386
11.5609896666295
11.5546029322475
11.5469659822298
11.5380622685447
11.5278474702452
11.5162460079323
11.503089363799
11.48810897431
11.47089619467
11.4509119927603
11.4273219961116
11.3990989973156
11.3643384556643
11.321042721929
11.2640616053193
11.18900400967
11.0782617916921
10.9203915416488
10.5757778971806
10.5185923223107
10.8882492872091
12.2465717856971
15.8393528692761
20.9552746691996
24.1551690864416
21.0405973196657
13.6880561573819
8.24734817884715
5.64864647451786
4.34593368573925
3.77579262406706
3.83617570772034
4.12270177934085
4.1697213119236
4.01681689851051
3.90392317009791
3.93504006633286
4.03550040455458
4.09811452981617
4.15479085343905
4.25322683223973
4.34558559846016
4.40713285210505
4.43945094774477
4.46897133366321
4.49958996663511
4.52485290953282
4.54712108742554
4.56543318668859
4.58059089641788
4.59264178032979
4.60226652126307
4.60982642298165
4.61586772371333
4.62086533537946
4.62515907521962
4.62923538862506
4.63353706010597
4.63824683792619
4.64367534408269
4.65004906964225
4.65761322702645
4.66657177751032
4.67701689499993
4.68896201552179
4.7024528269762
4.71755396760152
4.73428752343247
4.75259700022141
4.77241516463424
4.79371469033861
4.8164520942913
4.84056031205973
4.86594141855103
4.89250899997484
4.92019222306529
4.9489175237853
4.97860721194913
5.00916646794635
5.04050305994497
5.0725425072344
5.1052122473326
5.13844128126899
5.17215524394108
5.20627199180857
5.24071557729119
5.27541994907074
5.31032339505818
5.34536419317347
5.38048301116747
5.41561605728185
5.45069685589289
5.48566870620785
5.52047934826062
5.55507948087737
5.589420472988
5.62345460313189
5.6571328554842
5.69040654083061
5.72322775796389
5.75556356726669
5.78737079927296
5.81864951781943
5.84933874901153
5.87955581820713
5.90912698185914
5.93864999018835
5.96738639800552
5.99797538013968
6.02727116343825
6.06580722292445
6.10931069167136
6.15667421665222
6.36689742493076
7.4255724146846
7.55008865372399
7.66482202463353
7.71577163963502
7.72113133698118
7.71290931490326
7.71119731975765
7.72272759429767
7.74656506139811
7.77826779558862
7.81343305027122
7.84903960850711
7.88331516076804
7.91530775275706
7.94455558807435
7.97087010911892
7.99421843753899
8.01465317587934
8.0322801330119
8.04724191252559
8.05974526641324
8.06981000890214
8.07746455616122
8.08287367278633
8.08619801480972
8.08763616066987
8.08734320784183
8.08542029461274
8.08191859085262
8.07683786603297
8.07010529000951
8.06165371404518
8.05136489545038
8.03904739611966
8.02440766290953
8.00704692950005
7.98636908511227
7.96160826787807
7.93146740643673
7.89443415845442
7.84721474032475
7.78646019750748
7.70110032195418
7.58444131321197
7.34751110700407
7.26859331914217
7.45954651919463
8.02183317120016
9.68750196754418
13.7378580912099
18.9266789889704
20.398892802389
15.848688372257
9.2036606489974
5.41755091612646
3.6938416956236
2.85737035883231
2.64961701667436
2.7908112398651
2.88981107087855
2.86935298796436
2.88243582040398
2.94006197277674
3.04975228540691
3.15882079046249
3.23177694449957
3.3008686181979
3.37288965529383
3.42291246197291
3.46036985463978
3.49396224595557
3.52526950846221
3.5510127912061
3.57269813964525
3.58985957997421
3.60309366991116
3.61258440196737
3.61889886421039
3.62243379160216
3.62369037367796
3.623132955118
3.62111376746827
3.61804859992208
3.61433887288053
3.61023744944111
3.60604257782659
3.6019892979719
3.59830189269675
3.59516902961749
3.59270904173801
3.59098944619071
3.59008746057257
3.59008360459042
3.59102762109592
3.59292013602244
3.59575180257898
3.5995321107393
3.60425888255145
3.60991280827128
3.61645469669608
3.62384970516125
3.63207050519636
3.64108730023055
3.65086619463831
3.6613622186685
3.67253042240351
3.68433467281878
3.69673960382195
3.70971005553801
3.72320800311588
3.73719007509749
3.75161511990651
3.76644658808854
3.78164975441937
3.79718939417744
3.81303081935157
3.82913596775178
3.84546431316174
3.86197953761988
3.87864695488221
3.89543279939858
3.91230301000575
3.92922322492108
3.94615751334556
3.96306896380951
3.97992038273793
3.99668113902394
4.01331577010757
4.02980897325629
4.0461183072224
4.06228592567811
4.07822378621418
4.09421120353996
4.10992215976796
4.12664250856214
4.14302893609515
4.1642185633908
4.18878724283146
4.21961639766112
4.33803897644372
5.61355337961725
5.66229429181459
5.73995893439096
5.79890340316871
5.82706705880763
5.83343586374445
5.831210790749
5.83004772244328
5.83457648007784
5.84551502237416
5.86157453727843
5.88094482734681
5.90201720422399
5.92359267527754
5.94485718628134
5.96527779496838
5.98451133036956
6.00233511672463
6.01860855055292
6.03325307216921
6.04624825832624
6.05755249102091
6.06710409675433
6.07490915458584
6.08099226615456
6.08540350022334
6.08819851091137
6.08942135135765
6.08909330128502
6.08720881615125
6.08371929758951
6.07855117493548
6.07159855172847
6.06270838789118
6.05165757378402
6.03814352776013
6.0217264103
6.00182828328164
5.97752344605101
5.94766457324067
5.90999121985097
5.86197076512154
5.79606145569134
5.70787526288695
5.53830697213432
5.46053180890512
5.57418252686728
5.91829766713056
6.68233875405735
8.99975064258963
13.7566895915155
17.8184819496504
16.8189931883023
11.2276392833954
6.12672720394166
3.79411360480044
2.6628157132436
2.20060119373102
2.2066587855461
2.30446336778284
2.33026182348997
2.37697742693381
2.43567083996839
2.54797120694331
2.66925006270801
2.73709668682345
2.79257064155385
2.85657091017582
2.90415807288328
2.94499109069823
2.98113503504453
3.01351374991209
3.04012465568943
3.06198642926944
3.07888046190801
3.09129533220034
3.09949321275123
3.1039960009375
3.10524188445255
3.10373464832119
3.09994947465505
3.09427402148506
3.08710837918462
3.07885058578347
3.06980705910631
3.06028959548233
3.05054884700823
3.04080363999475
3.03123762007798
3.02198682297655
3.01315176131362
3.00482790631948
2.99710087064209
2.99002926758561
2.9836386038466
2.97794580103377
2.97297419242131
2.96873487676806
2.96522478793693
2.96242733703758
2.9603276402808
2.95891379187989
2.95817061371416
2.95807869167823
2.95861094149543
2.95974006225847
2.96144377116133
2.96369982935335
2.96648556780305
2.96977594371865
2.97354233160201
2.97775733335608
2.9823962601459
2.98743537952019
2.99285051582259
2.9986175450232
3.00470995101091
3.01109955672835
3.01776055157608
3.02466794608475
3.03179712012876
3.03912306192903
3.04662028578336
3.05426202254036
3.06202046519082
3.06986748490073
3.07777823224319
3.08572543018297
3.09369215539622
3.10164843470842
3.10960834976499
3.11752304937767
3.12553518972018
3.13349115281055
3.14207822144712
3.15068601866099
3.16210477258508
3.17580302637324
3.19479404090236
3.26399466788799
4.47543189471015
4.49055448927417
4.53310629515666
4.57777444139969
4.60953320215589
4.62591150796473
4.63139644666597
4.63209653635352
4.63271019900399
4.63574610589074
4.64195121698494
4.65105562521774
4.66237582193315
4.67517188364122
4.68880426285642
4.70276485248864
4.71666338939088
4.73019903852884
4.74314013205181
4.75531144781149
4.76658750433464
4.77685585052662
4.786006171598
4.79396662584804
4.80068590618852
4.80613106463579
4.81028169572669
4.81312198954279
4.81463084382401
4.81477664748069
4.81350761998072
4.81074947070879
4.80640192893235
4.80033074387455
4.79235228879741
4.78222359707162
4.76960315932953
4.75403915584017
4.73483746431424
4.71110533143385
4.68119735456
4.64315352715903
4.59153704920477
4.52315917705436
4.3969696862627
4.32899418491413
4.39419068728912
4.63610194747037
5.09110065141994
6.23346728741818
9.58849421107846
14.3436435555524
16.2208401995757
13.0294045936921
7.56187686153226
4.3916123641885
2.85037483289881
2.07375625458681
1.90908044082333
1.97701001054705
2.0209840212668
2.07541555633948
2.13341102262917
2.24334211249433
2.36387171803325
2.43162821074384
2.48550208004775
2.54858320892165
2.59816472196633
2.64283603983861
2.68206807486061
2.71654868742065
2.74487710023154
2.76777854977504
2.78519465170574
2.79756531934665
2.80522004121967
2.80867883215982
2.80843693555383
2.80502493553084
2.79895088669975
2.79065165165066
2.78053911200293
2.76903136598998
2.75648627303885
2.74324229326257
2.72957088382118
2.71569479259027
2.70180140158719
2.68804489205915
2.67455226161929
2.66143342303274
2.64877747115854
2.63664783400296
2.62508492316005
2.61412129257394
2.60378706843471
2.59409811467833
2.58505784289202
2.57666036910908
2.56890028138647
2.56177197155975
2.55526540473065
2.54936609631291
2.54405406288852
2.53930944207434
2.53511540027489
2.53145448340683
2.52830830247344
2.52565639348915
2.52347591543098
2.52174508971518
2.52044403040957
2.51955338215129
2.51905340170176
2.51892422209883
2.51914426533505
2.51969100188818
2.52054360387791
2.52168183435353
2.52308568485667
2.52473483471956
2.52660854927699
2.52868513200367
2.53094208004567
2.53335676648731
2.53590846862525
2.53857526079437
2.54134103536261
2.54418313041467
2.5471036771668
2.55007286730875
2.55316815717716
2.55631482685209
2.55990706345947
2.56366692582923
2.56922472439304
2.57643209561048
2.58771919955334
2.62876475627292
3.69495144735997
3.6973751791656
3.71962729346319
3.74934699071479
3.77589167004942
3.79434307075147
3.80466807362437
3.80941470404528
3.8115411649458
3.81331052238293
3.81603891957319
3.8202626324745
3.82601952445675
3.83309714304722
3.84119546842815
3.85000603036518
3.85924591785871
3.86866534855496
3.87804941101662
3.88721700906122
3.8960244569491
3.90432644184709
3.91200282075606
3.91895169638287
3.92508741641821
3.93033837773832
3.93464368389749
3.93794963981724
3.94020364816613
3.9413502882962
3.94132588332422
3.94005234554981
3.93743222418072
3.93334234815016
3.92762304065484
3.92006936286915
3.91040321555203
3.89825810627429
3.88309018049747
3.86418490939578
3.84028683868083
3.80983985465714
3.7687529927302
3.71456722964588
3.61762753799954
3.56023393946854
3.59814054332185
3.76750852257123
4.10277360779592
4.70296522517557
6.66977596007793
10.8641400264007
14.4386315197397
13.8142935310778
9.36516211658343
5.38229418742908
3.34495206971578
2.17381705021427
1.76496108473836
1.77138341939601
1.82191957028985
1.87680654645211
1.93351147761673
2.03929010130466
2.15754111981944
2.23020634175311
2.28826985220769
2.35433572738256
2.40835725067988
2.45770309375048
2.50083562144758
2.53834094468667
2.56912863953198
2.59374006073841
2.6122437611311
2.62506838561299
2.63261338048876
2.6354281454865
2.63407737919641
2.62913639655378
2.62116353554694
2.61065400271703
2.59804807653252
2.58380087917764
2.56832360352935
2.55198842145568
2.53509038997685
2.51786180209383
2.50050082507904
2.48318247197595
2.46605782075913
2.44924915511533
2.4328489341935
2.41692503804977
2.40152944369373
2.38670573943606
2.3724876793249
2.35889251030278
2.34592651964866
2.33358985169616
2.32188219082834
2.31080032594319
2.30033540037242
2.29047401611722
2.2811989368596
2.27249353621998
2.26434292155314
2.25673089176546
2.24963987749047
2.24305047778895
2.23694185378287
2.23129436493222
2.22608984648138
2.22131036561284
2.21693760562407
2.21295305540551
2.20933699766639
2.20606936399407
2.20313157193021
2.20050558155604
2.19817354698326
2.19611739798926
2.19431875013469
2.19275853124523
2.1914171466764
2.19027511581745
2.18931426027839
2.18851587601473
2.18786480502226
2.1873425738921
2.18694557151758
2.18665370140519
2.18651029288374
2.18647933757584
2.18679837679984
2.1873528372234
2.18914378548576
2.19219893591845
2.19845605817002
2.22251884000842
3.12559189778368
3.12533181908657
3.13881068223752
3.15842055833962
3.1782123900075
3.19451181285289
3.20600466856601
3.21321615282545
3.21749302144464
3.22024233516002
3.22256444964796
3.22516261176131
3.22839636525306
3.23238576042817
3.23710803996048
3.24246253500497
3.24831304525305
3.25451058430216
3.26090767934836
3.26736687091211
3.27376539538547
3.2799758985838
3.28588639776866
3.29139513873485
3.29641089757881
3.3008516567094
3.30464232167507
3.30771303301682
3.30999568352424
3.31142164545613
3.31191885869198
3.31140637316862
3.30978926585709
3.3069528320824
3.30275434457795
3.2970155534454
3.28950198381976
3.27990741299604
3.26779043820346
3.25256490612223
3.23323706916374
3.20854428407729
3.17530547609553
3.13156170587923
3.05521009494893
3.00712883093692
3.03010044563906
3.14893780123934
3.40652504817429
3.8041657294318
4.83652623743874
7.91471751628643
12.0337591542711
13.5225925404109
10.8461457224898
6.57595985359164
4.02093336561002
2.48862564916116
1.74102328082772
1.63734911573767
1.68490582037243
1.73818871947141
1.7931535338865
1.89477593120605
2.01251707339637
2.0934676396572
2.15876640895564
2.23029251086278
2.29031978045463
2.34519950806413
2.39301575542648
2.434306627591
2.46814998726544
2.49497023402603
2.51495351880535
2.52854329018076
2.53621737039343
2.5385814537382
2.53627678218385
2.52994190404759
2.5201987492962
2.50760779382656
2.49264918996916
2.47582916284781
2.4576151836009
2.43841667337663
2.41855316284718
2.39827005032883
2.37778261646507
2.35729013837806
2.33696651062835
2.31694429109294
2.29731939165311
2.27816511774179
2.25954418251539
2.24150859986056
2.22409362837377
2.20731624241611
2.19118429322656
2.17570196845014
2.16087178942148
2.1466907362709
2.13314903668049
2.12023257110998
2.10792487173426
2.09621054157673
2.08507481853593
2.07450088106383
2.06447020117702
2.05496272236244
2.04595779673585
2.03743623157212
2.02938002455857
2.0217711176213
2.01459103828598
2.00782112085135
2.00144192914867
1.99543422192637
1.98978022690685
1.98446271253093
1.97946461608898
1.97476871322626
1.97035756908722
1.96621330081511
1.96231779461769
1.95865329122692
1.95520307711175
1.95195030602678
1.94888046469724
1.94597742135385
1.94323446601078
1.94063653780132
1.93820774325075
1.93593178121656
1.9339567484606
1.93225168441832
1.93145425902685
1.93166370646013
1.93448084196729
1.94777312242962
2.69608207372882
2.69647157919597
2.70571558541704
2.71890787764185
2.73311352642798
2.74617947891007
2.75682612481553
2.76476924451979
2.77038062561479
2.77431213645227
2.77723795891259
2.779717540036
2.78214941929285
2.78478072500494
2.78773901739507
2.79106466613054
2.79474101119482
2.79871585462675
2.8029174425933
2.80726754001508
2.81167935292465
2.81606280980432
2.8203298328766
2.82439526996873
2.8281787705525
2.83160426962267
2.83459858996224
2.83709076387408
2.83901016133745
2.84028544711246
2.84084305889073
2.84060305998267
2.83947484103853
2.8373520689668
2.83410617031777
2.82957991918195
2.82357143354124
2.81581962442504
2.8059568049592
2.79349278424862
2.77761864170045
2.7572921160613
2.72997691144743
2.69408256469713
2.63273454610838
2.59237443177049
2.60669310060533
2.69260903102142
2.88670050433055
3.202002670589
3.75612368669418
5.70544664809212
9.49781640340464
12.3720552542439
11.6038984499292
7.93772627328347
4.81675818057483
2.94879339381128
1.84797390928824
1.55843763738526
1.58780483262507
1.63833409733581
1.69122877298323
1.78941710158105
1.90910701144268
2.00065902305643
2.07504174638045
2.15379219841274
2.22099661220682
2.28221912812735
2.33542042386538
2.38111683496814
2.41848225528529
2.44786921056763
2.46958563472647
2.48411066405798
2.49201441294757
2.49397912866923
2.49073333262243
2.48299477828488
2.47146038747473
2.4567614583033
2.43942683484712
2.42002663545031
2.39908706774078
2.37705557762912
2.35427536469576
2.33100742758288
2.30749051812125
2.28395171188505
2.26058621332417
2.23753408391076
2.21489491154208
2.19274919018474
2.17117056785069
2.15021729254718
2.12992417319703
2.11030707140212
2.09137522947823
2.07313604433279
2.05559333950876
2.03874264131509
2.02257194235136
2.00706551769192
1.99220675368366
1.97798038363683
1.96437059217612
1.95135869373363
1.93892412145433
1.92704523299357
1.91570063479708
1.90487066429058
1.89453654890054
1.88467913103944
1.87527880800194
1.86631587162292
1.85777028139955
1.84962272290818
1.84185541995027
1.83445111663803
1.8273926712516
1.82066281943435
1.81424419986223
1.80811923582199
1.80227041910516
1.79668083499921
1.79133452114049
1.78621560887106
1.78130987963469
1.77660240287931
1.77208457387642
1.76774384246872
1.76359286057381
1.75962528398835
1.75593574410539
1.75253569310887
1.74984483890703
1.74797465980593
1.74832649018107
1.7544398013112
2.36438690950975
2.36513923485138
2.3712145253608
2.38037264140794
2.39079211260365
2.4010913533266
2.41030891228665
2.41799023258273
2.424072551922
2.4287453222207
2.43232668041862
2.43516347133174
2.43756680676812
2.43978087812385
2.441977252078
2.44426212732279
2.44669055960667
2.44927926714651
2.45201780946598
2.45487848580502
2.45781471385201
2.46077311089237
2.46369483029399
2.46651836274509
2.46918184035131
2.47162310364718
2.47377925895475
2.47558685256894
2.4769810524771
2.47789532677037
2.47826054511476
2.47800183375234
2.47703526062792
2.47526376349409
2.47257203289763
2.46882104699754
2.46383520917433
2.45738921793418
2.44917125270309
2.43876559623279
2.42549987563806
2.40850239531652
2.38571208628332
2.35582226260904
2.30570766078216
2.27164048838146
2.28053502320794
2.34502783028437
2.48988474849857
2.74949810770402
3.1068301071014
4.20661617392575
7.19211861561288
10.6828742449197
11.5877326460003
9.15301678760195
5.74912648831628
3.50729222766102
2.10830703289069
1.53756176230772
1.52091198692421
1.56599992330811
1.61639566940027
1.71203175954488
1.83609944897255
1.93997041305136
2.02473211485371
2.1120821915517
2.18743102915239
2.25573153768663
2.31492287565075
2.36551306038403
2.40673928182484
2.4389174501166
2.46249036960521
2.47799338740295
2.48610584210758
2.48760405062958
2.48331860677571
2.47406019359667
2.46061077647614
2.44367680734704
2.42384335096246
2.40175642994191
2.37800148698476
2.35306198607055
2.3273024705516
2.30100175322016
2.27442895346853
2.24784190745001
2.22145434218454
2.19541008688069
2.16981310879985
2.14475354786004
2.12031640504271
2.0965634852443
2.07352710285018
2.05122184541113
2.02965893772296
2.00884859666042
1.98879447986716
1.96948915239831
1.95091750410971
1.93306189793192
1.91590522649827
1.8994316172985
1.88362320266231
1.86845844587111
1.85391403113914
1.8399662406189
1.82659245719342
1.8137719891744
1.80148461483752
1.78970934289707
1.77842476122078
1.76760956195348
1.75724259122626
1.74730395150084
1.737775364774
1.72863898745066
1.7198769893625
1.71147145038039
1.70340449795782
1.69565829547715
1.68821538935134
1.68105915493852
1.67417389756225
1.66754412881271
1.66115560530177
1.65499384976917
1.64904892963306
1.64330935303407
1.63778065498753
1.63246110488463
1.62741249950839
1.62266586332017
1.61850799994129
1.61502736043501
1.61353214264026
1.6146130363341
2.09689749000991
2.09949786503572
2.10485845876586
2.11218715922863
2.12048182238451
2.12890860069537
2.1368396052201
2.14389728902368
2.1499009949221
2.15483495802612
2.15880765665004
2.16199703086802
2.16460262733295
2.16680907893537
2.16877011847048
2.17060426903969
2.17239636218298
2.17420074607202
2.17604597222316
2.17793663511928
2.1798604588905
2.1817940203991
2.18370554774794
2.185557198629
2.18730675815888
2.18890808959617
2.19031170218321
2.1914656217035
2.1923151868749
2.19280294394645
2.19286786031374
2.19244288397585
2.19145258911812
2.18981012596499
2.18741323674804
2.18413954303105
2.17983581505128
2.17430640909752
2.16728375950762
2.15841188147491
2.14712324697456
2.13268157468196
2.11338752145579
2.08815911704988
2.04663650086632
2.01767221734704
2.02298079610265
2.0727654332533
2.18239019222465
2.3904908752226
2.67433878334747
3.26579258615875
5.33834135126246
8.77224482933756
10.9017898007389
9.88480477387307
6.79776655508887
4.17938585900139
2.4952119186867
1.59280293239604
1.48287478053882
1.51548712763919
1.56237179135908
1.65617103113983
1.78686519097416
1.90443873659911
2.00059882844282
2.09767748746126
2.18200078523787
2.25801687082178
2.32368669479206
2.37951371462568
2.42479376565908
2.45984035700766
2.48524985208576
2.50163915567595
2.5098105581694
2.51065844952405
2.50513028731837
2.49414201729084
2.47856930982452
2.4591967177727
2.43667297071116
2.41173075223978
2.3850114035125
2.35702936382163
2.32816702676777
2.29872383991905
2.2690069330978
2.23930621192468
2.20984886288331
2.18077782460757
2.15220328451269
2.12422809404284
2.09694847949325
2.07042592783355
2.04468823680527
2.01974944737953
1.99562394918298
1.97232432057818
1.94985222390379
1.92819577413019
1.90733634070926
1.88725456074668
1.8679328036236
1.84935389836045
1.83149688609904
1.81433653068755
1.79784635261829
1.78200039855369
1.76677462590482
1.75214690251344
1.73809494656216
1.72459529932836
1.71162424657996
1.69915855439487
1.68717569848599
1.67565492420692
1.66457711780538
1.6539234068237
1.6436747868464
1.63381222319615
1.6243169344786
1.61517046566494
1.60635507641105
1.59785407740618
1.58965169933629
1.58173239905106
1.57408162392785
1.56668483020066
1.55953102626433
1.55260890501279
1.54591945376974
1.53946247658456
1.53327944071524
1.52740759617796
1.52205312752717
1.51726075984546
1.51431607947058
1.51171555781792
1.87561506338367
1.88096039191289
1.88779425544397
1.89509053672979
1.9025749753407
1.90996477547295
1.91696185412641
1.92334970996047
1.92899444065841
1.9338451602227
1.93792281233143
1.94130103938341
1.94408617153638
1.94639338988967
1.94833696823122
1.9500214309248
1.95153379318157
1.95294048002238
1.95428537898379
1.95559110286839
1.95686706737751
1.95811208235307
1.95931588637491
1.96046006461571
1.96151906973019
1.96246135049233
1.96325087738433
1.96384822598736
1.96421048129861
1.96429086192559
1.96403781919799
1.96339329749101
1.96229132107908
1.96065583432036
1.95839747209816
1.95540931934882
1.95155767399729
1.94667215429312
1.94052146732101
1.93279880704376
1.92301972654308
1.91055764921637
1.89399577702992
1.8724332817943
1.83759684867058
1.81276721090811
1.81564078944652
1.85465672596382
1.93987394028276
2.10199095542873
2.34754999710306
2.69437043713343
3.97640379439789
6.90429519135787
9.73670859577151