/*--------------------------------*- C++ -*----------------------------------*\
  =========                 |
  \\      /  F ield         | OpenFOAM: The Open Source CFD Toolbox
   \\    /   O peration     | Website:  https://openfoam.org
    \\  /    A nd           | Version:  7
     \\/     M anipulation  |
\*---------------------------------------------------------------------------*/
FoamFile
{
    version     2.0;
    format      ascii;
    class       volScalarField;
    location    "30000";
    object      p;
}
// * * * * * * * * * * * * * * * * * * * * * * * * * * * * * * * * * * * * * //

dimensions      [0 2 -2 0 0 0 0];

internalField   nonuniform List<scalar> 
21000
(
0.00397987420158323
0.00845876396804158
0.00715999134822804
0.00540957035271496
0.00451946702774268
0.00392293965722536
0.00349477546932547
0.00318754858970531
0.00290840574658163
0.00262040150175767
0.00231774950231753
0.00200078025418131
0.00167118949774072
0.00132945834300382
0.000973819760705443
0.000601582580367697
0.000209636522877471
-0.000205042992537454
-0.000645456820231247
-0.00111464519548236
-0.00161560373825296
-0.0021516134874147
-0.00272580935730002
-0.00334129050069579
-0.00400178012122683
-0.00471159468590262
-0.00547555153492542
-0.00629922604023972
-0.00718899198354151
-0.00815229548205704
-0.00919797872212411
-0.0103363784999849
-0.0115796465278111
-0.012942546031868
-0.0144427074688496
-0.0161029852381004
-0.0179499859080709
-0.0200230256285265
-0.0223626906026051
-0.0250523184175603
-0.0281466029127134
-0.0318824011391846
-0.0362763718201522
-0.0422904061657391
-0.0494306471921256
-0.0641913788711179
-0.0694660894356639
-0.0629044164666151
-0.0517827826712732
-0.0386170305889102
-0.0269746111652989
-0.0177232549873932
-0.00953933377226524
-0.00307542442338209
0.00133573496865043
0.00416872948707891
0.0061715803181622
0.00732341127769545
0.00767252461355449
0.00773772445052634
0.00812615744222748
0.00758859235086587
0.00875429349286664
0.0093123256322268
0.00712477679198915
0.00739656428672336
0.00966624717430239
0.0127720113845167
0.0171158056168059
0.022101907117868
0.0278045980636934
0.0338990489816655
0.0403032127893905
0.0467871630099608
0.0532260356865345
0.0594672480587658
0.0654111314503786
0.0709658867743138
0.0760754293005698
0.0807013816945723
0.084829173683022
0.0884602557452167
0.091609481011264
0.0942985019246645
0.0965582688583415
0.098425349883004
0.0999374303752303
0.101131005200104
0.102041743295078
0.102704382623633
0.103151516707542
0.103412167048101
0.103512777529752
0.103477507746059
0.103328058144144
0.103082902368499
0.102757901827048
0.102367627329984
0.101924512905163
0.10143923414958
0.100920507398445
0.100375891815827
0.0998120487166925
0.0992344797545525
0.0986478403543385
0.098055713818171
0.0974609603162754
0.0968661682950755
0.0962733468288441
0.0956840614961163
0.0950994862677435
0.0945202672427786
0.0939468253607826
0.0933794577519734
0.0928182619574706
0.0922630855502734
0.0917136614201558
0.0911694824077086
0.0906297699202512
0.0900937742730811
0.0895606376915785
0.0890293864601761
0.0884989163341886
0.0879680252620977
0.0874353309848583
0.0868993624942642
0.0863583620299741
0.0858109669178774
0.0852548424255264
0.0846895344306573
0.0841106732827708
0.0835224901529461
0.0829123005914819
0.0823049429351523
0.0816525600813035
0.0810652799811715
0.0803576982740705
0.0799466933200718
0.0792978506159018
0.078905562703786
0.00406963577383133
0.0082827755352662
0.00709036938088107
0.00539552038351841
0.00452382865562262
0.00393279832776579
0.00350410057748697
0.0031944883406025
0.00291362921742682
0.00262457524998151
0.00232128568205556
0.00200388997725981
0.00167397609774038
0.00133195702177426
0.000976036683422137
0.000603526837735671
0.000211325231879057
-0.000203585180552677
-0.000644204720609694
-0.00111358744748288
-0.0016147237836211
-0.00215087947782932
-0.00272519374969869
-0.00334077358319815
-0.00400135052783253
-0.00471124436260895
-0.0054752719533197
-0.00629900934242686
-0.00718882984110551
-0.00815217991669239
-0.00919790296294828
-0.0103363343120396
-0.0115796228018197
-0.0129425297521599
-0.0144426811877986
-0.0161029302991128
-0.0179498632565675
-0.0200227974324788
-0.0223622364679727
-0.0250515631282744
-0.0281450415788044
-0.0318798670780833
-0.0362696229953994
-0.0422768121264004
-0.0493523426124159
-0.0638185385986852
-0.0690752954567174
-0.0627656732899554
-0.0518645062833237
-0.0387980887066938
-0.0271816052191419
-0.0179246822317107
-0.00974662535755927
-0.00325401232087794
0.00120276945868244
0.00406788776633822
0.00609917795328923
0.00729084882481828
0.00767648217531858
0.00772157640017142
0.00811812249976174
0.00754423757387584
0.00865457025615284
0.00921896354685178
0.00711036635519822
0.00738729719638192
0.00965925755364451
0.0127646309151146
0.0171075476837653
0.0220901991992306
0.0277893557429527
0.0338783030049453
0.0402766886340421
0.0467549340767237
0.0531886970439271
0.0594254727992908
0.065365813470385
0.0709179467440912
0.0760257981914875
0.0806508999337145
0.0847788799866938
0.0884113294878788
0.0915619432520922
0.0942521232630904
0.0965134784635018
0.098382400407551
0.0998964832541333
0.101092154259288
0.102005051216654
0.102669877633444
0.103119177409165
0.103381929808227
0.103484566743114
0.103451244241191
0.103303651761013
0.103060244098506
0.102736881646215
0.10234814703587
0.101906473537536
0.101422537585552
0.100905052762933
0.100361587506033
0.099798811548143
0.0992222307857241
0.0986365056076503
0.0980452184488211
0.0974512353405313
0.0968571540518722
0.0962649869483203
0.0956763045960359
0.0950922835408708
0.0945135701456368
0.0939405904127972
0.0933736467506751
0.0928128397259964
0.0922580192470932
0.0917089216895369
0.0911650397469356
0.0906255953292094
0.0900898434539667
0.0895569281583833
0.0890258775242007
0.0884955885543902
0.0879648606380319
0.0874323117168919
0.086896470978529
0.0863555808138544
0.0858082827091408
0.0852522366261216
0.0846870001619007
0.0841081777364217
0.0835200500781109
0.0829098175723982
0.0823025276236943
0.0816498371622145
0.0810626006005868
0.0803536743464348
0.0799402146345065
0.0792764083810324
0.0789003776877665
0.00437837678943977
0.0080215996253492
0.00697594424125493
0.00536821685707176
0.00452668306241236
0.00394515714139191
0.00351638347826547
0.00320370402001975
0.0029202086847855
0.00262933278932876
0.00232527722604873
0.0020076483483071
0.00167762772737969
0.00133545912689946
0.000979307213591731
0.000606513504160967
0.000214005993245275
-0.000201207260265433
-0.000642122148469097
-0.00111180156552343
-0.00161324158317251
-0.00214967429273884
-0.00272421437926407
-0.00333999488856332
-0.00400076733936823
-0.00471085636855161
-0.00547507510173804
-0.00629899851209058
-0.00718899795940268
-0.00815252156392477
-0.00919841596565799
-0.0103370143982458
-0.0115804603208805
-0.0129435090301144
-0.0144437770505218
-0.0161041122066264
-0.0179510571559523
-0.0200239137250084
-0.0223630147618568
-0.0250517520005734
-0.0281435107056321
-0.0318757210164746
-0.0362555500666367
-0.0422435716910675
-0.0491899511875655
-0.0631000307003318
-0.0682135713632058
-0.0621849399602053
-0.0516172091246016
-0.0388156449127148
-0.0272676026151532
-0.0179895673634565
-0.00983372550956488
-0.0033575233990746
0.00112177060643397
0.00400249852275846
0.00605130488059603
0.00727903830227708
0.00771034321549926
0.00769747875863454
0.00808428964968057
0.00745975156590704
0.00842487556409471
0.00888087266508606
0.00707819338006466
0.00737241176869313
0.00964468712399706
0.0127418809314029
0.017072720537351
0.0220372945111345
0.0277186485150059
0.0337883640326984
0.0401692821922948
0.0466317692762439
0.0530525116153515
0.059278929046464
0.0652118758869529
0.0707594298468008
0.0758653664090785
0.0804909917411262
0.0846211717171249
0.0882565386806892
0.0914113458450316
0.0941072251909234
0.09637514865923
0.0982511176250225
0.0997724741066855
0.100975471124269
0.101895670907659
0.102567696040722
0.103023974882115
0.103293391233885
0.103402357121726
0.103375030408021
0.103233084903645
0.102994940634537
0.102676464790547
0.102292278382487
0.101854823631079
0.101374788984839
0.100860889966741
0.100320724548955
0.0997609900127452
0.0991872097600549
0.0986040629594511
0.0980151356789029
0.0974233123854021
0.0968312172607418
0.0962408745647371
0.0956538706977209
0.0950713917951491
0.0944940873302012
0.0939223972849839
0.0933566384253305
0.0927969203143734
0.0922431000575117
0.0916949240579949
0.0911518858291151
0.0906132090343916
0.090078160562528
0.0895458893321601
0.0890154284529897
0.0884856785583069
0.0879554431249433
0.0874233410714489
0.0868879020343889
0.0863473687182569
0.0858003921315534
0.0852446195035426
0.0846796344747743
0.0841009797191432
0.0835130456763599
0.0829027603631393
0.082295636184428
0.0816421642024396
0.0810549438609882
0.0803419602047482
0.0799240882667575
0.079218806218548
0.0788917220595693
0.00470189242990532
0.00778272276543122
0.00687838229298496
0.00534761908459575
0.00452771572915565
0.00395282573841988
0.00352460424539839
0.00321029569641441
0.00292520538360252
0.00263335735236482
0.00232916356599245
0.00201169289261571
0.00168178827911532
0.00133958945490225
0.00098326717801577
0.000610224789991989
0.000217432418456962
-0.000198069983645047
-0.000639276177465359
-0.00110925454513974
-0.00161098033871237
-0.00214766231408295
-0.00272241781677458
-0.00333841402207961
-0.00399939855564063
-0.00470967767015362
-0.00547407263069968
-0.00629816034365826
-0.00718831248884009
-0.00815199355305812
-0.00919803530974098
-0.0103367421437438
-0.0115802540117987
-0.0129433126187897
-0.0144435110575586
-0.0161036722996854
-0.0179502562663603
-0.0200224968621378
-0.022360442584872
-0.025047351239468
-0.0281352761395212
-0.0318613095475721
-0.0362236398336225
-0.0421757878137967
-0.048956740903861
-0.0622165416259719
-0.0671453246654147
-0.0613925915645167
-0.051131613539882
-0.0385980985723722
-0.0271571223522319
-0.0179442391799122
-0.00982392225996711
-0.0033752988398299
0.00108297607156432
0.00395819714400719
0.00601772452830887
0.00728566077202413
0.00778065887298717
0.00767870466779686
0.00804112845558892
0.00736631099136685
0.00815051119192123
0.00843640824860638
0.00704678375622849
0.00735905142383358
0.00962828436742668
0.0127045460634598
0.0170126555405257
0.0219469675731894
0.0275998113954502
0.0336399334317357
0.0399946008896756
0.0464336390850063
0.0528351662487223
0.0590463040086464
0.0649682868883581
0.0705088862007754
0.0756116742422005
0.0802374222696
0.0843705195105592
0.0880112721117192
0.091173616582871
0.093878630953957
0.0961567951387947
0.0980436229521135
0.0995761096762325
0.100790260975148
0.101721534111164
0.102404448473815
0.102871280703019
0.103150781759699
0.103269337190128
0.103251112306054
0.103117763993689
0.102887661757832
0.102576678504207
0.102199491384148
0.101768557344186
0.101294582340007
0.100786281660928
0.100251293001156
0.0996963527397928
0.0991270096967651
0.0985479705856451
0.0979628255469528
0.0973744835719562
0.0967856061966432
0.0961982348988334
0.0956139796003228
0.0950340409144441
0.0944590724717262
0.093889533820961
0.0933257623564849
0.0927678811174531
0.092215758170095
0.0916691554541048
0.0911275682489962
0.0905902226032659
0.0900564027115919
0.0895252647998357
0.0889958499297431
0.0884670646150473
0.0879377189733451
0.0874064340103002
0.0868717400031125
0.0863318802233284
0.0857855189411073
0.0852302854606868
0.0846657987216685
0.0840875135520448
0.0834999691462339
0.0828897031460598
0.0822828715192292
0.0816282432513331
0.0810410772212215
0.0803211403878893
0.0799008688070665
0.0791353719369667
0.0788785352890631
0.00486171394875728
0.00757220624395901
0.0067906081962487
0.00533029363316279
0.00452945907353916
0.00396036897801197
0.00353228137759732
0.00321579702023253
0.00292915032035557
0.00263684021609852
0.00233276522746481
0.00201555275509944
0.00168584913749926
0.00134370063172185
0.00098727718666454
0.000614048916506162
0.000221031171215084
-0.000194698961121621
-0.000636134764294274
-0.00110635152849921
-0.00160829554696358
-0.00214515516292039
-0.00272005367252591
-0.0033361899060985
-0.00399730927115242
-0.00470769927492667
-0.00547218725314111
-0.00629634880300132
-0.00718655103319524
-0.00815027117890012
-0.00919632202106126
-0.0103349719331564
-0.0115783498953607
-0.0129411716285997
-0.014440990506999
-0.0161005824363393
-0.0179462846627976
-0.0200172053833816
-0.0223530009196666
-0.0250366353820199
-0.0281184327235661
-0.0318345098345434
-0.0361721920131524
-0.0420735377164156
-0.0486708950209629
-0.0612454759548805
-0.0659653598077696
-0.0605062233885127
-0.0506027032246162
-0.0383551074803561
-0.0270137766679232
-0.0178554675451058
-0.00979568330917945
-0.00332431408325604
0.00109912427712554
0.00393787531616982
0.00599388614174861
0.00729944055027349
0.00787542529083691
0.00767594321563562
0.00800914404145779
0.007279923568374
0.0078813048736831
0.00798877790460899
0.00700446161181229
0.00732263347034963
0.00960080096704716
0.0126535885349303
0.0169384310755403
0.0218404881161012
0.0274635765946345
0.033473002786905
0.0398008807951204
0.0462159786291662
0.0525979663339088
0.0587935209734538
0.0647042592110611
0.0702375789923175
0.0753368817296114
0.0799624644152182
0.0840984128434474
0.0877445556988271
0.0909141752554832
0.0936279406826795
0.0959160466845354
0.0978135373638698
0.0993570761986034
0.100582396702261
0.101524840312742
0.102218830535675
0.102696491617896
0.102986420705334
0.103114966017277
0.103106299708873
0.102982059377027
0.102760543814417
0.102457616850177
0.10208801520282
0.101664205606265
0.101196905639639
0.100694816580991
0.100165612540828
0.0996160692275528
0.0990517586916829
0.098477414601377
0.0978966233148163
0.0973123149825131
0.0967271912339665
0.096143309615581
0.0955623047363472
0.0949853912865167
0.0944132231433759
0.0938462795693909
0.0932849204143976
0.0927292829405198
0.0921792464226419
0.0916345907135058
0.0910948115039458
0.0905591352590211
0.0900268661458787
0.0894971683162758
0.0889690918203314
0.0884415496863002
0.0879133597901624
0.0873831453319142
0.0868494362028598
0.086310475749616
0.085764943372316
0.0852104463796221
0.0846466437032276
0.084068883414483
0.0834818766371179
0.0828716838681758
0.0822652258308252
0.0816091158449725
0.0810219790128179
0.0802928228435803
0.0798710797479514
0.0790291360725578
0.0788570616774194
0.00497210295267892
0.00739343273363083
0.00670482693235958
0.00531541818946967
0.00453366410587162
0.0039696860630156
0.00354101568496095
0.00322162994629092
0.00293290303418671
0.00263979025725669
0.00233567018799038
0.00201871698486869
0.00168930071209318
0.00134731175101535
0.000990894527995215
0.000617584296562513
0.000224441285246242
-0.000191416462676945
-0.000632983834369068
-0.00110334321730891
-0.00160541198600585
-0.00214235952428105
-0.00271730417876312
-0.00333346418606244
-0.003994604813172
-0.00470500801600643
-0.00546948829676093
-0.00629361342949553
-0.00718373642335282
-0.00814732997830274
-0.00919319907423178
-0.0103315852828354
-0.0115745879090516
-0.0129368809754158
-0.0144359611662924
-0.016094533173197
-0.0179387720500915
-0.0200075957281241
-0.0223401688762541
-0.0250189724753298
-0.0280922728547915
-0.0317943993665001
-0.0361006736861574
-0.0419363006953826
-0.0483374524311849
-0.060214733020601
-0.0647098238230306
-0.0595381114191215
-0.0500336768886222
-0.0381196378212907
-0.0268908240401293
-0.0177380333406662
-0.0097601413030569
-0.00330821156565856
0.00116044138074939
0.00394030808522443
0.00598255537410437
0.00731701032399313
0.00798231122682116
0.00768499480221169
0.00798872306725238
0.00719980955662386
0.00762076227011555
0.00754771830074854
0.00694539429166418
0.00726254984045188
0.00956418646538124
0.012594097590447
0.0168584325292048
0.0217298110109332
0.0273253265677709
0.0333062372638809
0.0396095343995522
0.0460025929391798
0.052366614664084
0.058547783956952
0.0644480704988687
0.0699744993840494
0.0750703403648079
0.079695458949789
0.0838335863753839
0.0874840959980953
0.0906597831525376
0.093381010500038
0.0956777617932653
0.0975846686593578
0.0991381066521951
0.100373525423999
0.10132614750261
0.102030320565668
0.102518029035076
0.102817701892914
0.102955640816626
0.102956027018833
0.102840481122706
0.102627213359414
0.102332063289372
0.101969830569301
0.101552987172169
0.101092256196018
0.100596310373362
0.100072855696443
0.0995287065226267
0.0989694547234949
0.0983998591527945
0.0978234930551826
0.0972433025113217
0.0966620306772231
0.096081748634628
0.0955041152514263
0.0949303575514797
0.0943611241208886
0.0937969124183406
0.0932381053521059
0.0926848538740767
0.0921370473751463
0.0915944849106328
0.0910566601484925
0.0905227966994902
0.0899922203000913
0.0894641028552622
0.0889375034923856
0.0884113415689122
0.0878844430896498
0.0873554329768914
0.0868228388147592
0.0862849031970389
0.0857403212674127
0.0851866752571317
0.0846236652107281
0.0840465193216136
0.0834601309998773
0.0828500219178198
0.0822439513613623
0.0815860422372963
0.0809988452500692
0.0802584553410613
0.0798362061451902
0.0789071163636552
0.0788291221629045
0.00506722410237865
0.00722938851607836
0.00661862476772259
0.00530234839621827
0.00453977663503006
0.00398063529774071
0.00355110152502985
0.00322838814441339
0.00293716206992373
0.00264293018989766
0.00233857609557731
0.00202178540309218
0.00169261903647006
0.00135078646648231
0.000994390119114389
0.000621026540519113
0.000227796839812998
-0.000188138808676439
-0.000629780694807898
-0.00110022065585863
-0.00160234535048936
-0.00213930635311505
-0.00271421524513961
-0.00333031029949462
-0.00399137687682776
-0.00470168748322881
-0.00546604186840015
-0.00629000014303014
-0.00717989768037577
-0.00814320152856108
-0.00918870527374431
-0.0103266132668327
-0.0115689852816227
-0.0129304411163908
-0.0144284041294772
-0.0160854828649237
-0.0179276505732903
-0.0199935672117889
-0.0223218095049149
-0.0249941741994293
-0.0280565713678528
-0.0317406940457856
-0.0360090586075666
-0.0417650208597744
-0.0479607474043593
-0.0591403952322141
-0.0634014776191587
-0.0585078109087036
-0.0494053625737403
-0.0378783415241324
-0.0267796636468234
-0.0176174599537393
-0.00968292842212882
-0.0033249733078254
0.00120462967418694
0.00397009488025506
0.00597832329040981
0.00733755390265814
0.00809533984855247
0.00770179296758642
0.00797802005510475
0.00712735699961291
0.00737148896098367
0.00711388498168351
0.00687647848933461
0.00718571445933499
0.00952080491382872
0.0125283707092026
0.0167754716336328
0.0216185829306582
0.0271894817325732
0.0331447802077061
0.0394262730322346
0.0457996864842268
0.0521476734122848
0.0583159212490964
0.0642067127987533
0.0697267267182031
0.0748191336718014
0.0794433977790678
0.0835829602349679
0.0872368896683741
0.0904175535240756
0.0931450281347204
0.0954491563242292
0.0973642246622892
0.0989263673912645
0.10017073957013
0.101132446510384
0.101845787893741
0.102342625118067
0.102651204681891
0.102797773977537
0.102806529921472
0.10269908260612
0.102493536346299
0.102205691628778
0.101850417005149
0.101440187129365
0.1009857256589
0.100495662395293
0.0999777315424855
0.0994387866049359
0.0988844366049818
0.0983194645604175
0.0977474211114547
0.0971712630899244
0.0965937773607424
0.0960170462422924
0.0954427526852831
0.0948721344662799
0.0943058289829261
0.0937443502951629
0.0931881052344902
0.0926372579167292
0.0920917066591344
0.0915512711893877
0.0910154405006275
0.0904834316591948
0.0899545936014569
0.0894281058282247
0.0889030365196244
0.0883783110904736
0.0878527640006407
0.0873250214026869
0.0867936062285951
0.0862567596332263
0.0857131924465462
0.0851604599168383
0.0845983014670589
0.0840218175978218
0.0834360829159857
0.0828260412485743
0.0822203194096302
0.0815603095425301
0.0809728842223358
0.0802195209367723
0.0797976509044184
0.0787752157114908
0.078796021060886
0.00515802749436449
0.00707685372331208
0.00653257592613011
0.0052898909583039
0.00454687073338406
0.0039928447057653
0.00356251273646088
0.00323626104767142
0.0029422525472295
0.00264665225376735
0.00234187495150594
0.00202511452159556
0.00169611774393468
0.00135439620620534
0.000997995656666466
0.000624571295033891
0.000231261377114286
-0.000184730450612635
-0.000626414039707554
-0.00109689371958692
-0.00159902246698768
-0.00213593534221865
-0.00271073692055341
-0.00332668562086628
-0.00398758675512342
-0.00469770158423063
-0.00546181382332979
-0.00628547423786792
-0.00717499635977665
-0.00813783953083288
-0.00918278167452687
-0.0103199811046735
-0.0115614493521246
-0.0129217377638368
-0.0144181788514623
-0.0160732587703512
-0.0179127086016622
-0.0199748582340582
-0.0222976023998207
-0.0249618379267831
-0.0280108503210322
-0.0316728017636261
-0.0358969504125223
-0.0415600847840589
-0.0475438018834649
-0.0580339868698641
-0.0620556819540472
-0.0574323312210922
-0.0487209824226768
-0.037624510399989
-0.0266866462427163
-0.0175238712753714
-0.00957948769120363
-0.00329612578630207
0.00119002917150554
0.00402428384982025
0.00597919568025923
0.00735994229640401
0.00821316399996199
0.00772504097464049
0.00797703146791611
0.00706468632182744
0.00713780283622451
0.00669259378033341
0.0068019772577035
0.00709534848664616
0.00947152646453378
0.0124575199186308
0.0166909216400559
0.0215087635764603
0.0270584709732073
0.0329915192308795
0.0392543498432941
0.0456108312047451
0.0519449462361274
0.0581019128192787
0.0639842898053766
0.0694984459979982
0.0745874503334504
0.0792104778397128
0.0833507745852821
0.0870072329003241
0.0901917994033783
0.0929242877671771
0.0952344902054084
0.0971564190795476
0.0987260133031589
0.0999781204474837
0.100947734242227
0.101669141534629
0.102174099232621
0.10249065371617
0.102644990366312
0.102661332641283
0.102561289551736
0.102362840098225
0.102081729575489
0.101732903627136
0.101328838380784
0.100880253239
0.100395719454271
0.0998829959313755
0.0993489765752405
0.0987992852408915
0.0982387284844589
0.0976708239649221
0.0970985337589283
0.096524691290009
0.0959513878159357
0.0953803304173992
0.0948127660867905
0.0942493145219484
0.0936905047200534
0.093136768645694
0.0925882830630631
0.0920449539737373
0.0915066235960087
0.0909727733308079
0.090442609579179
0.0899155063656344
0.0893906507402877
0.0888671199132111
0.0883438451042353
0.0878196696639178
0.0872932205495132
0.0867630133327947
0.0862272872712415
0.0856847684087703
0.0851329841791053
0.0845717093133907
0.0839959134103662
0.0834108413813878
0.0828008401787188
0.0821953931256232
0.0815330092572775
0.0809451183828155
0.0801773567483962
0.0797564707248189
0.0786379823501657
0.0787585063702046
0.0052401736337495
0.00694118283345489
0.0064472338897365
0.00527683505110977
0.00455420248266084
0.00400595346912115
0.00357511690228264
0.00324528099469246
0.00294831225713586
0.00265114461062481
0.00234577411605915
0.00202891871636747
0.00170001159523597
0.00135835054244929
0.00100191141370721
0.000628407212212505
0.000235010566566006
-0.000181028923955815
-0.000622734607048826
-0.00109322654328535
-0.00159531923322737
-0.00213213271506279
-0.00270676444925186
-0.00332249177549114
-0.00398314131432297
-0.00469296161557632
-0.00545671797808
-0.00627994968219175
-0.00716894376600544
-0.00813114938506798
-0.00917532513027908
-0.0103115746685131
-0.0115518516860768
-0.0129106238188646
-0.0144051146992252
-0.0160576605388961
-0.0178937089332707
-0.0199511831004604
-0.022267203921019
-0.024921538846257
-0.0279546108935893
-0.0315901219881065
-0.0357639371566299
-0.0413218885960501
-0.0470889188735427
-0.0569038886249272
-0.0606833584242228
-0.0563216606126928
-0.0479933254141784
-0.0373329360440122
-0.0266230926362695
-0.0174644210060944
-0.00949719616039212
-0.00320875585574879
0.00117864354750014
0.0040483461090744
0.00601096562700795
0.00738224729553121
0.00833696158147252
0.0077546333596264
0.00798583745909952
0.00701321626221117
0.00692270326627122
0.00628832988413392
0.00672406901439374
0.00699364273466393
0.00941694367544303
0.012382500279262
0.016605850076393
0.0214018413802191
0.0269340441602006
0.0328484668771455
0.0390959536861861
0.0454383597791959
0.0517608508573864
0.0579082385992537
0.0637833183603613
0.0692921802774012
0.0743778311489411
0.0789992652753651
0.0831396090618062
0.0867977035047589
0.0899850813083142
0.0927213281773582
0.0950362822854122
0.096963751146131
0.0985395197738115
0.0997981099754123
0.100774412735965
0.101502744314144
0.102014775480907
0.102338329178821
0.102499520603096
0.102522615482551
0.10242923405709
0.102237207152546
0.101962206959019
0.101619267380359
0.101220866465209
0.100777714522438
0.100298306886754
0.0997904239115213
0.0992610021837191
0.0987156786075325
0.0981592831638097
0.0975952889507094
0.0970266574256642
0.0964562723045282
0.095886231480571
0.09531826655819
0.0947536322552262
0.0941929232580193
0.0936366818076513
0.09308536666007
0.092539166698223
0.0919979943144
0.0914617165026753
0.0909298037726241
0.0904014472072001
0.0898760481962574
0.0893528014093115
0.0888307930624707
0.0883089599479937
0.0877861549039106
0.0872610053207675
0.0867320162883307
0.0861974249351568
0.0856559717683821
0.0851051565075044
0.0845447831215566
0.0839696911358335
0.0833852763331138
0.0827752878133711
0.0821700182017359
0.0815050251261523
0.0809163719023644
0.0801331217171249
0.0797134642509973
0.0784989978327044
0.0787171074499308
0.00520779954124208
0.00681156906434856
0.00636436973153399
0.00526313099220659
0.00456127073997608
0.00401958573930591
0.00358872045250563
0.00325540913419743
0.00295539983085036
0.00265651427074093
0.00235040486803733
0.00203334268078087
0.00170445367184422
0.00136280785091592
0.00100629837520673
0.000632695809353616
0.000239204443113389
-0.000176876903754752
-0.000618589223672746
-0.00108907096768095
-0.00159109316079349
-0.00212776189004305
-0.00270216581272716
-0.00331760031134415
-0.00397791508905333
-0.00468734398619303
-0.0054506310480795
-0.00627330180704921
-0.0071616116608521
-0.00812299713493952
-0.00916619383681892
-0.0103012414182702
-0.0115400254507315
-0.0128969136931378
-0.0143890022423034
-0.0160384484388947
-0.0178703739487157
-0.0199222141784496
-0.0222302265019946
-0.0248728070622361
-0.0278873088274951
-0.0314920226637117
-0.0356095691414943
-0.0410508234517559
-0.046597919355714
-0.0557562768066531
-0.0592929183326913
-0.055182467671848
-0.0472303377005884
-0.036993009485107
-0.0265819941668189
-0.0174384570947302
-0.00946261111337807
-0.00310513265015023
0.00123542622966549
0.00403402478247998
0.00608731964917851
0.00740712808202523
0.00846629232988819
0.00779204728246117
0.008004358760479
0.00697397304316641
0.00672811190491602
0.00590407709656436
0.0066447782759913
0.00688304060729622
0.0093577712792277
0.0123042867994853
0.0165211152100598
0.021298844562426
0.0268172252353385
0.0327166486146281
0.0389520365933941
0.0452831366352799
0.0515961375000088
0.0577355538844598
0.0636043698516507
0.0691084140648137
0.0741907135891843
0.0788101792013891
0.0829498863950286
0.0866087451475803
0.0897978740185978
0.0925366671876917
0.0948551068327189
0.0967868596155013
0.0983675892437998
0.0996314649157948
0.100613286636709
0.101347449279656
0.101865553672276
0.102195168093742
0.102362328912536
0.102391365785239
0.102303925300589
0.102117662362755
0.101848156165277
0.101510544170051
0.101117308968423
0.100679146836296
0.100204457659554
0.0997010406181011
0.099175878836554
0.098634621411164
0.0980821224185367
0.0975217973827582
0.0969566010476639
0.0963894724568386
0.0958225139754973
0.0952574827450983
0.0946956398761983
0.0941375468147175
0.093583757460968
0.0930347596842209
0.092490754001105
0.0919516579295433
0.091417366194944
0.0908873346548049
0.0903607338171593
0.0898369952868231
0.0893153215858825
0.0887948079385441
0.0882743965244756
0.0877529505083602
0.0872290974024406
0.0867013282221585
0.0861678779804658
0.0856275007417517
0.0850776694524274
0.0845182094914362
0.0839438348115938
0.0833600649734602
0.0827500671882624
0.0821448622622148
0.0814770710325042
0.0808873053273829
0.0800878233837612
0.079669258217619
0.078361139013043
0.0786722269461176
0.00518774999598985
0.00668646113510496
0.00628210524943034
0.00524839011253412
0.00456771135555539
0.00403340533157869
0.0036031005259211
0.00326655665340977
0.00296352494542753
0.00266282647836674
0.00235586057267726
0.00203849336993388
0.00170955933054397
0.00136789019170673
0.00101128414999936
0.000637569615552099
0.000243979470761227
-0.000172134557094539
-0.000613836199390879
-0.00108428445221221
-0.00158620153731534
-0.00212268082019387
-0.00269679900812797
-0.00331186886147215
-0.00397176501488746
-0.0046807041388573
-0.00544340589332671
-0.00626537956679836
-0.00715284316108152
-0.00811321815899917
-0.00915521337240509
-0.0102887942460481
-0.0115257673768715
-0.0128803833653511
-0.0143695913916372
-0.0160153396205692
-0.0178423800789185
-0.0198875747072832
-0.0221862301451636
-0.024815118382333
-0.0278083455819591
-0.0313778330329079
-0.0354333579051131
-0.0407472724451409
-0.046072324623562
-0.0545958140815522
-0.0578910553220599
-0.0540199204005183
-0.0464372056563993
-0.0366124354529454
-0.0265286665201693
-0.0174526703910403
-0.00947320059863486
-0.00303382298119295
0.00136374657284497
0.00405902995848582
0.00614879096556135
0.00745726674536785
0.00859669632760465
0.00784081040094115
0.00803305358120852
0.00694779265555593
0.00655537619978811
0.00554211721456156
0.0065662032858497
0.00676620206650448
0.00929489353835383
0.0122239696485956
0.0164375120757485
0.0212005512079302
0.0267085892826904
0.0325964432868062
0.0388227161657577
0.0451450214307942
0.0514504102013815
0.0575832399639357
0.0634465982409468
0.0689461544855729
0.0740250105340957
0.0786420766518229
0.0827804544187191
0.0864392362828543
0.0896291139248649
0.0923693209140377
0.0946900825339752
0.0966249811241665
0.0982095796415068
0.0994776560833024
0.100463934293405
0.101202944424345
0.101726229410659
0.102061061410584
0.102233389197297
0.102267635108576
0.102185489713778
0.102004397537113
0.101739822669769
0.10140702680276
0.10101850223007
0.100584925797279
0.100114579570034
0.0996152798966046
0.0990940624033216
0.0985565887670534
0.0980077387762593
0.0974508555105095
0.0968888807351707