/*--------------------------------*- C++ -*----------------------------------*\
  =========                 |
  \\      /  F ield         | OpenFOAM: The Open Source CFD Toolbox
   \\    /   O peration     | Website:  https://openfoam.org
    \\  /    A nd           | Version:  7
     \\/     M anipulation  |
\*---------------------------------------------------------------------------*/
FoamFile
{
    version     2.0;
    format      ascii;
    class       volVectorField;
    location    "30000";
    object      wallShearStress;
}
// * * * * * * * * * * * * * * * * * * * * * * * * * * * * * * * * * * * * * //

dimensions      [0 2 -2 0 0 0 0];

internalField   uniform (0 0 0);

boundaryField
{
    bottomWall
    {
        type            calculated;
        value           nonuniform List<vector> 
140
(
(-0.00253497775238593 5.31048643521763e-05 0)
(-0.00271847291733485 1.46567246208582e-05 0)
(-0.00268479745217871 -1.01897914366886e-05 0)
(-0.00255742305198906 -1.48641932163728e-05 0)
(-0.00242463872005411 -1.13023757620523e-05 0)
(-0.00233001030684814 -6.66808159937376e-06 0)
(-0.00227178283955143 -3.56812017972237e-06 0)
(-0.00223412537148388 -2.06748449687569e-06 0)
(-0.00220763674107692 -1.43285281554084e-06 0)
(-0.00218683795983713 -1.17291518543468e-06 0)
(-0.00216909218809015 -1.03101179717597e-06 0)
(-0.00215361641603742 -9.00350434786217e-07 0)
(-0.00214037900172239 -7.52784423264175e-07 0)
(-0.00212945704820374 -5.95909395008744e-07 0)
(-0.00212079691007969 -4.4646752848196e-07 0)
(-0.00211421213035805 -3.14828607423549e-07 0)
(-0.00210945616311857 -2.03792617466797e-07 -5.06106371139979e-28)
(-0.00210629068903404 -1.10775662778962e-07 5.06638116951172e-28)
(-0.00210451923965298 -3.1749822299542e-08 0)
(-0.00210398632347621 3.30911626485643e-08 -3.260626023231e-25)
(-0.00210451318695918 8.52342382923453e-08 3.25992555872472e-25)
(-0.00210598673389878 1.3153740860713e-07 0)
(-0.00210836659099498 1.78069200411194e-07 -0)
(-0.00211167009920567 2.27872414851717e-07 8.75096901020824e-25)
(-0.00211593551312233 2.80828413448061e-07 -1.91144630807872e-24)
(-0.00212120039442642 3.36264211010799e-07 1.03593164466962e-24)
(-0.00212750927579853 3.9466192640392e-07 -0)
(-0.00213492167232637 4.56994114953934e-07 3.19644992254557e-24)
(-0.00214351840478035 5.24904445929676e-07 -6.81778117521617e-24)
(-0.00215340801745207 6.00059371518587e-07 3.61933702981172e-24)
(-0.00216472166866317 6.83686022060419e-07 4.59603632071186e-24)
(-0.00217761622524851 7.77984614154469e-07 -4.58186494491874e-24)
(-0.00219229621831774 8.86641393268797e-07 3.67010820877325e-18)
(-0.00220902162665024 1.01466023418139e-06 -3.65554427609594e-18)
(-0.00222815341819564 1.16887892777302e-06 7.07899544693249e-24)
(-0.00225011954537087 1.35748825494308e-06 8.0855274026466e-25)
(-0.00227558709755053 1.59492501649803e-06 -7.80384449541002e-24)
(-0.00230523595609686 1.8990762621802e-06 -0)
(-0.00234057085491257 2.30929039411041e-06 -0)
(-0.00238253137995897 2.86627944877064e-06 1.18863223235775e-23)
(-0.00243553325595493 3.70603321495087e-06 -1.17393076309034e-23)
(-0.00249981107657058 4.96910197823811e-06 -0)
(-0.00259311542185315 7.15750655626779e-06 0)
(-0.00270516464169711 1.24847716585004e-05 0)
(-0.0029618811756207 1.63910726483008e-05 -4.66065976071313e-22)
(-0.00303174608458023 5.68251041032568e-05 2.63993198915828e-23)
(-0.00254275557939908 0.000116035507325598 -3.01058471280616e-20)
(-0.00161973869381933 0.0001355621867055 1.17549435082229e-38)
(-0.000611836282023378 9.13274457864728e-05 -2.97574680984434e-23)
(0.000139432617241897 1.02878923531073e-05 3.64430634515645e-23)
(0.00054310218931247 -7.75103708819833e-05 1.04375754295151e-22)
(0.000679569145012443 -0.000133271744629696 -2.76970310637053e-20)
(0.000687208719716561 -0.000164417264656646 1.01705855046069e-23)
(0.000609305472683965 -0.000172548301299562 9.84081522703559e-21)
(0.000502710860890334 -0.000166552552054095 -4.41687561938531e-21)
(0.000406317962628927 -0.000155419250356848 1.46812438313495e-20)
(0.000319442532611048 -0.00013853831671484 -2.35098870164458e-38)
(0.000242634359235812 -0.000121825511684779 2.80180752962905e-20)
(0.000207537136438141 -0.00012232196990666 1.80055419959211e-24)
(0.000220680557206136 -0.000147986212971144 1.83670992315982e-40)
(0.000241398443324309 -0.000148184651030204 1.09311570671666e-33)
(0.000294691341103113 -0.000151720681220884 2.61842653320098e-20)
(0.000352391269293235 -0.00014243093402321 -2.8788871091881e-20)
(0.000293419263528528 -7.5862939416478e-05 5.59951424461258e-19)
(0.000370563892619147 -1.70825320836068e-05 3.81892316119828e-19)
(0.0006372190444885 -2.22835108671353e-05 1.00703660622581e-23)
(0.000807801112497144 -1.59615966558667e-05 -2.10824782119107e-23)
(0.000905223671667009 -1.24085388155293e-05 1.12104603531971e-23)
(0.00096876944465342 -8.78464305444819e-06 -1.87575151568548e-23)
(0.000991710526194183 -5.96480263878315e-06 4.14968109761585e-23)
(0.000987018599341561 -3.21304271231347e-06 -2.28023526419787e-23)
(0.000955992788402811 -1.1572237553423e-06 1.31678147465906e-17)
(0.00090604595499182 7.15579535621191e-07 -1.32028082145529e-17)
(0.000838876343248616 2.24381129226148e-06 -4.01159658884678e-23)
(0.000758835523692991 3.55443460116381e-06 5.30278588690681e-23)
(0.000668375848417839 4.58554672814712e-06 -1.15088382378609e-22)
(0.000570622063072496 5.39735619085562e-06 6.27080698452879e-23)
(0.000467919815002735 5.97426427012989e-06 -7.70228027193368e-23)
(0.000362678947419587 6.35732309374691e-06 3.2496973893034e-18)
(0.00025677939728118 6.56449523048934e-06 7.28232799039156e-18)
(0.000151942453485614 6.68286077910195e-06 1.50584041132789e-20)
(4.94103041465863e-05 6.78213227591817e-06 -4.49914789652916e-18)
(-4.9821413039883e-05 6.6270722127005e-06 -0)
(-0.000144873397091792 6.20814334372841e-06 -0)
(-0.000235112504905976 5.76079437409659e-06 1.1760197904227e-22)
(-0.000320136381945936 5.29894705868478e-06 1.96647965012655e-24)
(-0.000399831083353804 4.84167028575172e-06 4.43889806071178e-17)
(-0.000474189037860705 4.39192761574706e-06 -4.31703105639125e-17)
(-0.000543216724354139 3.95234547668326e-06 -2.18371990791958e-22)
(-0.000606983605056791 3.53271685865614e-06 1.07247340932808e-22)
(-0.000665690211982705 3.14323486652351e-06 -0)
(-0.000719606801462065 2.78416487628129e-06 4.06300286104533e-18)
(-0.000768999032834406 2.45346259207569e-06 4.01818598169651e-18)
(-0.000814126070291565 2.15183887861701e-06 9.68345452332484e-38)
(-0.000855284447034556 1.88270782151239e-06 -0)
(-0.000892801537181584 1.64427539742208e-06 9.88477433769811e-23)
(-0.000926969734209108 1.43133516397385e-06 -9.79374655780012e-23)
(-0.000958058478700677 1.24309135314645e-06 -0)
(-0.000986332210140976 1.07851713067453e-06 0)
(-0.00101205812998006 9.36917627609768e-07 0)
(-0.00103548657429136 8.14540380410266e-07 0)
(-0.00105683428501572 7.08385108358184e-07 0)
(-0.00107630010620174 6.17179081674343e-07 0)
(-0.00109406916474816 5.39616121362208e-07 0)
(-0.00111032052160394 4.75251538828334e-07 0)
(-0.00112522313578775 4.21876069039843e-07 0)
(-0.00113891886574387 3.76865263993374e-07 0)
(-0.00115153215680498 3.39478254450348e-07 0)
(-0.00116317861471608 3.08915713120646e-07 0)
(-0.00117396510885003 2.84780737853248e-07 0)
(-0.00118399530577273 2.66809170001853e-07 0)
(-0.00119336356026459 2.53582848982872e-07 0)
(-0.00120214872468298 2.43909405951713e-07 0)
(-0.00121041918580799 2.37422317917643e-07 0)
(-0.00121823994012453 2.34019504790859e-07 0)
(-0.00122567091211552 2.33408479782137e-07 0)
(-0.00123276958995102 2.35862935839057e-07 0)
(-0.00123959448444336 2.41219389118588e-07 -0)
(-0.00124619600842399 2.48499454346836e-07 1.98766211928522e-23)
(-0.00125261715470165 2.57545814844974e-07 -1.98402622966788e-23)
(-0.00125889844253686 2.68391418933922e-07 -0)
(-0.00126508008693002 2.81167063169369e-07 0)
(-0.00127120129942074 2.9595898097793e-07 0)
(-0.00127730214814801 3.12983122608037e-07 0)
(-0.00128342191411396 3.32307678787114e-07 0)
(-0.00128960311948462 3.53728963647664e-07 0)
(-0.00129587394998961 3.76568705175349e-07 0)
(-0.0013022800224648 4.01310150429207e-07 0)
(-0.00130882091752226 4.26187490418359e-07 -0)
(-0.00131558121656906 4.53286296472329e-07 9.07280030253642e-24)
(-0.00132244545821721 4.74832057143357e-07 -9.04950033885941e-24)
(-0.00132967195641693 5.00480046019159e-07 8.89864096568094e-24)
(-0.00133666145442553 4.96943464550589e-07 -8.87491353329701e-24)
(-0.00134442434712424 5.08670540618674e-07 -0)
(-0.00135038719033252 3.90260163273673e-07 0)
(-0.00135849484365616 3.33120472594092e-07 0)
(-0.00135885244123216 -3.67245511792223e-07 0)
(-0.00136231164396994 -7.22188261515439e-07 -0)
(-0.0013481297561579 -7.51617926151467e-06 1.05236745542243e-24)
(-0.00123047847101926 -9.28262678684287e-06 -1.08454828950975e-24)
)
;
    }
    topWall
    {
        type            calculated;
        value           nonuniform List<vector> 
140
(
(-0.00379175854178714 0.000119477738298131 0)
(-0.0027505419416021 9.34374959646558e-05 -3.41819209452433e-17)
(-0.00205659150839448 4.4940812632108e-05 -3.48464414091011e-17)
(-0.00173036294538508 9.20740263332171e-06 2.98124132744404e-18)
(-0.00169675916790784 -1.26838240334245e-05 0)
(-0.00183227880055547 -2.18508549121711e-05 0)
(-0.00202257941342954 -2.19816956041582e-05 0)
(-0.00219970943861821 -1.74589778908513e-05 0)
(-0.00233143724209426 -1.14609603187677e-05 0)
(-0.00241170054678086 -5.92341813727175e-06 0)
(-0.00244863940977093 -1.69823081316355e-06 4.18096876160772e-17)
(-0.00245441183559684 1.16139503577632e-06 4.14189183712931e-17)
(-0.00243944993936361 2.78255081962367e-06 0)
(-0.00241444114207265 3.34708605751644e-06 0)
(-0.00238668600944739 3.24987873874764e-06 0)
(-0.00236016164621867 2.85851195116965e-06 0)
(-0.00233640224725846 2.41423763865503e-06 -4.10344156764331e-17)
(-0.00231550452546709 2.03328447385409e-06 -4.13163911167628e-17)
(-0.0022969618047509 1.74743743776106e-06 0)
(-0.00228016200579026 1.54693702070158e-06 0)
(-0.00226459253790676 1.40895106001493e-06 0)
(-0.00224989600605444 1.3106419338854e-06 -4.30675463151924e-17)
(-0.00223585375033731 1.23533881912671e-06 -4.36464865403691e-17)
(-0.00222234280923783 1.17298085458807e-06 0)
(-0.0022092916235665 1.11899453431101e-06 0)
(-0.00219664549854484 1.07190175643932e-06 0)
(-0.00218435558339447 1.03085083973863e-06 -4.65516379491607e-17)
(-0.00217237642736966 9.95356278978202e-07 -4.74304222161207e-17)
(-0.00216066615519909 9.64806324818069e-07 0)
(-0.00214918699735922 9.38652207692328e-07 0)
(-0.00213790946967611 9.18465749775515e-07 0)
(-0.00212675483349177 9.05396495665398e-07 0)
(-0.00211565729294916 8.97362367392859e-07 0)
(-0.0021045891703673 8.91135086779142e-07 0)
(-0.00209355612590558 8.83917807107027e-07 0)
(-0.00208257889802725 8.74840579419072e-07 0)
(-0.00207167392705154 8.64817986536469e-07 0)
(-0.00206084554961671 8.55238606023291e-07 0)
(-0.00205008553805055 8.46752204701646e-07 0)
(-0.00203938652425888 8.39217596359803e-07 0)
(-0.00202874075281976 8.32512392434233e-07 0)
(-0.00201814163320178 8.26436277665417e-07 0)
(-0.00200758426002285 8.20944529118851e-07 0)
(-0.00199706299156676 8.16146458513488e-07 0)
(-0.00198657197507806 8.11925815960616e-07 0)
(-0.00197610686397228 8.08086115267784e-07 -7.50280410663734e-17)
(-0.00196566533527973 8.0444504374742e-07 -7.72591765052082e-17)
(-0.00195524651377858 8.008566818645e-07 0)
(-0.00194485128026559 7.97132140294784e-07 0)
(-0.00193448238234014 7.93208378872234e-07 0)
(-0.00192414228463738 7.89197875533692e-07 0)
(-0.00191383295138851 7.85080060038262e-07 0)
(-0.00190355704178133 7.80764728964136e-07 0)
(-0.00189331820018181 7.76172983286891e-07 0)
(-0.00188312088334266 7.71236684236574e-07 0)
(-0.00187297021342954 7.65890359167316e-07 0)
(-0.00186287221572039 7.60068841765692e-07 0)
(-0.00185283338601906 7.53803229183959e-07 0)
(-0.0018428596537678 7.4717214891347e-07 0)
(-0.00183295655393944 7.4017450277198e-07 0)
(-0.0018231298884205 7.32778675505089e-07 0)
(-0.00181338573652855 7.24968374128608e-07 0)
(-0.00180373035721349 7.16733623461717e-07 0)
(-0.00179417002236224 7.08092229298747e-07 0)
(-0.00178471072920568 6.99076204356957e-07 0)
(-0.00177535843319859 6.89826994379101e-07 0)
(-0.00176611549852654 6.80849720200409e-07 0)
(-0.0017569831282142 6.72301790019133e-07 0)
(-0.001747951398161 6.87529876218882e-07 0)
(-0.00173866953888129 7.22683352038926e-07 0)
(-0.00172922829873172 7.42398567776261e-07 0)
(-0.00171978671936734 7.41448814789532e-07 0)
(-0.0017104694144963 7.27805242508989e-07 0)
(-0.00170134093220571 7.09590887293882e-07 0)
(-0.0016924187889573 6.91233063536144e-07 0)
(-0.00168369987196436 6.74040038219183e-07 0)
(-0.0016751777266706 6.57830646108349e-07 0)
(-0.00166684877703217 6.42050917640414e-07 0)
(-0.00165871289934103 6.26286808770327e-07 0)
(-0.00165077196712855 6.10369632491269e-07 0)
(-0.00164302833510568 5.94294420629833e-07 0)
(-0.00163548399289777 5.78123732407732e-07 0)
(-0.00162814028916112 5.61929179631973e-07 0)
(-0.0016209979457246 5.45768684134498e-07 0)
(-0.0016140571532492 5.29685345295858e-07 0)
(-0.001607317654525 5.13712952348374e-07 0)
(-0.00160077878453217 4.97881139636919e-07 1.80823118485208e-17)
(-0.0015944394978395 4.82218257138398e-07 -1.81276776738442e-17)
(-0.00158829835744453 4.66754882475447e-07 0)
(-0.00158235348887284 4.51516292692914e-07 0)
(-0.00157660293021695 4.3658844158499e-07 0)
(-0.0015710428523196 4.22062202164033e-07 0)
(-0.00156566862487204 4.07875663695834e-07 0)
(-0.00156047765177223 3.93799026537137e-07 0)
(-0.00155546982178634 3.79677132831668e-07 0)
(-0.00155064525036553 3.65620173759637e-07 0)
(-0.00154600227883461 3.51816480632281e-07 0)
(-0.00154153756297603 3.38380627349673e-07 2.4308160402917e-16)
(-0.00153724687068464 3.25342891771667e-07 2.46015562915508e-16)
(-0.00153312619729685 3.12782308731898e-07 0)
(-0.00152916915935507 3.00776597317461e-07 0)
(-0.00152536932845526 2.89250530993549e-07 2.54475093439545e-16)
(-0.00152172161015657 2.78066866158433e-07 2.57178811955717e-16)
(-0.00151822241016426 2.67096705775498e-07 0)
(-0.00151486904658785 2.56302458289309e-07 0)
(-0.00151165871414741 2.45727708968715e-07 0)
(-0.00150858824985309 2.35392347292864e-07 0)
(-0.0015056544871297 2.25283473145862e-07 0)
(-0.00150285450399374 2.15372291267072e-07 0)
(-0.00150018573337102 2.05620871942494e-07 0)
(-0.00149764603549575 1.959865357755e-07 0)
(-0.00149523376578802 1.86422220258359e-07 0)
(-0.00149294783523212 1.76876865526097e-07 2.80912141671943e-16)
(-0.0014907877602142 1.67281218464314e-07 2.82948772861189e-16)
(-0.00148875405240085 1.5754228596301e-07 0)
(-0.00148684815779856 1.47609564276496e-07 0)
(-0.00148507203844171 1.37440063664355e-07 0)
(-0.00148342851095823 1.26931048492155e-07 2.90461762820189e-16)
(-0.00148192171519762 1.15958958631326e-07 2.92176903596423e-16)
(-0.00148055726658488 1.0438967148185e-07 0)
(-0.00147934246712164 9.20704576516229e-08 0)
(-0.00147828644605497 7.88190649626734e-08 0)
(-0.00147740085642872 6.43833350212082e-08 2.98335592814103e-16)
(-0.00147670037228111 4.85363836442077e-08 2.9968604023843e-16)
(-0.00147620210798763 3.10137340218697e-08 0)
(-0.00147592746708475 1.17750358008659e-08 0)
(-0.00147589674327582 -7.95980749198621e-09 0)
(-0.00147611561737417 -2.87456094805503e-08 0)
(-0.00147661715742256 -5.3764864297186e-08 0)
(-0.00147746662154219 -8.56104321588782e-08 0)
(-0.00147873720872594 -1.25743653878814e-07 0)
(-0.00148054940976963 -1.76729997690014e-07 0)
(-0.00148298924121968 -2.40755549731807e-07 0)
(-0.00148633930357139 -3.2848236356405e-07 0)
(-0.0014906453004989 -4.42207440435318e-07 0)
(-0.00149690638080987 -6.27627881725626e-07 0)
(-0.00150424696524847 -9.94806821064081e-07 0)
(-0.001521823654124 -1.25662559271502e-06 3.02427043164478e-16)
(-0.00152099609866308 -5.29416281480098e-06 2.95635491768797e-16)
(-0.00166205203658364 -1.05769626987002e-05 0)
)
;
    }
    inlet
    {
        type            calculated;
        value           uniform (0 0 0);
    }
    outlet
    {
        type            calculated;
        value           uniform (0 0 0);
    }
    frontAndBack
    {
        type            empty;
    }
}


// ************************************************************************* //
