3 	0.0039111296779626 	0 	-0.0329073801014268 	8.62305924617875e-05 	3.2988434441769e-21
3 	0.0118766651674914 	1.73472347597681e-18 	-0.0928417301475269 	0.000255941422685962 	3.77226668763299e-21
3 	0.0201340015485761 	5.20417042793042e-18 	-0.143437135969171 	0.000559941273895501 	-4.66919881272504e-21
3 	0.0286938283423949 	5.20417042793042e-18 	-0.179122582530007 	0.000889576297622683 	1.71300422502495e-21
3 	0.0375672266585909 	5.20417042793042e-18 	-0.198094379178882 	0.00113524420141172 	1.37879950093939e-21
3 	0.0467656835403032 	3.46944695195361e-18 	-0.205946248297342 	0.00128946629049706 	-2.98424978921316e-21
3 	0.0563011068347006 	0 	-0.208283213701484 	0.00138472523300157 	-2.53082882584952e-21
3 	0.0661858406082647 	0 	-0.208008261107581 	0.00144367336407549 	-4.51192531136495e-22
3 	0.0764326811267815 	3.46944695195361e-18 	-0.206369225862282 	0.00147722332283682 	8.78553820749853e-23
3 	0.0870548934207257 	6.93889390390723e-18 	-0.203913918579407 	0.00149093109172617 	-5.91156387415748e-22
3 	0.0980662284574838 	3.46944695195361e-18 	-0.200902557313714 	0.0014878725976796 	8.56055559911882e-23
3 	0.109480940942647 	-5.20417042793042e-18 	-0.197467522906218 	0.00146970954075571 	6.91183202029559e-22
3 	0.121313807773416 	-1.73472347597681e-18 	-0.19367862679277 	0.00143721386557768 	7.29298200322095e-22
3 	0.13358014716801 	3.46944695195361e-18 	-0.189572163730722 	0.00139055963957966 	8.18197232280777e-22
3 	0.146295838495838 	-3.46944695195361e-18 	-0.18516492744362 	0.00132947936646974 	3.43342267366035e-22
3 	0.159477342834115 	-1.38777878078145e-17 	-0.18046143595639 	0.00125334212148449 	2.82095914115281e-22
3 	0.173141724277517 	-2.42861286636753e-17 	-0.175457850801849 	0.00116118932738908 	7.2234838044061e-22
3 	0.18730667202848 	-2.42861286636753e-17 	-0.170144172414602 	0.00105174393838705 	-6.16639226073996e-22
3 	0.201990523296728 	-1.38777878078145e-17 	-0.164505477370193 	0.000923403513871802 	-5.99160214945066e-22
3 	0.217212287037676 	-1.04083408558608e-17 	-0.158522591990596 	0.000774219942093295 	5.52088510718589e-22
3 	0.232991668560441 	-2.08166817117217e-17 	-0.152172410472673 	0.000601868121341401 	1.15604229988212e-22
3 	0.249349095037321 	-2.08166817117217e-17 	-0.145427960275614 	0.000403604121337968 	4.61927475980559e-22
3 	0.266305741947753 	-1.38777878078145e-17 	-0.138258296559936 	0.000176213950102121 	5.48587156559598e-22
3 	0.283883560490998 	-1.38777878078145e-17 	-0.130628275114549 	-8.40460894436385e-05 	-1.19381548984559e-22
3 	0.30210530600303 	-1.73472347597681e-17 	-0.1224981914728 	-0.000381517996056373 	-1.04421089307045e-21
3 	0.320994567414413 	-2.42861286636753e-17 	-0.113823278229217 	-0.000721219086278628 	-2.4645478028667e-22
3 	0.34057579778732 	-3.12250225675825e-17 	-0.10455305840589 	-0.00110892649168973 	0
3 	0.3608743459712 	-3.46944695195361e-17 	-0.0946305243466668 	-0.00155126669752616 	-1.29564142434294e-17
3 	0.38191648941809 	-3.81639164714898e-17 	-0.0839911002923888 	-0.00205580387012495 	-3.00953045793418e-17
3 	0.403729468200046 	-4.5102810375397e-17 	-0.072561368155089 	-0.00263112315611452 	1.53363231892553e-17
3 	0.426341520272733 	-5.20417042793042e-17 	-0.0602575125191791 	-0.00328689547255981 	-1.05133493765848e-17
3 	0.449781918030828 	-5.89805981832114e-17 	-0.0469833903768529 	-0.00403391348904895 	2.46143732767895e-17
3 	0.474081006202548 	-6.24500451351651e-17 	-0.0326281329469668 	-0.0048841008514097 	1.60830727278459e-17
3 	0.496091159820835 	-6.59194920871187e-17 	-0.0190720797763542 	-0.00572309850944526 	1.29225253375995e-21
3 	0.508912316744007 	-7.28583859910259e-17 	-0.010972804707085 	-0.00623674439756026 	1.39674277010197e-21
3 	0.525382231502762 	-6.93889390390723e-17 	-0.00015574204827675 	-0.00694552778430775 	-3.28448675336929e-23
3 	0.552450780547767 	-6.24500451351651e-17 	0.0182749093018106 	-0.00818193972296017 	-9.50241364672873e-22
3 	0.580510929812849 	-5.55111512312578e-17 	0.0384840776739718 	-0.00957569348694297 	1.18143481969553e-21
3 	0.60959900451791 	-3.81639164714898e-17 	0.0609766912319383 	-0.0111604085411171 	-1.39204716621411e-22
3 	0.639752660582032 	-3.46944695195361e-17 	0.0866586346499079 	-0.0129909050155139 	-1.89334921232007e-21
3 	0.671010933370886 	-4.16333634234434e-17 	0.116559279946079 	-0.0151239427730549 	-1.54312239982606e-21
3 	0.7034142882299 	-3.81639164714898e-17 	0.151341490174472 	-0.0175621247807949 	1.10136587931281e-21
3 	0.737004672868605 	-2.42861286636753e-17 	0.191190868321991 	-0.0202471552323396 	-3.91882682591984e-21
3 	0.771825571663975 	-2.08166817117217e-17 	0.235887184288221 	-0.023077290017762 	-6.83586276674371e-21
3 	0.807922061953053 	-2.08166817117217e-17 	0.284876217860428 	-0.0259300321747888 	2.68760708090619e-21
3 	0.845340872387742 	-1.04083408558608e-17 	0.337358024247185 	-0.0286878032154283 	5.36511463907754e-21
3 	0.884130443427308 	-3.46944695195361e-18 	0.392405585075346 	-0.0312529969192271 	-2.98905924256839e-17
3 	0.924340990046896 	0 	0.449076266486959 	-0.0335461840340303 	-1.25645926745436e-16
3 	0.966024566743241 	0 	0.506452714853151 	-0.0354938213686049 	1.29823384644088e-16
3 	1.00923513492173 	0 	0.563587695001843 	-0.0370186715066248 	2.14417031863908e-17
3 	1.05402863275205 	0 	0.619395291410357 	-0.0380452479630914 	-7.98580401710983e-24
3 	1.10046304758287 	0 	0.672590161448373 	-0.0385256726797099 	-9.54804717206153e-21
3 	1.14859849100923 	0 	0.72183348069593 	-0.0384599855599657 	-1.04124513388301e-20
3 	1.19849727668994 	1.04083408558608e-17 	0.766301359126858 	-0.037868280714906 	-2.10933518201875e-20
3 	1.25022400101563 	1.73472347597681e-17 	0.805711854755861 	-0.0369304777168643 	-4.64930449778604e-22
3 	1.30384562673185 	1.73472347597681e-17 	0.840020791688566 	-0.0358286904432821 	-2.15580728862851e-20
3 	1.35943156962565 	1.98408997564847e-17 	0.869706509495748 	-0.0347609307957387 	-2.13116991120348e-20
3 	1.41705378838762 	1.76724954115137e-17 	0.895650579235661 	-0.0337880671511796 	-6.3026418068844e-18
3 	1.47678687776592 	1.34441069388203e-17 	0.918978771331708 	-0.0328934628879364 	-1.78741719786855e-17
3 	1.53870816513277 	1.12757025938492e-17 	0.940559175667749 	-0.0320303217597278 	1.39593934451845e-20
3 	1.60289781058851 	1.30104260698261e-17 	0.960912202280869 	-0.0311483044990681 	1.30657053652976e-20
3 	1.66943891073266 	1.21430643318376e-17 	0.98029223556552 	-0.030205111911274 	-1.4328742759453e-21
3 	1.73841760623657 	1.21430643318376e-17 	0.998787885354987 	-0.0291687493304309 	-3.62482395961165e-21
3 	1.80992319335659 	1.56125112837913e-17 	1.01639213951743 	-0.0280190719985722 	-4.26574851440051e-21
3 	1.88404823953248 	1.21430643318376e-17 	1.03302903514079 	-0.0267460553485929 	-7.31674924343295e-21
3 	1.96088870322037 	6.93889390390723e-18 	1.04798999989522 	-0.0254095149797777 	-8.45013467412512e-21
3 	2.02025965173184 	6.93889390390723e-18 	1.05882642589094 	-0.0243095573562901 	-2.87234707634976e-21
3 	2.06006301192217 	6.93889390390723e-18 	1.06611806959338 	-0.0234808899960854 	0
3 	2.09845978584128 	6.93889390390723e-18 	1.07217776446952 	-0.0227274578855649 	0
3 	2.13549967996945 	6.93889390390723e-18 	1.07761700833033 	-0.0219950684686563 	0
3 	2.17123064424048 	6.93889390390723e-18 	1.08248342153343 	-0.0212821185390064 	0
3 	2.20569893411515 	6.93889390390723e-18 	1.08682009235366 	-0.0205895775686302 	0
3 	2.23894917046122 	6.93889390390723e-18 	1.09066564614193 	-0.019918083038051 	0
3 	2.27102439731725 	3.46944695195361e-18 	1.09405439198896 	-0.0192678245756953 	0
3 	2.30196613761521 	3.46944695195361e-18 	1.09701651818894 	-0.0186387249501994 	0
3 	2.33181444693391 	6.93889390390723e-18 	1.099578309449 	-0.0180305164218462 	0
3 	2.3606079653529 	6.93889390390723e-18 	1.10176236710546 	-0.0174427814176391 	0
3 	2.3883839674739 	6.93889390390723e-18 	1.10358782093624 	-0.0168749887250051 	0
3 	2.41517841067461 	1.04083408558608e-17 	1.10507052667573 	-0.0163265246211181 	0
3 	2.44102598165722 	1.38777878078145e-17 	1.1062232473639 	-0.0157967182557068 	0
3 	2.46596014135207 	1.38777878078145e-17 	1.10705581953014 	-0.0152848621781268 	0
3 	2.49001316823443 	1.73472347597681e-17 	1.10757530726807 	-0.0147902288827445 	-1.3167684150247e-16
3 	2.51321620011054 	2.08166817117217e-17 	1.10778614876058 	-0.014312084026134 	-4.91067989252047e-16
3 	2.535599274427 	2.42861286636753e-17 	1.10769030090029 	-0.0138496968414575 	5.13707095226705e-16
3 	2.55719136715571 	2.42861286636753e-17 	1.10728738833164 	-0.0134023481763512 	1.35547503029696e-16
3 	2.57802043030465 	2.08166817117217e-17 	1.10657486342306 	-0.0129693364828041 	0
3 	2.59811342810315 	2.08166817117217e-17 	1.10554818317973 	-0.0125499819909879 	0
3 	2.61749637190832 	2.08166817117217e-17 	1.10420100769741 	-0.0121436292076252 	0
3 	2.63619435387806 	1.73472347597681e-17 	1.10252542220351 	-0.0117496477987169 	0
3 	2.65423157945406 	1.04083408558608e-17 	1.10051218088017 	-0.0113674318543196 	0
3 	2.67163139869691 	6.93889390390723e-18 	1.09815096554112 	-0.010996397499528 	0
3 	2.68841633651388 	1.04083408558608e-17 	1.09543064614345 	-0.0106359788211448 	0
3 	2.7046081218185 	1.38777878078145e-17 	1.09233952370752 	-0.0102856221316841 	0
3 	2.72022771565972 	1.38777878078145e-17 	1.0888655304791 	-0.00994477869384384 	0
3 	2.73529533835694 	1.38777878078145e-17 	1.08499635829437 	-0.00961289617343324 	0
3 	2.74983049567625 	1.38777878078145e-17 	1.08071948525468 	-0.00928940926096685 	0
3 	2.76385200408156 	1.38777878078145e-17 	1.07602207377704 	-0.00897373007700022 	0
3 	2.77737801509343 	1.04083408558608e-17 	1.07089071998675 	-0.00866523912468644 	0
3 	2.79042603878708 	6.93889390390723e-18 	1.06531104457899 	-0.00836327764850951 	0
3 	2.80301296646003 	1.04083408558608e-17 	1.05926712729087 	-0.00806714228417686 	0
3 	2.81515509249872 	1.38777878078145e-17 	1.05274079919024 	-0.00777608283886836 	0
3 	2.82686813547237 	1.38777878078145e-17 	1.04571081735006 	-0.00748930393131341 	0
3 	2.83816725848142 	1.04083408558608e-17 	1.03815195384026 	-0.00720597105658662 	0
3 	2.84906708878691 	6.93889390390723e-18 	1.0300340346708 	-0.0069252214566941 	0
3 	2.85958173674616 	6.93889390390723e-18 	1.02132096421815 	-0.00664618010104445 	0
3 	2.86972481407933 	3.46944695195361e-18 	1.01196976682275 	-0.00636798095180174 	0
3 	2.87950945149043 	0 	1.00192966961993 	-0.00608979165832322 	0
3 	2.88894831566566 	0 	0.991141239185723 	-0.00581083632237356 	0
3 	2.89805362567106 	3.46944695195361e-18 	0.979535570354085 	-0.00553042942382203 	0
3 	2.90683716877067 	1.04083408558608e-17 	0.967033426640286 	-0.00524814898190906 	0
3 	2.91531031568569 	1.38777878078145e-17 	0.953529399385113 	-0.00496346132956303 	0
3 	2.92348403531448 	1.38777878078145e-17 	0.938840244027676 	-0.0046742475923214 	0
3 	2.93136890893229 	1.38777878078145e-17 	0.922725270832693 	-0.00437785848151184 	0
3 	2.93897514388925 	1.38777878078145e-17 	0.904965488730748 	-0.00407284960079198 	0
3 	2.94631258682425 	1.38777878078145e-17 	0.88536831921312 	-0.00375966826493043 	0
3 	2.95339073641193 	1.73472347597681e-17 	0.863749986371502 	-0.00344015299489973 	0
3 	2.96021875565915 	2.08166817117217e-17 	0.839918545315046 	-0.0031168827635337 	0
3 	2.96680548376697 	1.73472347597681e-17 	0.813657168690066 	-0.00279291650768107 	0
3 	2.97315944757337 	1.38777878078145e-17 	0.784704883467838 	-0.00247162525005622 	0
3 	2.97928887259171 	1.38777878078145e-17 	0.752732338660948 	-0.00215652484064816 	0
3 	2.98520169365902 	1.73472347597681e-17 	0.71730979702467 	-0.00185114157325066 	0
3 	2.99090556520806 	2.08166817117217e-17 	0.677860983365742 	-0.00155890591975172 	0
3 	2.99640787117633 	2.42861286636753e-17 	0.633606966557745 	-0.00128300399290386 	0
3 	3.00171573456492 	2.77555756156289e-17 	0.583543197438588 	-0.00102659870991329 	0
3 	3.00683602665962 	2.77555756156289e-17 	0.526387568632938 	-0.000792773105188244 	0
3 	3.01177537592612 	2.77555756156289e-17 	0.46048343297964 	-0.000583245085602429 	0
3 	3.01654017659085 	2.77555756156289e-17 	0.384547242805947 	-0.000399526178709576 	0
3 	3.02113659691864 	2.42861286636753e-17 	0.299954997016058 	-0.000245386470579315 	0
3 	3.02557058719784 	2.08166817117217e-17 	0.211579193812518 	-0.000127179766733875 	0
3 	3.02984788744324 	2.42861286636753e-17 	0.124478092881905 	-4.88507174802903e-05 	0
