3 	0.0039111296779626 	0 	0.100469202307651 	9.93684509197578e-06 	848.307428752231 	2.56840459152949e-06 	2.67408882351045e-38
3 	0.0118766651674914 	1.73472347597681e-18 	0.1004717045413 	0.00012053850912187 	234.510335558583 	4.8540968529999e-05 	0
3 	0.0201340015485761 	5.20417042793042e-18 	0.100474201936911 	0.00062802268154935 	62.3893625006185 	0.000295988009430936 	0
3 	0.0286938283423949 	5.20417042793042e-18 	0.100473217289206 	0.00179100733193063 	27.0666464131305 	0.000614272966511802 	0
3 	0.0375672266585909 	5.20417042793042e-18 	0.100469470769487 	0.00335326992133696 	14.8082488628708 	0.000461801051576937 	0
3 	0.0467656835403032 	3.46944695195361e-18 	0.100463853865203 	0.00492073414808837 	9.52275250181115 	0.000160294400575834 	0
3 	0.0563011068347006 	0 	0.100455900267654 	0.00634204854505067 	6.90470021569153 	2.47241350403412e-05 	0
3 	0.0661858406082647 	0 	0.100444924410496 	0.0076130224255684 	5.43156397963833 	2.08046168023761e-05 	0
3 	0.0764326811267815 	3.46944695195361e-18 	0.100430729337134 	0.00876442041731342 	4.51035537271359 	7.57647776595609e-05 	0
3 	0.0870548934207257 	6.93889390390723e-18 	0.100413380574112 	0.00982558926735345 	3.88706029808961 	0.00015523554740687 	0
3 	0.0980662284574838 	3.46944695195361e-18 	0.100392965193727 	0.0108187956768638 	3.44045964999867 	0.000246107273673401 	0
3 	0.109480940942647 	-5.20417042793042e-18 	0.100369542556385 	0.0117603228205992 	3.10675869621532 	0.000343479983721463 	0
3 	0.121313807773416 	-1.73472347597681e-18 	0.100343156709212 	0.0126621967721331 	2.84956269408807 	0.000445620607423828 	0
3 	0.13358014716801 	3.46944695195361e-18 	0.100313845861588 	0.0135335023765001 	2.64671593701921 	0.000552112036301816 	0
3 	0.146295838495838 	-3.46944695195361e-18 	0.100281645889937 	0.014381277522719 	2.48400779635066 	0.0006631374745011 	0
3 	0.159477342834115 	-1.38777878078145e-17 	0.100246592591767 	0.0152111144650176 	2.35193020812333 	0.000779186892192617 	0
3 	0.173141724277517 	-2.42861286636753e-17 	0.100208726681475 	0.0160275728805406 	2.24389939838762 	0.000900932514968054 	0
3 	0.18730667202848 	-2.42861286636753e-17 	0.10016810101752 	0.0168344548036194 	2.15522795917208 	0.00102917729107314 	0
3 	0.201990523296728 	-1.38777878078145e-17 	0.100124787301279 	0.0176349985536788 	2.0825037301617 	0.00116483775493578 	0
3 	0.217212287037676 	-1.04083408558608e-17 	0.100078883667213 	0.0184320206909425 	2.02320026064208 	0.00130894472859153 	0
3 	0.232991668560441 	-2.08166817117217e-17 	0.100030523989666 	0.0192280052973973 	1.97542479297615 	0.0014626563352574 	0
3 	0.249349095037321 	-2.08166817117217e-17 	0.0999798885613804 	0.0200251108248356 	1.937751001153 	0.0016272725427446 	0
3 	0.266305741947753 	-1.38777878078145e-17 	0.0999272162966576 	0.0208253467085732 	1.90910602837156 	0.00180426065132756 	0
3 	0.283883560490998 	-1.38777878078145e-17 	0.0998728205016967 	0.0216306762785369 	1.88869343243177 	0.00199528452695417 	0
3 	0.30210530600303 	-1.73472347597681e-17 	0.0998171092796691 	0.0224430101917016 	1.87594055710374 	0.00220224043583005 	0
3 	0.320994567414413 	-2.42861286636753e-17 	0.0997606098271193 	0.0232642496607777 	1.87046334005827 	0.00242730527997362 	0
3 	0.34057579778732 	-3.12250225675825e-17 	0.0997039975225764 	0.0240963462724215 	1.87204424028774 	0.00267299680504396 	0
3 	0.3608743459712 	-3.46944695195361e-17 	0.0996481341823958 	0.0249413139004952 	1.88062062331323 	0.00294224577353533 	0
3 	0.38191648941809 	-3.81639164714898e-17 	0.0995941193840567 	0.0258012671986359 	1.89628209754083 	0.00323848131248795 	0
3 	0.403729468200046 	-4.5102810375397e-17 	0.0995433475797396 	0.0266785967436599 	1.91927606886357 	0.00356573796193009 	0
3 	0.426341520272733 	-5.20417042793042e-17 	0.0994975715145382 	0.0275761118135463 	1.95002133521188 	0.00392878235386685 	0
3 	0.449781918030828 	-5.89805981832114e-17 	0.0994589753137254 	0.028497121349416 	1.98912995394946 	0.00433326445455051 	0
3 	0.474081006202548 	-6.24500451351651e-17 	0.0994302271486365 	0.029445567095387 	2.03743774003992 	0.00478588622905244 	0
3 	0.496091159820835 	-6.59194920871187e-17 	0.0994155595591699 	0.0303024870936268 	2.08810082872775 	0.00522776853486609 	0
3 	0.508912316744007 	-7.28583859910259e-17 	0.0994113813407864 	0.0308013906474912 	2.12011245673876 	0.00549703207171825 	0
3 	0.525382231502762 	-6.93889390390723e-17 	0.0994159008661048 	0.0314440026834495 	2.16620885810426 	0.00586764292004884 	0
3 	0.552450780547767 	-6.24500451351651e-17 	0.0994415183901557 	0.0325051942330385 	2.24974187182604 	0.00653311832557701 	0
3 	0.580510929812849 	-5.55111512312578e-17 	0.0994979588408776 	0.0336190344060577 	2.34900447075359 	0.00736449219782371 	0
3 	0.60959900451791 	-3.81639164714898e-17 	0.0995860337359387 	0.0348032204248011 	2.46733015981948 	0.00844923329307479 	0
3 	0.639752660582032 	-3.46944695195361e-17 	0.0997135767449268 	0.0360812733030395 	2.60814840649684 	0.00982673936588141 	0
3 	0.671010933370886 	-4.16333634234434e-17 	0.0998990757107025 	0.0374555275231264 	2.77019304232251 	0.0115007838894013 	0
3 	0.7034142882299 	-3.81639164714898e-17 	0.100153908075173 	0.0388751548091758 	2.94271691281499 	0.0133342393737185 	0
3 	0.737004672868605 	-2.42861286636753e-17 	0.100482434094727 	0.0402449140592534 	3.10894795177192 	0.0151354591586053 	0
3 	0.771825571663975 	-2.08166817117217e-17 	0.10088226360157 	0.0414528128547816 	3.25423849023031 	0.0167287924505596 	0
3 	0.807922061953053 	-2.08166817117217e-17 	0.101342852868203 	0.0423897822687025 	3.36952920125916 	0.0179685740931218 	0
3 	0.845340872387742 	-1.04083408558608e-17 	0.101850188756664 	0.0429598583689514 	3.44971635712533 	0.0187547105624853 	0
3 	0.884130443427308 	-3.46944695195361e-18 	0.102394022960611 	0.0430864916928946 	3.49146584418962 	0.0190397491264547 	0
3 	0.924340990046896 	0 	0.102972568927933 	0.0427162965694612 	3.49175310517559 	0.0188149040677355 	0
3 	0.966024566743241 	0 	0.103592695189102 	0.0418220980143287 	3.44683210430142 	0.0180813722242764 	0
3 	1.00923513492173 	0 	0.104266930268903 	0.0404111642072112 	3.35203543809955 	0.0168338774119595 	0
3 	1.05402863275205 	0 	0.10500885983995 	0.0385426696344258 	3.20324903241808 	0.015083362719922 	0
3 	1.10046304758287 	0 	0.105827403038501 	0.0363480821914676 	3.00073359809658 	0.0129228282638895 	0
3 	1.14859849100923 	0 	0.106733020640764 	0.0340351771285649 	2.75587893281251 	0.0105955603808837 	0
3 	1.19849727668994 	1.04083408558608e-17 	0.107764493282073 	0.0318180737903257 	2.48881720528216 	0.00828113498454347 	0
3 	1.25022400101563 	1.73472347597681e-17 	0.108869683768313 	0.029864395674125 	2.21883882189725 	0.00621894089898224 	0
3 	1.30384562673185 	1.73472347597681e-17 	0.109958849240708 	0.0282710142325366 	1.96562309828557 	0.0046103628949564 	0
3 	1.35943156962565 	1.98408997564847e-17 	0.11103279876312 	0.0270297206239982 	1.7414692584377 	0.0034674531719962 	0
3 	1.41705378838762 	1.76724954115137e-17 	0.112098135640314 	0.0260606933735575 	1.55383159657233 	0.00272283165595353 	0
3 	1.47678687776592 	1.34441069388203e-17 	0.113159936442624 	0.0252468742982418 	1.40471879096815 	0.00224339949013884 	0
3 	1.53870816513277 	1.12757025938492e-17 	0.11421989811782 	0.0244779104253955 	1.28535170727051 	0.00192115077339821 	0
3 	1.60289781058851 	1.30104260698261e-17 	0.115278223255044 	0.0236635531678283 	1.18340300943825 	0.00168368467859727 	0
3 	1.66943891073266 	1.21430643318376e-17 	0.11633415209222 	0.0227441276410656 	1.09153672099941 	0.00148556100844472 	0
3 	1.73841760623657 	1.21430643318376e-17 	0.1173832501653 	0.0216944313209512 	1.00801659077899 	0.0013013861024414 	0
3 	1.80992319335659 	1.56125112837913e-17 	0.118418625383764 	0.0205144899958602 	0.932362467498718 	0.00111973624947773 	0
3 	1.88404823953248 	1.21430643318376e-17 	0.119433323698925 	0.0192207870200977 	0.863835835215626 	0.000938162887923682 	0
3 	1.96088870322037 	6.93889390390723e-18 	0.120374576569767 	0.0178962218131122 	0.80439108225581 	0.000766348510414382 	0
3 	2.02025965173184 	6.93889390390723e-18 	0.121087301146691 	0.0168169509785272 	0.762884267515455 	0.000633806271794071 	0
3 	2.06006301192217 	6.93889390390723e-18 	0.121580081704186 	0.0160305941951301 	0.735970408992249 	0.000544915345255734 	0
3 	2.09845978584128 	6.93889390390723e-18 	0.121995235812763 	0.0153377934127708 	0.714628142605258 	0.000469922129759908 	0
3 	2.13549967996945 	6.93889390390723e-18 	0.12238122363791 	0.0146815635489125 	0.696534636067451 	0.000401773901617658 	0
3 	2.17123064424048 	6.93889390390723e-18 	0.12273710735586 	0.0140621832139602 	0.681545934211409 	0.000340625971008183 	0
3 	2.20569893411515 	6.93889390390723e-18 	0.123064453294428 	0.0134792410528295 	0.669536304760069 	0.000286046796346799 	0
3 	2.23894917046122 	6.93889390390723e-18 	0.123365366370068 	0.0129318308032536 	0.660400679366773 	0.000237634284660207 	0
3 	2.27102439731725 	3.46944695195361e-18 	0.123641758216467 	0.0124187105093626 	0.654057266288931 	0.000194983722272149 	0
3 	2.30196613761521 	3.46944695195361e-18 	0.123895401090908 	0.0119384323053835 	0.650449880499241 	0.000157707461051108 	0
3 	2.33181444693391 	6.93889390390723e-18 	0.124127975202856 	0.0114894453990513 	0.649549835555157 	0.000125454310990071 	0
3 	2.3606079653529 	6.93889390390723e-18 	0.124341070996701 	0.0110701752119179 	0.651357446249044 	9.79212120669165e-05 	0
3 	2.3883839674739 	6.93889390390723e-18 	0.124536188901911 	0.0106790821691214 	0.655903269988203 	7.48605415159107e-05 	0
3 	2.41517841067461 	1.04083408558608e-17 	0.124714741582414 	0.0103147036521451 	0.663249216131609 	5.60850640807712e-05 	0
3 	2.44102598165722 	1.38777878078145e-17 	0.12487805658067 	0.00997568232801554 	0.673489622943571 	4.14713390861904e-05 	0
3 	2.46596014135207 	1.38777878078145e-17 	0.125027378844853 	0.0096607836143178 	0.686752363899405 	3.09620708401697e-05 	0
3 	2.49001316823443 	1.73472347597681e-17 	0.125163873172867 	0.00936890452493172 	0.703200007416002 	2.45676797561032e-05 	0
3 	2.51321620011054 	2.08166817117217e-17 	0.125288626570534 	0.00909907563168576 	0.723031020400918 	2.2367176597558e-05 	0
3 	2.535599274427 	2.42861286636753e-17 	0.125402650505248 	0.00885045741729114 	0.746480978834035 	2.45082637311933e-05 	0
3 	2.55719136715571 	2.42861286636753e-17 	0.125506883060736 	0.00862233191497357 	0.77382373095479 	3.12064708408947e-05 	0
3 	2.57802043030465 	2.08166817117217e-17 	0.125602191025872 	0.00841409025111251 	0.805372455029774 	4.27430653752785e-05 	0
3 	2.59811342810315 	2.08166817117217e-17 	0.125689371973228 	0.00822521654493232 	0.841480570452022 	5.94614776465897e-05 	0
3 	2.61749637190832 	2.08166817117217e-17 	0.12576915639997 	0.00805526858569258 	0.88254250594504 	8.17620715515269e-05 	0
3 	2.63619435387806 	1.73472347597681e-17 	0.125842210012979 	0.00790385580784932 	0.92899441018851 	0.000110095299172156 	0
3 	2.65423157945406 	1.04083408558608e-17 	0.125909136239635 	0.00777061531066425 	0.981315014770784 	0.00014495361639306 	0
3 	2.67163139869691 	6.93889390390723e-18 	0.125970479034477 	0.00765518699311184 	1.04002702862022 	0.000186863000620508 	0
3 	2.68841633651388 	1.04083408558608e-17 	0.126026726029637 	0.00755718924378154 	1.10569965002799 	0.000236375460123196 	0
3 	2.7046081218185 	1.38777878078145e-17 	0.126078312044961 	0.00747619695721805 	1.1789530085341 	0.000294064476189184 	0
3 	2.72022771565972 	1.38777878078145e-17 	0.12612562293504 	0.00741172384112906 	1.26046556354412 	0.000360525757754714 	0
3 	2.73529533835694 	1.38777878078145e-17 	0.12616899970981 	0.00736321093020304 	1.350985649963 	0.000436385883504427 	0
3 	2.74983049567625 	1.38777878078145e-17 	0.126208742828815 	0.00733002285587711 	1.45134843320043 	0.000522321251593825 	0
3 	2.76385200408156 	1.38777878078145e-17 	0.126245116542876 	0.00731145271806858 	1.56249948794595 	0.000619089208221051 	0
3 	2.77737801509343 	1.04083408558608e-17 	0.126278353145625 	0.00730673542244662 	1.68552604232217 	0.00072757232995401 	0
3 	2.79042603878708 	6.93889390390723e-18 	0.12630865700376 	0.00731506821939793 	1.82169665823457 	0.000848835725914872 	0
3 	2.80301296646003 	1.04083408558608e-17 	0.126336208258342 	0.00733563609280347 	1.97250980767991 	0.00098419608932428 	0
3 	2.81515509249872 	1.38777878078145e-17 	0.126361166126807 	0.00736763878777658 	2.13975153264065 	0.00113530023403841 	0
3 	2.82686813547237 	1.38777878078145e-17 	0.126383671783286 	0.00741031578419288 	2.32556223057861 	0.00130421009370661 	0
3 	2.83816725848142 	1.04083408558608e-17 	0.126403850847022 	0.00746296549217417 	2.53251267692097 	0.00149349062344444 	0
3 	2.84906708878691 	6.93889390390723e-18 	0.126421815535246 	0.00752495536904781 	2.76368977642285 	0.0017062966220772 	0
3 	2.85958173674616 	6.93889390390723e-18 	0.126437666502636 	0.00759572049569887 	3.02279335415521 	0.00194645406208881 	0
3 	2.86972481407933 	3.46944695195361e-18 	0.126451494536791 	0.00767474937352153 	3.3142467442222 	0.00221853102748649 	0
3 	2.87950945149043 	0 	0.126463383213813 	0.0077615573375311 	3.64332628567676 	0.00252789288481074 	0
3 	2.88894831566566 	0 	0.12647341286645 	0.00785565013196199 	4.01631845811514 	0.00288073551824982 	0
3 	2.89805362567106 	3.46944695195361e-18 	0.126481653679091 	0.00795648305153242 	4.44071879359158 	0.00328411232360007 	0
3 	2.90683716877067 	1.04083408558608e-17 	0.126488127112649 	0.00806342378081343 	4.92549419569836 	0.00375055500337345 	0
3 	2.91531031568569 	1.38777878078145e-17 	0.126492910155617 	0.00817562469589994 	5.48190859588348 	0.004303109847801 	0
3 	2.92348403531448 	1.38777878078145e-17 	0.126496340759044 	0.00829168119208441 	6.12547343957272 	0.00495206249934419 	0
3 	2.93136890893229 	1.38777878078145e-17 	0.126498607669049 	0.00840925871293282 	6.87487475652663 	0.00572577239708485 	0
3 	2.93897514388925 	1.38777878078145e-17 	0.126499515714091 	0.00852352124058474 	7.74844183010152 	0.00663335684548248 	0
3 	2.94631258682425 	1.38777878078145e-17 	0.126498923264762 	0.00862691560812229 	8.7641987739691 	0.00767668238691921 	0
3 	2.95339073641193 	1.73472347597681e-17 	0.126496866024636 	0.0087093991186955 	9.94240844937223 	0.00885670123042403 	0
3 	2.96021875565915 	2.08166817117217e-17 	0.126493450634494 	0.00875853782087831 	11.3080600004166 	0.0101727153257763 	0
3 	2.96680548376697 	1.73472347597681e-17 	0.126488815808297 	0.00875938916042007 	12.8927143154287 	0.0116201049000546 	0
3 	2.97315944757337 	1.38777878078145e-17 	0.126483133602745 	0.00869414582091121 	14.7397123764862 	0.0131870691072009 	0
3 	2.97928887259171 	1.38777878078145e-17 	0.126476612588638 	0.0085414281695028 	16.9129016422414 	0.0148488823250364 	0
3 	2.98520169365902 	1.73472347597681e-17 	0.126469491341831 	0.00827520990028904 	19.5085837015895 	0.0165578535002906 	0
3 	2.99090556520806 	2.08166817117217e-17 	0.126462032498113 	0.00786336336210025 	22.675397310279 	0.0182145887703119 	0
3 	2.99640787117633 	2.42861286636753e-17 	0.126454538176466 	0.00726683436964875 	26.6513267157414 	0.0196130316222975 	0
3 	3.00171573456492 	2.77555756156289e-17 	0.126447333870332 	0.00644283189575735 	31.8435198222348 	0.0204168232620191 	0
3 	3.00683602665962 	2.77555756156289e-17 	0.126440739597369 	0.0053527780438875 	39.0357434667031 	0.0199584856257181 	0
3 	3.01177537592612 	2.77555756156289e-17 	0.126435144792683 	0.00399256557429026 	49.9890953141945 	0.0169903210621663 	0
3 	3.01654017659085 	2.77555756156289e-17 	0.126430873968794 	0.0024934763344019 	69.502628280639 	0.0110347052577146 	0
3 	3.02113659691864 	2.42861286636753e-17 	0.126427907253615 	0.00119454965873338 	113.858184556164 	0.00470023417477729 	0
3 	3.02557058719784 	2.08166817117217e-17 	0.126425824210106 	0.000400762152127751 	255.258882241807 	0.00114179758954304 	0
3 	3.02984788744324 	2.42861286636753e-17 	0.126424113740036 	8.32350101195104e-05 	1055.45822899405 	0.000134754481223979 	0
