3 	0.00391112967796273 	0 	-0.0434694205208716 	0.000104053500606719 	-1.22622428534204e-17
3 	0.0118766651674916 	-6.93889390390723e-18 	-0.122061134039713 	0.000138242086833837 	-6.69112533709542e-17
3 	0.0201340015485762 	-1.38777878078145e-17 	-0.182575214960442 	0.000151971866007329 	-5.37705721734161e-17
3 	0.028693828342395 	-1.73472347597681e-17 	-0.219176229745948 	0.000142092622335388 	2.16841841805288e-22
3 	0.0375672266585909 	-1.73472347597681e-17 	-0.235548883469659 	4.48305119134882e-05 	4.88610739074769e-22
3 	0.0467656835403032 	-1.73472347597681e-17 	-0.241170291669477 	-0.000117299497563754 	1.70830183267383e-21
3 	0.0563011068347005 	-2.42861286636753e-17 	-0.242191579406413 	-0.000320421145741211 	5.20061416457678e-22
3 	0.0661858406082648 	-2.08166817117217e-17 	-0.241124225523168 	-0.000553661691948441 	-9.3301560068025e-22
3 	0.0764326811267816 	-2.08166817117217e-17 	-0.23894397573605 	-0.000811571795601493 	-5.75046696232838e-22
3 	0.0870548934207258 	-2.77555756156289e-17 	-0.236071424879486 	-0.0010911399766628 	-2.82184679761999e-22
3 	0.0980662284574838 	-2.77555756156289e-17 	-0.232708130480999 	-0.0013908100496378 	-7.13621484324567e-22
3 	0.109480940942647 	-2.77555756156289e-17 	-0.228957828392495 	-0.00170987170334695 	-1.02735127077824e-22
3 	0.121313807773416 	-2.77555756156289e-17 	-0.224875452509848 	-0.00204811320062261 	-7.81238968082889e-23
3 	0.13358014716801 	-2.42861286636753e-17 	-0.220489185493751 	-0.00240565058915683 	-1.50015941809088e-22
3 	0.146295838495838 	-2.08166817117217e-17 	-0.215811274757809 	-0.00278284380645412 	-7.17527293553725e-23
3 	0.159477342834115 	-2.77555756156289e-17 	-0.210843705846639 	-0.00318025322114458 	2.52831293231611e-24
3 	0.173141724277517 	-3.46944695195361e-17 	-0.205581327745128 	-0.0035986179124295 	8.70020372180609e-22
3 	0.18730667202848 	-3.81639164714898e-17 	-0.200013627366428 	-0.00403884753088107 	8.71187087685596e-22
3 	0.201990523296728 	-3.81639164714898e-17 	-0.194125743720262 	-0.00450202345295998 	8.73032117024723e-22
3 	0.217212287037676 	-3.81639164714898e-17 	-0.187899029390959 	-0.00498940683427231 	-9.55453720277221e-22
3 	0.232991668560441 	-4.5102810375397e-17 	-0.181311326759046 	-0.00550245225440142 	-6.7359647998533e-23
3 	0.249349095037321 	-5.55111512312578e-17 	-0.174337053077248 	-0.00604282626614027 	9.79709588740878e-22
3 	0.266305741947753 	-6.59194920871187e-17 	-0.166947148224114 	-0.00661243050575395 	1.04952481221674e-21
3 	0.283883560490998 	-6.59194920871187e-17 	-0.159108915722979 	-0.00721342919878397 	-8.43429281395933e-22
3 	0.30210530600303 	-6.24500451351651e-17 	-0.150785773498365 	-0.00784828095921812 	2.13886891666501e-21
3 	0.320994567414414 	-6.24500451351651e-17 	-0.141936921708954 	-0.00851977474662238 	-1.55197566098577e-18
3 	0.340575797787321 	-5.89805981832114e-17 	-0.132516928601301 	-0.0092310697130499 	-1.17174074299323e-18
3 	0.360874345971201 	-5.55111512312578e-17 	-0.122475230409826 	-0.00998573841567302 	-8.01763184684308e-19
3 	0.38191648941809 	-5.55111512312578e-17 	-0.111755537134851 	-0.0107878124506346 	-6.17886824373424e-17
3 	0.403729468200046 	-5.45353692760209e-17 	-0.10029513212386 	-0.0116418289428771 	6.7608225902688e-17
3 	0.426341520272733 	-5.12827627585644e-17 	-0.0880045379515064 	-0.01255255497948 	-6.38430760146733e-17
3 	0.449781918030828 	-4.92227786308419e-17 	-0.0748125934663086 	-0.0135259752823847 	6.52933698157512e-17
3 	0.474081006202548 	-5.24753851482984e-17 	-0.0606388443414913 	-0.0145685898344581 	1.14795347485634e-18
3 	0.499270241132363 	-5.29090660172926e-17 	-0.0453839782090668 	-0.0156873752287637 	2.5042100157015e-21
3 	0.525382231502763 	-5.20417042793042e-17 	-0.0289362316595788 	-0.0168898884015743 	4.71884584207016e-21
3 	0.552450780547767 	-5.46437894932694e-17 	-0.0111695571653856 	-0.0181842666430784 	4.06899434624714e-21
3 	0.580510929812849 	-5.55111512312578e-17 	0.0080584737425246 	-0.0195794383315528 	-1.19916975709033e-24
3 	0.60959900451791 	-5.72458747072346e-17 	0.0289093483874717 	-0.021084359953222 	0
3 	0.639752660582033 	-5.72458747072346e-17 	0.0515880371563548 	-0.0227038049771178 	-3.94105789800458e-22
3 	0.671010933370886 	-6.24500451351651e-17 	0.0765538243828042 	-0.0244580993998443 	-3.98015144514116e-21
3 	0.7034142882299 	-6.59194920871187e-17 	0.10473719730266 	-0.0263813578700701 	8.40999761353666e-23
3 	0.737004672868606 	-6.59194920871187e-17 	0.137106903774819 	-0.0285051677834714 	5.8743166178289e-21
3 	0.771825571663976 	-6.93889390390723e-17 	0.174139453035228 	-0.0308108292442067 	6.12290277912456e-21
3 	0.807922061953053 	-7.63278329429795e-17 	0.215870981793269 	-0.0332467075279014 	-1.05635086450395e-20
3 	0.845340872387742 	-9.36750677027476e-17 	0.262076759257042 	-0.03573969372887 	-3.95287325465925e-21
3 	0.876395267235943 	-9.71445146547012e-17 	0.302150152880738 	-0.0377290778167831 	-1.77504693675181e-17
3 	0.896138906876707 	-9.0205620750794e-17 	0.328249543347478 	-0.0389449953270608 	-4.85008321405846e-17
3 	0.924340990046897 	-1.07552855510562e-16 	0.366201056866835 	-0.0405648033086329 	-3.71290098085415e-17
3 	0.966024566743241 	-1.21430643318376e-16 	0.423056265366028 	-0.0427398897887186 	4.58854346695265e-17
3 	1.00923513492173 	-1.11022302462516e-16 	0.48222220954814 	-0.0446612948709718 	2.24515195273402e-17
3 	1.05402863275205 	-1.11022302462516e-16 	0.542811056504442 	-0.0462693743026171 	-5.06443786260254e-21
3 	1.10046304758287 	-1.17961196366423e-16 	0.603803294754444 	-0.0475099569932262 	-1.2366422887435e-21
3 	1.14859849100923 	-1.17961196366423e-16 	0.664043101141561 	-0.048330568359367 	-1.98845550887421e-21
3 	1.19849727668994 	-1.21430643318376e-16 	0.722248656932749 	-0.0486867261403 	-1.43827242541964e-21
3 	1.25022400101563 	-1.28369537222284e-16 	0.777106909810739 	-0.0485595290851864 	-4.71464267824539e-22
3 	1.30384562673185 	-1.38777878078145e-16 	0.827529792378967 	-0.0479694947956586 	-3.52761853109097e-22
3 	1.35943156962565 	-1.44415729375069e-16 	0.872993794066016 	-0.0469756507616895 	4.06553268799042e-18
3 	1.41705378838762 	-1.44415729375069e-16 	0.91415285229694 	-0.0455972507408855 	-1.25626692733431e-17
3 	1.47678687776592 	-1.47451495458029e-16 	0.951823469914506 	-0.0439564068661393 	-2.83324860930863e-17
3 	1.53870816513277 	-1.40512601554121e-16 	0.985949728720794 	-0.0421640977281 	-1.66757190227889e-20
3 	1.60289781058851 	-1.35308431126191e-16 	1.01667986435274 	-0.0403291553315144 	-1.30545477255185e-20
3 	1.66943891073266 	-1.35308431126191e-16 	1.04436246706048 	-0.0385052568852639 	-4.43948214295329e-21
3 	1.73841760623657 	-1.2490009027033e-16 	1.06948586484358 	-0.0366981851843299 	-7.54606415734414e-21
3 	1.77894489321751 	-1.17961196366423e-16 	1.08313176419603 	-0.0356612805981197 	-1.0092965267724e-20
3 	1.81534077248513 	-1.14491749414469e-16 	1.09429156232354 	-0.0347456212245246 	-4.14922814558665e-21
3 	1.88404823953248 	-1.07552855510562e-16 	1.1142237728735 	-0.0330236305084021 	1.04739955193903e-20
3 	1.96088870322037 	-1.04083408558608e-16 	1.13379085989488 	-0.0311600840670475 	-8.39896183312517e-23
3 	2.02025965173184 	-1.00613961606655e-16 	1.14810140611432 	-0.0296692448197961 	0
3 	2.06006301192217 	-1.00613961606655e-16 	1.15751298703173 	-0.0285819564641283 	0
3 	2.09845978584128 	-1.04083408558608e-16 	1.1656723078391 	-0.0275884903341034 	0
3 	2.13549967996945 	-1.04083408558608e-16 	1.1731231351267 	-0.0266309403176099 	0
3 	2.17123064424048 	-1.04083408558608e-16 	1.17992191560236 	-0.0257037574954529 	0
3 	2.20569893411515 	-1.04083408558608e-16 	1.18611912991551 	-0.0248072899611228 	0
3 	2.23894917046122 	-1.04083408558608e-16 	1.19176011291051 	-0.0239416903633533 	0
3 	2.27102439731725 	-1.00613961606655e-16 	1.19688560166275 	-0.0231066363586472 	0
3 	2.30196613761521 	-9.36750677027476e-17 	1.20153214337266 	-0.0223016261340957 	0
3 	2.33181444693391 	-9.0205620750794e-17 	1.20573242275699 	-0.0215260421638058 	0
3 	2.3606079653529 	-9.0205620750794e-17 	1.20951554155453 	-0.0207791629458931 	0
3 	2.3883839674739 	-9.0205620750794e-17 	1.21290726635283 	-0.020060184023741 	0
3 	2.41517841067461 	-8.67361737988404e-17 	1.21593025150388 	-0.0193682408442954 	0
3 	2.44102598165722 	-8.32667268468867e-17 	1.21860423942912 	-0.0187024283101655 	0
3 	2.46596014135207 	-8.67361737988404e-17 	1.22094623883025 	-0.0180618168013476 	0
3 	2.49001316823443 	-8.32667268468867e-17 	1.2229706808205 	-0.0174454651178292 	-5.27702627740713e-17
3 	2.51321620011054 	-7.63278329429795e-17 	1.22468955305264 	-0.0168524307110659 	-5.15756039537391e-17
3 	2.535599274427 	-7.63278329429795e-17 	1.22611251218159 	-0.0162817775669827 	5.51191005012727e-17
3 	2.55719136715571 	-7.63278329429795e-17 	1.2272469752897 	-0.0157325820948149 	5.39244416809535e-17
3 	2.57802043030465 	-7.63278329429795e-17 	1.22809819114587 	-0.0152039373334828 	0
3 	2.59811342810315 	-7.28583859910259e-17 	1.22866929234227 	-0.0146949557292164 	0
3 	2.61749637190832 	-6.93889390390723e-17 	1.22896132944789 	-0.0142047706783518 	0
3 	2.63619435387806 	-6.93889390390723e-17 	1.22897328833143 	-0.0137325369728057 	0
3 	2.65423157945406 	-7.28583859910259e-17 	1.22870209172433 	-0.0132774302348028 	0
3 	2.67163139869691 	-7.63278329429795e-17 	1.22814258589037 	-0.0128386453831541 	0
3 	2.68841633651388 	-7.28583859910259e-17 	1.22728751289504 	-0.0124153941367135 	0
3 	2.7046081218185 	-6.59194920871187e-17 	1.22612746836223 	-0.0120069015328125 	0
3 	2.72022771565972 	-6.24500451351651e-17 	1.22465084368643 	-0.011612401421298 	0
3 	2.73529533835694 	-5.89805981832114e-17 	1.22284375034343 	-0.0112311308907935 	0
3 	2.74983049567625 	-5.55111512312578e-17 	1.22068992212455 	-0.010862323596136 	0
3 	2.76385200408156 	-5.55111512312578e-17 	1.21817058874118 	-0.0105052019881896 	0
3 	2.77737801509343 	-5.55111512312578e-17 	1.21526431129664 	-0.010158968502959 	0
3 	2.79042603878708 	-5.89805981832114e-17 	1.21194676667249 	-0.00982279584902729 	0
3 	2.80301296646003 	-6.59194920871187e-17 	1.20819046412442 	-0.00949581664250787 	0
3 	2.81515509249872 	-6.93889390390723e-17 	1.20396437367508 	-0.00917711277676449 	0
3 	2.82686813547237 	-6.93889390390723e-17 	1.1992334427391 	-0.00886570507802869 	0
3 	2.83816725848142 	-6.93889390390723e-17 	1.19395797546908 	-0.00856054398402771 	0
3 	2.84906708878691 	-6.93889390390723e-17 	1.18809284931165 	-0.00826050218583456 	0
3 	2.85958173674616 	-6.59194920871187e-17 	1.18158654593936 	-0.00796437038636272 	0
3 	2.86972481407933 	-6.24500451351651e-17 	1.1743799796869 	-0.00767085754857307 	0
3 	2.87950945149043 	-6.24500451351651e-17 	1.16640511621397 	-0.0073785972688736 	0
3 	2.88894831566566 	-6.24500451351651e-17 	1.15758338730065 	-0.00708616231281837 	0
3 	2.89805362567106 	-6.24500451351651e-17 	1.14782392388572 	-0.00679208959755849 	0
3 	2.90683716877067 	-6.24500451351651e-17 	1.13702164751139 	-0.00649491610037157 	0
3 	2.91531031568569 	-6.24500451351651e-17 	1.1250552783358 	-0.0061932227767797 	0
3 	2.92348403531448 	-6.24500451351651e-17 	1.11178533144503 	-0.00588570246970507 	0
3 	2.93136890893229 	-6.59194920871187e-17 	1.09705212146985 	-0.00557138539938932 	0
3 	2.93897514388925 	-7.28583859910259e-17 	1.08066604868822 	-0.0052496661308722 	0
3 	2.94631258682425 	-7.63278329429795e-17 	1.06235429794924 	-0.00491817334545824 	0
3 	2.95339073641193 	-7.63278329429795e-17 	1.04166829865362 	-0.00457376755305852 	0
3 	2.96021875565915 	-7.28583859910259e-17 	1.0180959136599 	-0.00421276587270259 	0
3 	2.96680548376697 	-6.93889390390723e-17 	0.991235965249883 	-0.00383634959974881 	0
3 	2.97315944757337 	-6.93889390390723e-17 	0.960727245754339 	-0.00344789362843658 	0
3 	2.97928887259171 	-6.59194920871187e-17 	0.926173189524398 	-0.00305219375712822 	0
3 	2.98520169365902 	-6.59194920871187e-17 	0.887085406512446 	-0.00265506235437312 	0
3 	2.99090556520806 	-6.93889390390723e-17 	0.8428244080498 	-0.00226290258579731 	0
3 	2.99640787117633 	-7.28583859910259e-17 	0.792515497023665 	-0.00188239137112272 	0
3 	3.00171573456492 	-7.97972798949331e-17 	0.734940193509541 	-0.00152001231258359 	0
3 	3.00683602665962 	-8.67361737988404e-17 	0.668501580480999 	-0.00118248891942634 	0
3 	3.01177537592612 	-9.0205620750794e-17 	0.591159974826945 	-0.000876883724591482 	0
3 	3.01654017659085 	-8.32667268468867e-17 	0.500301686546828 	-0.000606490084761075 	0
3 	3.02113659691864 	-7.97972798949331e-17 	0.395032156148344 	-0.000375754837618131 	0
3 	3.02557058719784 	-8.32667268468867e-17 	0.280516619934606 	-0.000194568996531907 	0
3 	3.02984788744324 	-8.32667268468867e-17 	0.165318612448928 	-7.29825989815163e-05 	0
