1 	0.72186260648534 	1.73472347597681e-17 	0.0671854333099526 	2.06214066425316e-07 	2640.91235536333 	3.47136568554958e-09 	3.53096608092586e-38
1 	0.726974263978419 	1.56125112837913e-17 	0.0671522982158746 	2.23706472573076e-06 	828.577433390479 	7.57384098310732e-08 	0
1 	0.732273073361977 	1.56125112837913e-17 	0.0671135466872213 	1.17542547979371e-05 	204.578636002802 	6.59365149020501e-07 	0
1 	0.737765882993609 	1.90819582357449e-17 	0.0670756436455232 	3.96047371384964e-05 	85.1070889473194 	3.14510809109176e-06 	0
1 	0.743459791556242 	2.42861286636753e-17 	0.0670375686858048 	0.00010116677674873 	44.9687277229303 	9.60001887045809e-06 	0
1 	0.74936215718884 	2.25514051876985e-17 	0.0669988346577443 	0.000214637208306358 	27.1025729213849 	2.00976687386339e-05 	0
1 	0.755480606948831 	1.38777878078145e-17 	0.0669596119589321 	0.000396678512076763 	17.7218015010063 	2.87861233058341e-05 	0
1 	0.761823046618211 	1.21430643318376e-17 	0.0669204120479937 	0.000654977366692757 	12.2780866596215 	2.63532773558538e-05 	0
1 	0.768397670865725 	2.08166817117217e-17 	0.0668821500003554 	0.000982356575960997 	8.94597864453922 	1.33663770183395e-05 	0
1 	0.775212973777957 	2.77555756156289e-17 	0.0668461725173556 	0.00135978305900153 	6.86027336277964 	6.09213063349866e-06 	0
1 	0.782277759772617 	3.29597460435593e-17 	0.0668140657265744 	0.00176823914853691 	5.54355878159461 	2.152570282261e-05 	0
1 	0.78960115490778 	3.29597460435593e-17 	0.0667873185855572 	0.0021968277275658 	4.71037104302376 	6.58459790072669e-05 	0
1 	0.797192618601344 	3.29597460435593e-17 	0.0667670807116811 	0.00264365199532509 	4.18966890636652 	0.000139148610015995 	0
1 	0.805061955775449 	3.81639164714898e-17 	0.0667541506887729 	0.0031132491570434 	3.88208148431863 	0.000242987270941752 	0
1 	0.813219329441158 	4.33680868994202e-17 	0.0667490766587772 	0.00361452797939439 	3.73266111465875 	0.000383699719019616 	0
1 	0.82167527373921 	4.68375338513738e-17 	0.0667521833212911 	0.00416005060088509 	3.71458610456899 	0.000573724601992391 	0
1 	0.830440707453236 	4.85722573273506e-17 	0.0667635255853104 	0.00476625218832953 	3.82018321097509 	0.000832922488763498 	0
1 	0.839526948012412 	5.03069808033274e-17 	0.0667832365885863 	0.00545287990210097 	4.05330922570538 	0.00119044849375187 	0
1 	0.848945726001124 	4.85722573273506e-17 	0.0668133015590419 	0.00624048514709673 	4.41714970370777 	0.00168950571090373 	0
1 	0.858709200193822 	4.68375338513738e-17 	0.0668602974613815 	0.00714463743809883 	4.89684876441989 	0.0023965140075353 	0
1 	0.868829973133921 	5.3776427755281e-17 	0.0669318393593946 	0.00818011203410466 	5.46633503391882 	0.00342772519634221 	0
1 	0.879321107276245 	5.72458747072346e-17 	0.06702894101539 	0.00936439286915413 	6.12330198798696 	0.00492213913856307 	0
1 	0.890196141713217 	5.55111512312578e-17 	0.0671569926364459 	0.0107020325434886 	6.8745869916669 	0.00705537590437654 	0
1 	0.90146910950571 	4.85722573273506e-17 	0.0673064798906353 	0.012170294513892 	7.72017446274671 	0.0101143282848837 	0
1 	0.913154555640207 	4.16333634234434e-17 	0.0674455969243601 	0.0137349450143351 	8.64089045876876 	0.013958276860254 	0
1 	0.92526755563471 	4.85722573273506e-17 	0.0675881826921302 	0.0153344788068432 	9.58027655747069 	0.0185547473118763 	0
1 	0.937823734816585 	5.3776427755281e-17 	0.0677644931573877 	0.0168415524267248 	10.4295211128386 	0.0233241013221007 	0
1 	0.950839288296425 	4.5102810375397e-17 	0.067971248818203 	0.018118269729966 	11.0415549489785 	0.0273581338101777 	0
1 	0.96433100166278 	3.98986399474666e-17 	0.0681952347753516 	0.019082704838043 	11.3005830103838 	0.0298061265245631 	0
1 	0.978316272423567 	3.98986399474666e-17 	0.0684200888278175 	0.0197280971612124 	11.1571597252778 	0.0300865952209554 	0
1 	0.992813132220821 	3.98986399474666e-17 	0.0686292795788696 	0.0201080721861873 	10.6232721902862 	0.0281635210429467 	0
1 	1.00784026984644 	3.98986399474666e-17 	0.0688125274112286 	0.0203121924947044 	9.76464237750877 	0.0245644116064684 	0
1 	1.02341705508757 	4.33680868994202e-17 	0.0689573967185884 	0.0204390710399423 	8.68870384527963 	0.0201392221609587 	0
1 	1.03956356343115 	5.03069808033274e-17 	0.0690546824040092 	0.0205737255484814 	7.52238937682048 	0.0157474545947207 	0
1 	1.05630060165851 	4.33680868994202e-17 	0.0690848239475511 	0.0207728744009769 	6.38491822547974 	0.0119130687664772 	0
1 	1.07364973436162 	3.81639164714898e-17 	0.0690325310669664 	0.0210623721399723 	5.35745288270025 	0.00883787960431831 	0
1 	1.091633311414 	4.16333634234434e-17 	0.0689182819051906 	0.021445478593516 	4.48492628112283 	0.00671816736941669 	0
1 	1.11027449643034 	4.5102810375397e-17 	0.0687605963501847 	0.0219030733241514 	3.79159392939288 	0.00535145780231467 	0
1 	1.1295972962502 	4.85722573273506e-17 	0.0685680605869348 	0.0224063313467601 	3.27996287888149 	0.00451459550558447 	0
1 	1.14962659148233 	4.5102810375397e-17 	0.0683594799173509 	0.0229277902386451 	2.92136620129108 	0.00403172673733905 	0
1 	1.17038816814745 	4.16333634234434e-17 	0.0681569177201902 	0.023445280596859 	2.66914141005522 	0.00377126903590147 	0
1 	1.19190875045884 	3.81639164714898e-17 	0.0679725685529654 	0.023940162318612 	2.48221378189489 	0.00363758302979795 	0
1 	1.2142160347814 	4.16333634234434e-17 	0.0678081878097225 	0.0243957851221938 	2.33321617438683 	0.00356800086705252 	0
1 	1.23733872481109 	4.85722573273506e-17 	0.0676615974504775 	0.0247971887217626 	2.20652081287104 	0.00352700309326911 	0
1 	1.26130656801881 	4.16333634234434e-17 	0.0675313089204892 	0.0251312767791066 	2.09411270295207 	0.00349719056984476 	0
1 	1.28615039340353 	2.77555756156289e-17 	0.0674179607465838 	0.0253869268328149 	1.99214281699328 	0.00347060701790137 	0
1 	1.31190215060192 	2.08166817117217e-17 	0.0673241830542153 	0.0255549171449609 	1.89864553637873 	0.00344262889436832 	0
1 	1.33859495040276 	1.38777878078145e-17 	0.067253920996787 	0.0256277713256007 	1.81227183275845 	0.00340874987058286 	0
1 	1.36626310671677 	1.04083408558608e-17 	0.0672116454045682 	0.0255996574108525 	1.73175096635572 	0.00336363491367826 	0
1 	1.3949421800539 	1.04083408558608e-17 	0.0672017063032627 	0.0254664183642493 	1.65578588792701 	0.00330154097991733 	0
1 	1.42466902256228 	1.38777878078145e-17 	0.0672279627176785 	0.0252257317235743 	1.58314188976843 	0.00321726821092982 	0
1 	1.45548182468505 	2.08166817117217e-17 	0.0672936724903057 	0.0248773411483121 	1.51277162746684 	0.00310705597144538 	0
1 	1.48742016349314 	2.08166817117217e-17 	0.067401530960766 	0.0244232837994462 	1.44390047799543 	0.00296914030616001 	0
1 	1.52052505275458 	2.08166817117217e-17 	0.0675537409481959 	0.0238680454623176 	1.37605418133489 	0.00280393039700897 	0
1 	1.55483899480282 	1.38777878078145e-17 	0.0677520458285079 	0.0232185943087996 	1.30904072809849 	0.0026138875611148 	0
1 	1.5904060342692 	3.46944695195361e-18 	0.0679977131402861 	0.0224842629711073 	1.24290612005343 	0.0024032134411607 	0
1 	1.627271813747 	-1.04083408558608e-17 	0.0682914888440071 	0.0216764637772105 	1.17787918631013 	0.00217742512098123 	0
1 	1.66548363145696 	-2.08166817117217e-17 	0.068633552429189 	0.0208082346929464 	1.11431310944752 	0.00194286487326739 	0
1 	1.70509050098717 	-2.77555756156289e-17 	0.0690234968255884 	0.0198936314932955 	1.05262644007857 	0.00170618727240317 	0
1 	1.74614321318255 	-3.46944695195361e-17 	0.0694603013688493 	0.0189470560876878 	0.993257804519181 	0.00147386576677316 	0
1 	1.78869440026235 	-3.46944695195361e-17 	0.0699422110469177 	0.017982683217603 	0.936665247332754 	0.00125171860764962 	0
1 	1.83279860224716 	-2.77555756156289e-17 	0.0704666115924185 	0.0170137261120964 	0.883305628921741 	0.00104454510504656 	0
1 	1.87851233577965 	-1.38777878078145e-17 	0.0710300184753874 	0.0160513508299899 	0.83359984929599 	0.000855887217251878 	0
1 	1.92589416542708 	-6.93889390390723e-18 	0.0716283878027118 	0.0151028107826169 	0.787819297887166 	0.000687988085470351 	0
1 	1.97500477755671 	-6.93889390390723e-18 	0.0722468476792838 	0.0141889497164472 	0.746585058758815 	0.000543906791183498 	0
1 	2.02025965173185 	-6.93889390390723e-18 	0.0728337354704707 	0.0133872056832029 	0.712689440791487 	0.000430311269349445 	0
1 	2.06006301192217 	-1.04083408558608e-17 	0.0733594839115529 	0.0127112443617141 	0.686055186927277 	0.000344268591418542 	0
1 	2.09845978584128 	-1.38777878078145e-17 	0.0738530683595203 	0.0121086841548826 	0.664196042728817 	0.000275330546333885 	0
1 	2.13549967996946 	-1.38777878078145e-17 	0.0743245708883892 	0.011558877476681 	0.646133199566534 	0.000218873593283677 	0
1 	2.17123064424048 	-1.04083408558608e-17 	0.0747735733961315 	0.0110545716024821 	0.63150077402223 	0.000172523086805162 	0
1 	2.20569893411515 	-1.04083408558608e-17 	0.0751997899909224 	0.0105898543177566 	0.620022508426653 	0.000134355841424056 	0
1 	2.23894917046123 	-1.04083408558608e-17 	0.075603358496508 	0.0101599820940875 	0.611494408215458 	0.000102867429220657 	0
1 	2.27102439731726 	-6.93889390390723e-18 	0.0759846608891155 	0.00976118794420909 	0.605773884992634 	7.6903443319041e-05 	0
1 	2.30196613761522 	-6.93889390390723e-18 	0.0763442417752525 	0.00939050105903357 	0.602772263029566 	5.55960793921851e-05 	0
1 	2.33181444693392 	-6.93889390390723e-18 	0.0766827661342496 	0.00904559203121853 	0.602449485642799 	3.83116891646165e-05 	0
1 	2.3606079653529 	-6.93889390390723e-18 	0.0770009844361391 	0.00872464671142314 	0.60481048866353 	2.46083427911895e-05 	0
1 	2.38838396747391 	-6.93889390390723e-18 	0.0772997041972778 	0.00842626649440157 	0.609902927931983 	1.42027765363999e-05 	0
1 	2.41517841067461 	-6.93889390390723e-18 	0.0775797677410136 	0.00814939076784159 	0.617816025017477 	6.94557368877554e-06 	0
1 	2.44102598165722 	-6.93889390390723e-18 	0.0778420348321424 	0.00789323681881305 	0.628680317234337 	2.80309807885717e-06 	0
1 	2.46596014135208 	-6.93889390390723e-18 	0.0780873691125434 	0.00765725276611532 	0.642668094539947 	1.84467458092136e-06 	0
1 	2.49001316823444 	-6.93889390390723e-18 	0.0783166275707569 	0.00744107959363109 	0.659994286941083 	4.2335915972943e-06 	0
1 	2.51321620011054 	-6.93889390390723e-18 	0.0785306524499908 	0.00724451888633422 	0.680917535307407 	1.0220586316679e-05 	0
1 	2.535599274427 	-6.93889390390723e-18 	0.078730265121598 	0.00706750334866677 	0.705741139618505 	2.01385349301715e-05 	0
1 	2.55719136715571 	-6.93889390390723e-18 	0.0789162615512162 	0.00691006762242117 	0.734813538300526 	3.43971138048765e-05 	0
1 	2.57802043030466 	-3.46944695195361e-18 	0.0790894090659489 	0.00677231736438001 	0.768527941945461 	5.34762552531764e-05 	0
1 	2.59811342810315 	0 	0.0792504441954514 	0.00665439505537047 	0.807320741490949 	7.79173410563202e-05 	0
1 	2.61749637190832 	3.46944695195361e-18 	0.0794000714094124 	0.00655644165251924 	0.851668356821088 	0.00010831131267256 	0
1 	2.63619435387806 	6.93889390390723e-18 	0.0795389626098364 	0.00647855400317044 	0.902082310168354 	0.000145283274162023 	0
1 	2.65423157945406 	6.93889390390723e-18 	0.0796677572596193 	0.00642073890433717 	0.959102518103585 	0.000189473737062004 	0
1 	2.67163139869691 	6.93889390390723e-18 	0.0797870630404274 	0.00638286574189166 	1.02328910049284 	0.000241517368416951 	0
1 	2.68841633651388 	6.93889390390723e-18 	0.0798974569347765 	0.00636462063178578 	1.09521338467316 	0.000302020851612647 	0
1 	2.70460812181851 	1.38777878078145e-17 	0.0799994866222934 	0.00636546570803004 	1.17544918808974 	0.00037154209522629 	0
1 	2.72022771565972 	2.08166817117217e-17 	0.0800936720721219 	0.00638460744675234 	1.26456581519107 	0.000450573347738577 	0
1 	2.73529533835695 	2.08166817117217e-17 	0.0801805072069355 	0.00642097753141476 	1.36312441547506 	0.00053953065645568 	0
1 	2.74983049567626 	2.08166817117217e-17 	0.0802604615146291 	0.00647322873050459 	1.47167934746762 	0.000638751517752278 	0
1 	2.76385200408157 	2.08166817117217e-17 	0.0803339814967342 	0.00653974672398386 	1.5907859587835 	0.00074850162952135 	0
1 	2.77737801509344 	2.08166817117217e-17 	0.0804014918704189 	0.00661867708654815 	1.72101578775853 	0.000868990656298294 	0
1 	2.79042603878708 	2.08166817117217e-17 	0.0804633964842552 	0.00670796511895865 	1.86297977060558 	0.00100039623125274 	0
1 	2.80301296646003 	2.08166817117217e-17 	0.0805200789661352 	0.00680540527077322 	2.01735982167925 	0.0011428954229117 	0
1 	2.81515509249873 	2.08166817117217e-17 	0.08057190318584 	0.006908696667467 	2.18494937929046 	0.00129670382648895 	0
1 	2.82686813547238 	2.08166817117217e-17 	0.0806192136610149 	0.00701550164503469 	2.36670433830323 	0.00146212424844236 	0
1 	2.83816725848143 	1.73472347597681e-17 	0.0806623360313076 	0.00712350488214286 	2.56380720827346 	0.001639609168087 	0
1 	2.84906708878692 	1.38777878078145e-17 	0.0807015776481587 	0.00723047123680012 	2.77774907537736 	0.00182984290679417 	0
1 	2.85958173674617 	1.38777878078145e-17 	0.0807372281850276 	0.00733430030803589 	3.01043552087009 	0.00203384974105725 	0
1 	2.86972481407933 	1.38777878078145e-17 	0.0807695600136411 	0.00743307487580734 	3.26432355143165 	0.00225313257100836 	0
1 	2.87950945149043 	1.38777878078145e-17 	0.0807988280036603 	0.00752509895600988 	3.54259665491709 	0.00248984361011784 	0
1 	2.88894831566567 	1.38777878078145e-17 	0.0808252684757256 	0.0076089198512108 	3.84938482815987 	0.00274698486163402 	0
1 	2.89805362567107 	1.38777878078145e-17 	0.0808490973109519 	0.00768332802190213 	4.19003716077658 	0.00302863275675185 	0
1 	2.90683716877067 	1.38777878078145e-17 	0.0808705077574783 	0.00774732932377747 	4.57145815260935 	0.0033401791557615 	0
1 	2.9153103156857 	1.38777878078145e-17 	0.0808896690129818 	0.00780008605723019 	5.00252716769221 	0.00368858072706748 	0
1 	2.92348403531449 	1.38777878078145e-17 	0.0809067247668558 	0.0078408257249365 	5.49463449871277 	0.00408260913383041 	0
1 	2.9313689089323 	1.38777878078145e-17 	0.0809217847244723 	0.00786871869707055 	6.06238830423409 	0.0045330958218896 	0
1 	2.93897514388925 	1.38777878078145e-17 	0.0809349168673816 	0.00788272787048716 	6.72457728314203 	0.00505516317789885 	0
1 	2.94631258682425 	1.38777878078145e-17 	0.0809462596290046 	0.00788133083462841 	7.50572180272534 	0.00567258933536428 	0
1 	2.95339073641193 	1.38777878078145e-17 	0.0809561889274525 	0.00786183917384685 	8.43882267513823 	0.00640877111990896 	0
1 	2.96021875565916 	1.38777878078145e-17 	0.0809648169548869 	0.00781964414192573 	9.56778989676692 	0.00729490493351455 	0
1 	2.96680548376697 	1.38777878078145e-17 	0.0809718335708635 	0.00774710936412049 	10.9483214494172 	0.00835872288341033 	0
1 	2.97315944757337 	1.38777878078145e-17 	0.0809770290107194 	0.00763235495400223 	12.6498658045313 	0.00961549364608774 	0
1 	2.97928887259171 	1.38777878078145e-17 	0.0809803794960347 	0.00745809147195958 	14.7604235272667 	0.0110640671379179 	0
1 	2.98520169365903 	1.38777878078145e-17 	0.0809819703704471 	0.00720036061040192 	17.3950695243402 	0.0126722761285009 	0
1 	2.99090556520807 	1.73472347597681e-17 	0.0809819826642378 	0.0068274136473354 	20.7118150876828 	0.0143455152957009 	0
1 	2.99640787117633 	1.73472347597681e-17 	0.0809806923161876 	0.00629988534638724 	24.9442179560309 	0.015881889300328 	0
1 	3.00171573456492 	1.73472347597681e-17 	0.0809784367801263 	0.00557459464587318 	30.4780753753913 	0.0169183538193041 	0
1 	3.00683602665963 	1.73472347597681e-17 	0.0809755880851429 	0.00461508716295371 	38.0564306409593 	0.0167999820612942 	0
1 	3.01177537592613 	1.38777878078145e-17 	0.0809726066535173 	0.00342209608050319 	49.3844317351504 	0.0144076564157977 	0
1 	3.01654017659085 	1.38777878078145e-17 	0.0809699940621516 	0.00211992892687056 	69.2046627379245 	0.00934576437734352 	0
1 	3.02113659691864 	1.38777878078145e-17 	0.0809680128244754 	0.00100761090723708 	113.701887373391 	0.00397560208958233 	0
1 	3.02557058719784 	1.38777878078145e-17 	0.0809664927268353 	0.000336058091370973 	254.570043556246 	0.000970682811347744 	0
1 	3.02984788744324 	1.04083408558608e-17 	0.08096510049335 	6.94330485062723e-05 	1048.03782125013 	0.000116409619709657 	0
