# k  FACE_DATA 22090
#  x  y  z  k
0.0005 4.59758e-05 4.71048e-05 6.30077
0.0005 0.000133748 4.71048e-05 6.6245
0.0005 0.000213541 4.71048e-05 7.17851
0.0005 0.000286079 4.71048e-05 7.88404
0.0005 0.000352024 4.71048e-05 8.67734
0.0005 0.000411973 4.71048e-05 9.50922
0.0005 0.000466473 4.71048e-05 10.3434
0.0005 0.000516018 4.71048e-05 11.1542
0.0005 0.000561059 4.71048e-05 11.9247
0.0005 0.000602005 4.71048e-05 12.6443
0.0005 0.000639229 4.71048e-05 13.3069
0.0005 0.000673069 4.71048e-05 13.9052
0.0005 0.000703833 4.71048e-05 14.4306
0.0005 0.000731799 4.71048e-05 14.8783
0.0005 0.000757224 4.71048e-05 15.2462
0.0005 0.000780337 4.71048e-05 15.5337
0.0005 0.000801349 4.71048e-05 15.7398
0.0005 0.000820451 4.71048e-05 15.8625
0.0005 0.000837816 4.71048e-05 15.8982
0.0005 0.000853602 4.71048e-05 15.8416
0.0005 0.000867954 4.71048e-05 15.6857
0.0005 0.000881001 4.71048e-05 15.4215
0.0005 0.000892861 4.71048e-05 15.0386
0.0005 0.000903644 4.71048e-05 14.5257
0.0005 0.000913446 4.71048e-05 13.8714
0.0005 0.000922357 4.71048e-05 13.0663
0.0005 0.000930458 4.71048e-05 12.1056
0.0005 0.000937823 4.71048e-05 10.9925
0.0005 0.000944518 4.71048e-05 9.74181
0.0005 0.000950604 4.71048e-05 8.38016
0.0005 0.000956137 4.71048e-05 6.94363
0.0005 0.000961167 4.71048e-05 5.50447
0.0005 0.00096574 4.71048e-05 4.15458
0.0005 0.000969897 4.71048e-05 2.98034
0.0005 0.000973676 4.71048e-05 2.03532
0.0005 0.000977112 4.71048e-05 1.32781
0.0005 0.000980235 4.71048e-05 0.829976
0.0005 0.000983075 4.71048e-05 0.49727
0.0005 0.000985656 4.71048e-05 0.284603
0.0005 0.000988002 4.71048e-05 0.154344
0.0005 0.000990136 4.71048e-05 0.078196
0.0005 0.000992075 4.71048e-05 0.0361597
0.0005 0.000993838 4.71048e-05 0.0146819
0.0005 0.000995441 4.71048e-05 0.00488517
0.0005 0.000996898 4.71048e-05 0.00116185
0.0005 0.000998222 4.71048e-05 0.000144766
0.0005 0.000999427 4.71048e-05 4.3421e-06
0.0005 4.59758e-05 0.000140876 6.30077
0.0005 0.000133748 0.000140876 6.6245
0.0005 0.000213541 0.000140876 7.17851
0.0005 0.000286079 0.000140876 7.88404
0.0005 0.000352024 0.000140876 8.67734
0.0005 0.000411973 0.000140876 9.50922
0.0005 0.000466473 0.000140876 10.3434
0.0005 0.000516018 0.000140876 11.1542
0.0005 0.000561059 0.000140876 11.9247
0.0005 0.000602005 0.000140876 12.6443
0.0005 0.000639229 0.000140876 13.3069
0.0005 0.000673069 0.000140876 13.9052
0.0005 0.000703833 0.000140876 14.4307
0.0005 0.000731799 0.000140876 14.8783
0.0005 0.000757224 0.000140876 15.2462
0.0005 0.000780337 0.000140876 15.5337
0.0005 0.000801349 0.000140876 15.7398
0.0005 0.000820451 0.000140876 15.8625
0.0005 0.000837816 0.000140876 15.8982
0.0005 0.000853602 0.000140876 15.8417
0.0005 0.000867954 0.000140876 15.6857
0.0005 0.000881001 0.000140876 15.4215
0.0005 0.000892861 0.000140876 15.0387
0.0005 0.000903644 0.000140876 14.5257
0.0005 0.000913446 0.000140876 13.8715
0.0005 0.000922357 0.000140876 13.0664
0.0005 0.000930458 0.000140876 12.1057
0.0005 0.000937823 0.000140876 10.9926
0.0005 0.000944518 0.000140876 9.74186
0.0005 0.000950604 0.000140876 8.38021
0.0005 0.000956137 0.000140876 6.94367
0.0005 0.000961167 0.000140876 5.50451
0.0005 0.00096574 0.000140876 4.15461
0.0005 0.000969897 0.000140876 2.98037
0.0005 0.000973676 0.000140876 2.03533
0.0005 0.000977112 0.000140876 1.32782
0.0005 0.000980235 0.000140876 0.829984
0.0005 0.000983075 0.000140876 0.497275
0.0005 0.000985656 0.000140876 0.284606
0.0005 0.000988002 0.000140876 0.154346
0.0005 0.000990136 0.000140876 0.0781968
0.0005 0.000992075 0.000140876 0.03616
0.0005 0.000993838 0.000140876 0.014682
0.0005 0.000995441 0.000140876 0.00488522
0.0005 0.000996898 0.000140876 0.00116186
0.0005 0.000998222 0.000140876 0.000144767
0.0005 0.000999427 0.000140876 4.34214e-06
0.0005 4.59758e-05 0.000233775 6.30077
0.0005 0.000133748 0.000233775 6.6245
0.0005 0.000213541 0.000233775 7.17851
0.0005 0.000286079 0.000233775 7.88404
0.0005 0.000352024 0.000233775 8.67734
0.0005 0.000411973 0.000233775 9.50923
0.0005 0.000466473 0.000233775 10.3434
0.0005 0.000516018 0.000233775 11.1542
0.0005 0.000561059 0.000233775 11.9247
0.0005 0.000602005 0.000233775 12.6443
0.0005 0.000639229 0.000233775 13.3069
0.0005 0.000673069 0.000233775 13.9052
0.0005 0.000703833 0.000233775 14.4307
0.0005 0.000731799 0.000233775 14.8783
0.0005 0.000757224 0.000233775 15.2462
0.0005 0.000780337 0.000233775 15.5337
0.0005 0.000801349 0.000233775 15.7398
0.0005 0.000820451 0.000233775 15.8625
0.0005 0.000837816 0.000233775 15.8983
0.0005 0.000853602 0.000233775 15.8417
0.0005 0.000867954 0.000233775 15.6858
0.0005 0.000881001 0.000233775 15.4216
0.0005 0.000892861 0.000233775 15.0387
0.0005 0.000903644 0.000233775 14.5258
0.0005 0.000913446 0.000233775 13.8715
0.0005 0.000922357 0.000233775 13.0664
0.0005 0.000930458 0.000233775 12.1058
0.0005 0.000937823 0.000233775 10.9927
0.0005 0.000944518 0.000233775 9.74191
0.0005 0.000950604 0.000233775 8.38026
0.0005 0.000956137 0.000233775 6.94372
0.0005 0.000961167 0.000233775 5.50455
0.0005 0.00096574 0.000233775 4.15464
0.0005 0.000969897 0.000233775 2.98039
0.0005 0.000973676 0.000233775 2.03535
0.0005 0.000977112 0.000233775 1.32784
0.0005 0.000980235 0.000233775 0.829991
0.0005 0.000983075 0.000233775 0.497279
0.0005 0.000985656 0.000233775 0.284608
0.0005 0.000988002 0.000233775 0.154347
0.0005 0.000990136 0.000233775 0.0781975
0.0005 0.000992075 0.000233775 0.0361604
0.0005 0.000993838 0.000233775 0.0146821
0.0005 0.000995441 0.000233775 0.00488526
0.0005 0.000996898 0.000233775 0.00116187
0.0005 0.000998222 0.000233775 0.000144768
0.0005 0.000999427 0.000233775 4.34218e-06
0.0005 4.59758e-05 0.00032581 6.30077
0.0005 0.000133748 0.00032581 6.6245
0.0005 0.000213541 0.00032581 7.17852
0.0005 0.000286079 0.00032581 7.88405
0.0005 0.000352024 0.00032581 8.67735
0.0005 0.000411973 0.00032581 9.50924
0.0005 0.000466473 0.00032581 10.3434
0.0005 0.000516018 0.00032581 11.1542
0.0005 0.000561059 0.00032581 11.9247
0.0005 0.000602005 0.00032581 12.6443
0.0005 0.000639229 0.00032581 13.3069
0.0005 0.000673069 0.00032581 13.9053
0.0005 0.000703833 0.00032581 14.4307
0.0005 0.000731799 0.00032581 14.8784
0.0005 0.000757224 0.00032581 15.2463
0.0005 0.000780337 0.00032581 15.5338
0.0005 0.000801349 0.00032581 15.7399
0.0005 0.000820451 0.00032581 15.8626
0.0005 0.000837816 0.00032581 15.8983
0.0005 0.000853602 0.00032581 15.8418
0.0005 0.000867954 0.00032581 15.6858
0.0005 0.000881001 0.00032581 15.4216
0.0005 0.000892861 0.00032581 15.0388
0.0005 0.000903644 0.00032581 14.5258
0.0005 0.000913446 0.00032581 13.8716
0.0005 0.000922357 0.00032581 13.0665
0.0005 0.000930458 0.00032581 12.1058
0.0005 0.000937823 0.00032581 10.9927
0.0005 0.000944518 0.00032581 9.74196
0.0005 0.000950604 0.00032581 8.3803
0.0005 0.000956137 0.00032581 6.94375
0.0005 0.000961167 0.00032581 5.50458
0.0005 0.00096574 0.00032581 4.15467
0.0005 0.000969897 0.00032581 2.98041
0.0005 0.000973676 0.00032581 2.03536
0.0005 0.000977112 0.00032581 1.32784
0.0005 0.000980235 0.00032581 0.829998
0.0005 0.000983075 0.00032581 0.497283
0.0005 0.000985656 0.00032581 0.28461
0.0005 0.000988002 0.00032581 0.154349
0.0005 0.000990136 0.00032581 0.0781981
0.0005 0.000992075 0.00032581 0.0361606
0.0005 0.000993838 0.00032581 0.0146823
0.0005 0.000995441 0.00032581 0.0048853
0.0005 0.000996898 0.00032581 0.00116188
0.0005 0.000998222 0.00032581 0.00014477
0.0005 0.000999427 0.00032581 4.34221e-06
0.0005 4.59758e-05 0.000416988 6.30077
0.0005 0.000133748 0.000416988 6.6245
0.0005 0.000213541 0.000416988 7.17852
0.0005 0.000286079 0.000416988 7.88405
0.0005 0.000352024 0.000416988 8.67736
0.0005 0.000411973 0.000416988 9.50925
0.0005 0.000466473 0.000416988 10.3434
0.0005 0.000516018 0.000416988 11.1543
0.0005 0.000561059 0.000416988 11.9247
0.0005 0.000602005 0.000416988 12.6444
0.0005 0.000639229 0.000416988 13.307
0.0005 0.000673069 0.000416988 13.9053
0.0005 0.000703833 0.000416988 14.4308
0.0005 0.000731799 0.000416988 14.8784
0.0005 0.000757224 0.000416988 15.2463
0.0005 0.000780337 0.000416988 15.5338
0.0005 0.000801349 0.000416988 15.7399
0.0005 0.000820451 0.000416988 15.8626
0.0005 0.000837816 0.000416988 15.8984
0.0005 0.000853602 0.000416988 15.8418
0.0005 0.000867954 0.000416988 15.6859
0.0005 0.000881001 0.000416988 15.4217
0.0005 0.000892861 0.000416988 15.0388
0.0005 0.000903644 0.000416988 14.5259
0.0005 0.000913446 0.000416988 13.8716
0.0005 0.000922357 0.000416988 13.0665
0.0005 0.000930458 0.000416988 12.1058
0.0005 0.000937823 0.000416988 10.9927
0.0005 0.000944518 0.000416988 9.74199
0.0005 0.000950604 0.000416988 8.38033
0.0005 0.000956137 0.000416988 6.94378
0.0005 0.000961167 0.000416988 5.50461
0.0005 0.00096574 0.000416988 4.15469
0.0005 0.000969897 0.000416988 2.98043
0.0005 0.000973676 0.000416988 2.03538
0.0005 0.000977112 0.000416988 1.32785
0.0005 0.000980235 0.000416988 0.830002
0.0005 0.000983075 0.000416988 0.497286
0.0005 0.000985656 0.000416988 0.284612
0.0005 0.000988002 0.000416988 0.154349
0.0005 0.000990136 0.000416988 0.0781985
0.0005 0.000992075 0.000416988 0.0361609
0.0005 0.000993838 0.000416988 0.0146823
0.0005 0.000995441 0.000416988 0.00488533
0.0005 0.000996898 0.000416988 0.00116189
0.0005 0.000998222 0.000416988 0.00014477
0.0005 0.000999427 0.000416988 4.34224e-06
0.0005 4.59758e-05 0.000507318 6.30076
0.0005 0.000133748 0.000507318 6.6245
0.0005 0.000213541 0.000507318 7.17852
0.0005 0.000286079 0.000507318 7.88405
0.0005 0.000352024 0.000507318 8.67736
0.0005 0.000411973 0.000507318 9.50926
0.0005 0.000466473 0.000507318 10.3434
0.0005 0.000516018 0.000507318 11.1543
0.0005 0.000561059 0.000507318 11.9247
0.0005 0.000602005 0.000507318 12.6444
0.0005 0.000639229 0.000507318 13.307
0.0005 0.000673069 0.000507318 13.9053
0.0005 0.000703833 0.000507318 14.4308
0.0005 0.000731799 0.000507318 14.8784
0.0005 0.000757224 0.000507318 15.2463
0.0005 0.000780337 0.000507318 15.5338
0.0005 0.000801349 0.000507318 15.7399
0.0005 0.000820451 0.000507318 15.8627
0.0005 0.000837816 0.000507318 15.8984
0.0005 0.000853602 0.000507318 15.8418
0.0005 0.000867954 0.000507318 15.6859
0.0005 0.000881001 0.000507318 15.4217
0.0005 0.000892861 0.000507318 15.0388
0.0005 0.000903644 0.000507318 14.5259
0.0005 0.000913446 0.000507318 13.8716
0.0005 0.000922357 0.000507318 13.0666
0.0005 0.000930458 0.000507318 12.1059
0.0005 0.000937823 0.000507318 10.9928
0.0005 0.000944518 0.000507318 9.74202
0.0005 0.000950604 0.000507318 8.38035
0.0005 0.000956137 0.000507318 6.9438
0.0005 0.000961167 0.000507318 5.50463
0.0005 0.00096574 0.000507318 4.15471
0.0005 0.000969897 0.000507318 2.98044
0.0005 0.000973676 0.000507318 2.03538
0.0005 0.000977112 0.000507318 1.32786
0.0005 0.000980235 0.000507318 0.830006
0.0005 0.000983075 0.000507318 0.497288
0.0005 0.000985656 0.000507318 0.284613
0.0005 0.000988002 0.000507318 0.15435
0.0005 0.000990136 0.000507318 0.0781989
0.0005 0.000992075 0.000507318 0.036161
0.0005 0.000993838 0.000507318 0.0146824
0.0005 0.000995441 0.000507318 0.00488535
0.0005 0.000996898 0.000507318 0.00116189
0.0005 0.000998222 0.000507318 0.000144771
0.0005 0.000999427 0.000507318 4.34225e-06
0.0005 4.59758e-05 0.000596807 6.30076
0.0005 0.000133748 0.000596807 6.62449
0.0005 0.000213541 0.000596807 7.17851
0.0005 0.000286079 0.000596807 7.88405
0.0005 0.000352024 0.000596807 8.67736
0.0005 0.000411973 0.000596807 9.50926
0.0005 0.000466473 0.000596807 10.3434
0.0005 0.000516018 0.000596807 11.1543
0.0005 0.000561059 0.000596807 11.9247
0.0005 0.000602005 0.000596807 12.6444
0.0005 0.000639229 0.000596807 13.307
0.0005 0.000673069 0.000596807 13.9053
0.0005 0.000703833 0.000596807 14.4308
0.0005 0.000731799 0.000596807 14.8784
0.0005 0.000757224 0.000596807 15.2463
0.0005 0.000780337 0.000596807 15.5338
0.0005 0.000801349 0.000596807 15.74
0.0005 0.000820451 0.000596807 15.8627
0.0005 0.000837816 0.000596807 15.8984
0.0005 0.000853602 0.000596807 15.8419
0.0005 0.000867954 0.000596807 15.6859
0.0005 0.000881001 0.000596807 15.4217
0.0005 0.000892861 0.000596807 15.0389
0.0005 0.000903644 0.000596807 14.5259
0.0005 0.000913446 0.000596807 13.8717
0.0005 0.000922357 0.000596807 13.0666
0.0005 0.000930458 0.000596807 12.1059
0.0005 0.000937823 0.000596807 10.9928
0.0005 0.000944518 0.000596807 9.74203
0.0005 0.000950604 0.000596807 8.38037
0.0005 0.000956137 0.000596807 6.94382
0.0005 0.000961167 0.000596807 5.50464
0.0005 0.00096574 0.000596807 4.15471
0.0005 0.000969897 0.000596807 2.98044
0.0005 0.000973676 0.000596807 2.03539
0.0005 0.000977112 0.000596807 1.32786
0.0005 0.000980235 0.000596807 0.830008
0.0005 0.000983075 0.000596807 0.497289
0.0005 0.000985656 0.000596807 0.284614
0.0005 0.000988002 0.000596807 0.15435
0.0005 0.000990136 0.000596807 0.0781991
0.0005 0.000992075 0.000596807 0.0361611
0.0005 0.000993838 0.000596807 0.0146824
0.0005 0.000995441 0.000596807 0.00488536
0.0005 0.000996898 0.000596807 0.0011619
0.0005 0.000998222 0.000596807 0.000144771
0.0005 0.000999427 0.000596807 4.34226e-06
0.0005 4.59758e-05 0.000685463 6.30075
0.0005 0.000133748 0.000685463 6.62448
0.0005 0.000213541 0.000685463 7.17851
0.0005 0.000286079 0.000685463 7.88405
0.0005 0.000352024 0.000685463 8.67736
0.0005 0.000411973 0.000685463 9.50926
0.0005 0.000466473 0.000685463 10.3434
0.0005 0.000516018 0.000685463 11.1543
0.0005 0.000561059 0.000685463 11.9247
0.0005 0.000602005 0.000685463 12.6444
0.0005 0.000639229 0.000685463 13.307
0.0005 0.000673069 0.000685463 13.9053
0.0005 0.000703833 0.000685463 14.4308
0.0005 0.000731799 0.000685463 14.8784
0.0005 0.000757224 0.000685463 15.2464
0.0005 0.000780337 0.000685463 15.5338
0.0005 0.000801349 0.000685463 15.74
0.0005 0.000820451 0.000685463 15.8627
0.0005 0.000837816 0.000685463 15.8984
0.0005 0.000853602 0.000685463 15.8419
0.0005 0.000867954 0.000685463 15.6859
0.0005 0.000881001 0.000685463 15.4217
0.0005 0.000892861 0.000685463 15.0389
0.0005 0.000903644 0.000685463 14.5259
0.0005 0.000913446 0.000685463 13.8717
0.0005 0.000922357 0.000685463 13.0666
0.0005 0.000930458 0.000685463 12.1059
0.0005 0.000937823 0.000685463 10.9928
0.0005 0.000944518 0.000685463 9.74204
0.0005 0.000950604 0.000685463 8.38037
0.0005 0.000956137 0.000685463 6.94382
0.0005 0.000961167 0.000685463 5.50464
0.0005 0.00096574 0.000685463 4.15472
0.0005 0.000969897 0.000685463 2.98044
0.0005 0.000973676 0.000685463 2.03539
0.0005 0.000977112 0.000685463 1.32786
0.0005 0.000980235 0.000685463 0.830008
0.0005 0.000983075 0.000685463 0.497289
0.0005 0.000985656 0.000685463 0.284614
0.0005 0.000988002 0.000685463 0.154351
0.0005 0.000990136 0.000685463 0.0781991
0.0005 0.000992075 0.000685463 0.0361611
0.0005 0.000993838 0.000685463 0.0146824
0.0005 0.000995441 0.000685463 0.00488537
0.0005 0.000996898 0.000685463 0.0011619
0.0005 0.000998222 0.000685463 0.000144772
0.0005 0.000999427 0.000685463 4.34227e-06
0.0005 4.59758e-05 0.000773295 6.30074
0.0005 0.000133748 0.000773295 6.62447
0.0005 0.000213541 0.000773295 7.1785
0.0005 0.000286079 0.000773295 7.88403
0.0005 0.000352024 0.000773295 8.67735
0.0005 0.000411973 0.000773295 9.50925
0.0005 0.000466473 0.000773295 10.3434
0.0005 0.000516018 0.000773295 11.1543
0.0005 0.000561059 0.000773295 11.9247
0.0005 0.000602005 0.000773295 12.6444
0.0005 0.000639229 0.000773295 13.307
0.0005 0.000673069 0.000773295 13.9053
0.0005 0.000703833 0.000773295 14.4308
0.0005 0.000731799 0.000773295 14.8784
0.0005 0.000757224 0.000773295 15.2463
0.0005 0.000780337 0.000773295 15.5338
0.0005 0.000801349 0.000773295 15.74
0.0005 0.000820451 0.000773295 15.8627
0.0005 0.000837816 0.000773295 15.8984
0.0005 0.000853602 0.000773295 15.8419
0.0005 0.000867954 0.000773295 15.6859
0.0005 0.000881001 0.000773295 15.4217
0.0005 0.000892861 0.000773295 15.0388
0.0005 0.000903644 0.000773295 14.5259
0.0005 0.000913446 0.000773295 13.8717
0.0005 0.000922357 0.000773295 13.0666
0.0005 0.000930458 0.000773295 12.1059
0.0005 0.000937823 0.000773295 10.9928
0.0005 0.000944518 0.000773295 9.74203
0.0005 0.000950604 0.000773295 8.38037
0.0005 0.000956137 0.000773295 6.94382
0.0005 0.000961167 0.000773295 5.50464
0.0005 0.00096574 0.000773295 4.15471
0.0005 0.000969897 0.000773295 2.98044
0.0005 0.000973676 0.000773295 2.03539
0.0005 0.000977112 0.000773295 1.32786
0.0005 0.000980235 0.000773295 0.830008
0.0005 0.000983075 0.000773295 0.497289
0.0005 0.000985656 0.000773295 0.284614
0.0005 0.000988002 0.000773295 0.15435
0.0005 0.000990136 0.000773295 0.078199
0.0005 0.000992075 0.000773295 0.0361611
0.0005 0.000993838 0.000773295 0.0146824
0.0005 0.000995441 0.000773295 0.00488536
0.0005 0.000996898 0.000773295 0.0011619
0.0005 0.000998222 0.000773295 0.000144771
0.0005 0.000999427 0.000773295 4.34226e-06
0.0005 4.59758e-05 0.00086031 6.30072
0.0005 0.000133748 0.00086031 6.62445
0.0005 0.000213541 0.00086031 7.17848
0.0005 0.000286079 0.00086031 7.88402
0.0005 0.000352024 0.00086031 8.67733
0.0005 0.000411973 0.00086031 9.50923
0.0005 0.000466473 0.00086031 10.3434
0.0005 0.000516018 0.00086031 11.1543
0.0005 0.000561059 0.00086031 11.9247
0.0005 0.000602005 0.00086031 12.6444
0.0005 0.000639229 0.00086031 13.307
0.0005 0.000673069 0.00086031 13.9053
0.0005 0.000703833 0.00086031 14.4308
0.0005 0.000731799 0.00086031 14.8784
0.0005 0.000757224 0.00086031 15.2463
0.0005 0.000780337 0.00086031 15.5338
0.0005 0.000801349 0.00086031 15.7399
0.0005 0.000820451 0.00086031 15.8627
0.0005 0.000837816 0.00086031 15.8984
0.0005 0.000853602 0.00086031 15.8418
0.0005 0.000867954 0.00086031 15.6859
0.0005 0.000881001 0.00086031 15.4217
0.0005 0.000892861 0.00086031 15.0388
0.0005 0.000903644 0.00086031 14.5259
0.0005 0.000913446 0.00086031 13.8716
0.0005 0.000922357 0.00086031 13.0666
0.0005 0.000930458 0.00086031 12.1059
0.0005 0.000937823 0.00086031 10.9928
0.0005 0.000944518 0.00086031 9.74201
0.0005 0.000950604 0.00086031 8.38035
0.0005 0.000956137 0.00086031 6.9438
0.0005 0.000961167 0.00086031 5.50462
0.0005 0.00096574 0.00086031 4.1547
0.0005 0.000969897 0.00086031 2.98044
0.0005 0.000973676 0.00086031 2.03538
0.0005 0.000977112 0.00086031 1.32786
0.0005 0.000980235 0.00086031 0.830006
0.0005 0.000983075 0.00086031 0.497288
0.0005 0.000985656 0.00086031 0.284613
0.0005 0.000988002 0.00086031 0.15435
0.0005 0.000990136 0.00086031 0.0781988
0.0005 0.000992075 0.00086031 0.036161
0.0005 0.000993838 0.00086031 0.0146824
0.0005 0.000995441 0.00086031 0.00488535
0.0005 0.000996898 0.00086031 0.00116189
0.0005 0.000998222 0.00086031 0.000144771
0.0005 0.000999427 0.00086031 4.34225e-06
0.0005 4.59758e-05 0.000946515 6.3007
0.0005 0.000133748 0.000946515 6.62443
0.0005 0.000213541 0.000946515 7.17846
0.0005 0.000286079 0.000946515 7.884
0.0005 0.000352024 0.000946515 8.67731
0.0005 0.000411973 0.000946515 9.50921
0.0005 0.000466473 0.000946515 10.3434
0.0005 0.000516018 0.000946515 11.1542
0.0005 0.000561059 0.000946515 11.9247
0.0005 0.000602005 0.000946515 12.6443
0.0005 0.000639229 0.000946515 13.307
0.0005 0.000673069 0.000946515 13.9053
0.0005 0.000703833 0.000946515 14.4307
0.0005 0.000731799 0.000946515 14.8784
0.0005 0.000757224 0.000946515 15.2463
0.0005 0.000780337 0.000946515 15.5338
0.0005 0.000801349 0.000946515 15.7399
0.0005 0.000820451 0.000946515 15.8626
0.0005 0.000837816 0.000946515 15.8984
0.0005 0.000853602 0.000946515 15.8418
0.0005 0.000867954 0.000946515 15.6859
0.0005 0.000881001 0.000946515 15.4217
0.0005 0.000892861 0.000946515 15.0388
0.0005 0.000903644 0.000946515 14.5259
0.0005 0.000913446 0.000946515 13.8716
0.0005 0.000922357 0.000946515 13.0665
0.0005 0.000930458 0.000946515 12.1058
0.0005 0.000937823 0.000946515 10.9927
0.0005 0.000944518 0.000946515 9.74199
0.0005 0.000950604 0.000946515 8.38033
0.0005 0.000956137 0.000946515 6.94378
0.0005 0.000961167 0.000946515 5.50461
0.0005 0.00096574 0.000946515 4.15469
0.0005 0.000969897 0.000946515 2.98042
0.0005 0.000973676 0.000946515 2.03538
0.0005 0.000977112 0.000946515 1.32785
0.0005 0.000980235 0.000946515 0.830002
0.0005 0.000983075 0.000946515 0.497286
0.0005 0.000985656 0.000946515 0.284612
0.0005 0.000988002 0.000946515 0.154349
0.0005 0.000990136 0.000946515 0.0781985
0.0005 0.000992075 0.000946515 0.0361608
0.0005 0.000993838 0.000946515 0.0146823
0.0005 0.000995441 0.000946515 0.00488533
0.0005 0.000996898 0.000946515 0.00116189
0.0005 0.000998222 0.000946515 0.00014477
0.0005 0.000999427 0.000946515 4.34223e-06
0.0005 4.59758e-05 0.00103192 6.30067
0.0005 0.000133748 0.00103192 6.62441
0.0005 0.000213541 0.00103192 7.17843
0.0005 0.000286079 0.00103192 7.88397
0.0005 0.000352024 0.00103192 8.67728
0.0005 0.000411973 0.00103192 9.50918
0.0005 0.000466473 0.00103192 10.3433
0.0005 0.000516018 0.00103192 11.1542
0.0005 0.000561059 0.00103192 11.9247
0.0005 0.000602005 0.00103192 12.6443
0.0005 0.000639229 0.00103192 13.3069
0.0005 0.000673069 0.00103192 13.9052
0.0005 0.000703833 0.00103192 14.4307
0.0005 0.000731799 0.00103192 14.8783
0.0005 0.000757224 0.00103192 15.2463
0.0005 0.000780337 0.00103192 15.5337
0.0005 0.000801349 0.00103192 15.7399
0.0005 0.000820451 0.00103192 15.8626
0.0005 0.000837816 0.00103192 15.8983
0.0005 0.000853602 0.00103192 15.8418
0.0005 0.000867954 0.00103192 15.6858
0.0005 0.000881001 0.00103192 15.4216
0.0005 0.000892861 0.00103192 15.0388
0.0005 0.000903644 0.00103192 14.5258
0.0005 0.000913446 0.00103192 13.8716
0.0005 0.000922357 0.00103192 13.0665
0.0005 0.000930458 0.00103192 12.1058
0.0005 0.000937823 0.00103192 10.9927
0.0005 0.000944518 0.00103192 9.74195
0.0005 0.000950604 0.00103192 8.3803
0.0005 0.000956137 0.00103192 6.94375
0.0005 0.000961167 0.00103192 5.50458
0.0005 0.00096574 0.00103192 4.15467
0.0005 0.000969897 0.00103192 2.98041
0.0005 0.000973676 0.00103192 2.03536
0.0005 0.000977112 0.00103192 1.32784
0.0005 0.000980235 0.00103192 0.829997
0.0005 0.000983075 0.00103192 0.497283
0.0005 0.000985656 0.00103192 0.28461
0.0005 0.000988002 0.00103192 0.154348
0.0005 0.000990136 0.00103192 0.078198
0.0005 0.000992075 0.00103192 0.0361606
0.0005 0.000993838 0.00103192 0.0146822
0.0005 0.000995441 0.00103192 0.0048853
0.0005 0.000996898 0.00103192 0.00116188
0.0005 0.000998222 0.00103192 0.00014477
0.0005 0.000999427 0.00103192 4.34221e-06
0.0005 4.59758e-05 0.00111653 6.30064
0.0005 0.000133748 0.00111653 6.62438
0.0005 0.000213541 0.00111653 7.1784
0.0005 0.000286079 0.00111653 7.88393
0.0005 0.000352024 0.00111653 8.67724
0.0005 0.000411973 0.00111653 9.50914
0.0005 0.000466473 0.00111653 10.3433
0.0005 0.000516018 0.00111653 11.1542
0.0005 0.000561059 0.00111653 11.9246
0.0005 0.000602005 0.00111653 12.6443
0.0005 0.000639229 0.00111653 13.3069
0.0005 0.000673069 0.00111653 13.9052
0.0005 0.000703833 0.00111653 14.4307
0.0005 0.000731799 0.00111653 14.8783
0.0005 0.000757224 0.00111653 15.2462
0.0005 0.000780337 0.00111653 15.5337
0.0005 0.000801349 0.00111653 15.7398
0.0005 0.000820451 0.00111653 15.8625
0.0005 0.000837816 0.00111653 15.8983
0.0005 0.000853602 0.00111653 15.8417
0.0005 0.000867954 0.00111653 15.6858
0.0005 0.000881001 0.00111653 15.4216
0.0005 0.000892861 0.00111653 15.0387
0.0005 0.000903644 0.00111653 14.5258
0.0005 0.000913446 0.00111653 13.8715
0.0005 0.000922357 0.00111653 13.0664
0.0005 0.000930458 0.00111653 12.1057
0.0005 0.000937823 0.00111653 10.9927
0.0005 0.000944518 0.00111653 9.74191
0.0005 0.000950604 0.00111653 8.38025
0.0005 0.000956137 0.00111653 6.94371
0.0005 0.000961167 0.00111653 5.50455
0.0005 0.00096574 0.00111653 4.15464
0.0005 0.000969897 0.00111653 2.98039
0.0005 0.000973676 0.00111653 2.03535
0.0005 0.000977112 0.00111653 1.32784
0.0005 0.000980235 0.00111653 0.829991
0.0005 0.000983075 0.00111653 0.497279
0.0005 0.000985656 0.00111653 0.284608
0.0005 0.000988002 0.00111653 0.154347
0.0005 0.000990136 0.00111653 0.0781975
0.0005 0.000992075 0.00111653 0.0361604
0.0005 0.000993838 0.00111653 0.0146821
0.0005 0.000995441 0.00111653 0.00488526
0.0005 0.000996898 0.00111653 0.00116187
0.0005 0.000998222 0.00111653 0.000144768
0.0005 0.000999427 0.00111653 4.34218e-06
0.0005 4.59758e-05 0.00120035 6.3006
0.0005 0.000133748 0.00120035 6.62434
0.0005 0.000213541 0.00120035 7.17836
0.0005 0.000286079 0.00120035 7.88389
0.0005 0.000352024 0.00120035 8.6772
0.0005 0.000411973 0.00120035 9.5091
0.0005 0.000466473 0.00120035 10.3433
0.0005 0.000516018 0.00120035 11.1541
0.0005 0.000561059 0.00120035 11.9246
0.0005 0.000602005 0.00120035 12.6442
0.0005 0.000639229 0.00120035 13.3068
0.0005 0.000673069 0.00120035 13.9051
0.0005 0.000703833 0.00120035 14.4306
0.0005 0.000731799 0.00120035 14.8782
0.0005 0.000757224 0.00120035 15.2461
0.0005 0.000780337 0.00120035 15.5336
0.0005 0.000801349 0.00120035 15.7398
0.0005 0.000820451 0.00120035 15.8625
0.0005 0.000837816 0.00120035 15.8982
0.0005 0.000853602 0.00120035 15.8416
0.0005 0.000867954 0.00120035 15.6857
0.0005 0.000881001 0.00120035 15.4215
0.0005 0.000892861 0.00120035 15.0386
0.0005 0.000903644 0.00120035 14.5257
0.0005 0.000913446 0.00120035 13.8714
0.0005 0.000922357 0.00120035 13.0664
0.0005 0.000930458 0.00120035 12.1057
0.0005 0.000937823 0.00120035 10.9926
0.0005 0.000944518 0.00120035 9.74185
0.0005 0.000950604 0.00120035 8.3802
0.0005 0.000956137 0.00120035 6.94367
0.0005 0.000961167 0.00120035 5.50451
0.0005 0.00096574 0.00120035 4.15461
0.0005 0.000969897 0.00120035 2.98037
0.0005 0.000973676 0.00120035 2.03533
0.0005 0.000977112 0.00120035 1.32782
0.0005 0.000980235 0.00120035 0.829984
0.0005 0.000983075 0.00120035 0.497275
0.0005 0.000985656 0.00120035 0.284606
0.0005 0.000988002 0.00120035 0.154346
0.0005 0.000990136 0.00120035 0.0781968
0.0005 0.000992075 0.00120035 0.03616
0.0005 0.000993838 0.00120035 0.014682
0.0005 0.000995441 0.00120035 0.00488522
0.0005 0.000996898 0.00120035 0.00116186
0.0005 0.000998222 0.00120035 0.000144767
0.0005 0.000999427 0.00120035 4.34214e-06
0.0005 4.59758e-05 0.00128339 6.30056
0.0005 0.000133748 0.00128339 6.6243
0.0005 0.000213541 0.00128339 7.17832
0.0005 0.000286079 0.00128339 7.88385
0.0005 0.000352024 0.00128339 8.67715
0.0005 0.000411973 0.00128339 9.50904
0.0005 0.000466473 0.00128339 10.3432
0.0005 0.000516018 0.00128339 11.154
0.0005 0.000561059 0.00128339 11.9245
0.0005 0.000602005 0.00128339 12.6441
0.0005 0.000639229 0.00128339 13.3068
0.0005 0.000673069 0.00128339 13.9051
0.0005 0.000703833 0.00128339 14.4305
0.0005 0.000731799 0.00128339 14.8782
0.0005 0.000757224 0.00128339 15.2461
0.0005 0.000780337 0.00128339 15.5336
0.0005 0.000801349 0.00128339 15.7397
0.0005 0.000820451 0.00128339 15.8624
0.0005 0.000837816 0.00128339 15.8981
0.0005 0.000853602 0.00128339 15.8416
0.0005 0.000867954 0.00128339 15.6856
0.0005 0.000881001 0.00128339 15.4214
0.0005 0.000892861 0.00128339 15.0386
0.0005 0.000903644 0.00128339 14.5256
0.0005 0.000913446 0.00128339 13.8714
0.0005 0.000922357 0.00128339 13.0663
0.0005 0.000930458 0.00128339 12.1056
0.0005 0.000937823 0.00128339 10.9925
0.0005 0.000944518 0.00128339 9.74179
0.0005 0.000950604 0.00128339 8.38014
0.0005 0.000956137 0.00128339 6.94362
0.0005 0.000961167 0.00128339 5.50447
0.0005 0.00096574 0.00128339 4.15458
0.0005 0.000969897 0.00128339 2.98034
0.0005 0.000973676 0.00128339 2.03531
0.0005 0.000977112 0.00128339 1.32781
0.0005 0.000980235 0.00128339 0.829976
0.0005 0.000983075 0.00128339 0.49727
0.0005 0.000985656 0.00128339 0.284603
0.0005 0.000988002 0.00128339 0.154344
0.0005 0.000990136 0.00128339 0.0781959
0.0005 0.000992075 0.00128339 0.0361597
0.0005 0.000993838 0.00128339 0.0146819
0.0005 0.000995441 0.00128339 0.00488517
0.0005 0.000996898 0.00128339 0.00116185
0.0005 0.000998222 0.00128339 0.000144766
0.0005 0.000999427 0.00128339 4.34209e-06
0.0005 4.59758e-05 0.00136566 6.30052
0.0005 0.000133748 0.00136566 6.62425
0.0005 0.000213541 0.00136566 7.17826
0.0005 0.000286079 0.00136566 7.88379
0.0005 0.000352024 0.00136566 8.67709
0.0005 0.000411973 0.00136566 9.50898
0.0005 0.000466473 0.00136566 10.3431
0.0005 0.000516018 0.00136566 11.154
0.0005 0.000561059 0.00136566 11.9244
0.0005 0.000602005 0.00136566 12.6441
0.0005 0.000639229 0.00136566 13.3067
0.0005 0.000673069 0.00136566 13.905
0.0005 0.000703833 0.00136566 14.4304
0.0005 0.000731799 0.00136566 14.8781
0.0005 0.000757224 0.00136566 15.246
0.0005 0.000780337 0.00136566 15.5335
0.0005 0.000801349 0.00136566 15.7396
0.0005 0.000820451 0.00136566 15.8623
0.0005 0.000837816 0.00136566 15.898
0.0005 0.000853602 0.00136566 15.8415
0.0005 0.000867954 0.00136566 15.6855
0.0005 0.000881001 0.00136566 15.4213
0.0005 0.000892861 0.00136566 15.0385
0.0005 0.000903644 0.00136566 14.5256
0.0005 0.000913446 0.00136566 13.8713
0.0005 0.000922357 0.00136566 13.0662
0.0005 0.000930458 0.00136566 12.1055
0.0005 0.000937823 0.00136566 10.9925
0.0005 0.000944518 0.00136566 9.74172
0.0005 0.000950604 0.00136566 8.38008
0.0005 0.000956137 0.00136566 6.94356
0.0005 0.000961167 0.00136566 5.50441
0.0005 0.00096574 0.00136566 4.15453
0.0005 0.000969897 0.00136566 2.98031
0.0005 0.000973676 0.00136566 2.03529
0.0005 0.000977112 0.00136566 1.32779
0.0005 0.000980235 0.00136566 0.829966
0.0005 0.000983075 0.00136566 0.497264
0.0005 0.000985656 0.00136566 0.284599
0.0005 0.000988002 0.00136566 0.154342
0.0005 0.000990136 0.00136566 0.078195
0.0005 0.000992075 0.00136566 0.0361592
0.0005 0.000993838 0.00136566 0.0146817
0.0005 0.000995441 0.00136566 0.00488511
0.0005 0.000996898 0.00136566 0.00116184
0.0005 0.000998222 0.00136566 0.000144764
0.0005 0.000999427 0.00136566 4.34204e-06
0.0005 4.59758e-05 0.00144716 6.30046
0.0005 0.000133748 0.00144716 6.62419
0.0005 0.000213541 0.00144716 7.17821
0.0005 0.000286079 0.00144716 7.88373
0.0005 0.000352024 0.00144716 8.67703
0.0005 0.000411973 0.00144716 9.50891
0.0005 0.000466473 0.00144716 10.3431
0.0005 0.000516018 0.00144716 11.1539
0.0005 0.000561059 0.00144716 11.9243
0.0005 0.000602005 0.00144716 12.644
0.0005 0.000639229 0.00144716 13.3066
0.0005 0.000673069 0.00144716 13.9049
0.0005 0.000703833 0.00144716 14.4304
0.0005 0.000731799 0.00144716 14.878
0.0005 0.000757224 0.00144716 15.2459
0.0005 0.000780337 0.00144716 15.5334
0.0005 0.000801349 0.00144716 15.7395