# omega  FACE_DATA 22090
#  x  y  z  omega
0.0005 4.59758e-05 4.71048e-05 20185.1
0.0005 0.000133748 4.71048e-05 21613.5
0.0005 0.000213541 4.71048e-05 24161.5
0.0005 0.000286079 4.71048e-05 27618.8
0.0005 0.000352024 4.71048e-05 31845.8
0.0005 0.000411973 4.71048e-05 36763.5
0.0005 0.000466473 4.71048e-05 42341
0.0005 0.000516018 4.71048e-05 48586.6
0.0005 0.000561059 4.71048e-05 55546.6
0.0005 0.000602005 4.71048e-05 63315.4
0.0005 0.000639229 4.71048e-05 72023.7
0.0005 0.000673069 4.71048e-05 81780.8
0.0005 0.000703833 4.71048e-05 92684.2
0.0005 0.000731799 4.71048e-05 104878
0.0005 0.000757224 4.71048e-05 118565
0.0005 0.000780337 4.71048e-05 134011
0.0005 0.000801349 4.71048e-05 151537
0.0005 0.000820451 4.71048e-05 171522
0.0005 0.000837816 4.71048e-05 194414
0.0005 0.000853602 4.71048e-05 220735
0.0005 0.000867954 4.71048e-05 251091
0.0005 0.000881001 4.71048e-05 286185
0.0005 0.000892861 4.71048e-05 326830
0.0005 0.000903644 4.71048e-05 373966
0.0005 0.000913446 4.71048e-05 428680
0.0005 0.000922357 4.71048e-05 492247
0.0005 0.000930458 4.71048e-05 566213
0.0005 0.000937823 4.71048e-05 652578
0.0005 0.000944518 4.71048e-05 754134
0.0005 0.000950604 4.71048e-05 875068
0.0005 0.000956137 4.71048e-05 1.02185e+06
0.0005 0.000961167 4.71048e-05 1.20403e+06
0.0005 0.00096574 4.71048e-05 1.43641e+06
0.0005 0.000969897 4.71048e-05 1.74312e+06
0.0005 0.000973676 4.71048e-05 2.16229e+06
0.0005 0.000977112 4.71048e-05 2.75297e+06
0.0005 0.000980235 4.71048e-05 3.60706e+06
0.0005 0.000983075 4.71048e-05 4.87252e+06
0.0005 0.000985656 4.71048e-05 6.80023e+06
0.0005 0.000988002 4.71048e-05 9.8433e+06
0.0005 0.000990136 4.71048e-05 1.48832e+07
0.0005 0.000992075 4.71048e-05 2.37984e+07
0.0005 0.000993838 4.71048e-05 4.10991e+07
0.0005 0.000995441 4.71048e-05 7.95341e+07
0.0005 0.000996898 4.71048e-05 1.84801e+08
0.0005 0.000998222 4.71048e-05 5.94343e+08
0.0005 0.000999427 4.71048e-05 3.64963e+09
0.0005 4.59758e-05 0.000140876 20185.1
0.0005 0.000133748 0.000140876 21613.5
0.0005 0.000213541 0.000140876 24161.5
0.0005 0.000286079 0.000140876 27618.8
0.0005 0.000352024 0.000140876 31845.9
0.0005 0.000411973 0.000140876 36763.5
0.0005 0.000466473 0.000140876 42341.1
0.0005 0.000516018 0.000140876 48586.6
0.0005 0.000561059 0.000140876 55546.6
0.0005 0.000602005 0.000140876 63315.5
0.0005 0.000639229 0.000140876 72023.8
0.0005 0.000673069 0.000140876 81780.9
0.0005 0.000703833 0.000140876 92684.4
0.0005 0.000731799 0.000140876 104878
0.0005 0.000757224 0.000140876 118565
0.0005 0.000780337 0.000140876 134012
0.0005 0.000801349 0.000140876 151537
0.0005 0.000820451 0.000140876 171522
0.0005 0.000837816 0.000140876 194414
0.0005 0.000853602 0.000140876 220736
0.0005 0.000867954 0.000140876 251092
0.0005 0.000881001 0.000140876 286185
0.0005 0.000892861 0.000140876 326831
0.0005 0.000903644 0.000140876 373967
0.0005 0.000913446 0.000140876 428681
0.0005 0.000922357 0.000140876 492248
0.0005 0.000930458 0.000140876 566214
0.0005 0.000937823 0.000140876 652579
0.0005 0.000944518 0.000140876 754135
0.0005 0.000950604 0.000140876 875070
0.0005 0.000956137 0.000140876 1.02185e+06
0.0005 0.000961167 0.000140876 1.20403e+06
0.0005 0.00096574 0.000140876 1.43641e+06
0.0005 0.000969897 0.000140876 1.74312e+06
0.0005 0.000973676 0.000140876 2.16229e+06
0.0005 0.000977112 0.000140876 2.75297e+06
0.0005 0.000980235 0.000140876 3.60706e+06
0.0005 0.000983075 0.000140876 4.87252e+06
0.0005 0.000985656 0.000140876 6.80023e+06
0.0005 0.000988002 0.000140876 9.8433e+06
0.0005 0.000990136 0.000140876 1.48832e+07
0.0005 0.000992075 0.000140876 2.37984e+07
0.0005 0.000993838 0.000140876 4.10991e+07
0.0005 0.000995441 0.000140876 7.95341e+07
0.0005 0.000996898 0.000140876 1.84801e+08
0.0005 0.000998222 0.000140876 5.94343e+08
0.0005 0.000999427 0.000140876 3.64963e+09
0.0005 4.59758e-05 0.000233775 20185.1
0.0005 0.000133748 0.000233775 21613.6
0.0005 0.000213541 0.000233775 24161.5
0.0005 0.000286079 0.000233775 27618.8
0.0005 0.000352024 0.000233775 31845.9
0.0005 0.000411973 0.000233775 36763.6
0.0005 0.000466473 0.000233775 42341.1
0.0005 0.000516018 0.000233775 48586.7
0.0005 0.000561059 0.000233775 55546.7
0.0005 0.000602005 0.000233775 63315.6
0.0005 0.000639229 0.000233775 72023.9
0.0005 0.000673069 0.000233775 81781.1
0.0005 0.000703833 0.000233775 92684.6
0.0005 0.000731799 0.000233775 104878
0.0005 0.000757224 0.000233775 118566
0.0005 0.000780337 0.000233775 134012
0.0005 0.000801349 0.000233775 151538
0.0005 0.000820451 0.000233775 171523
0.0005 0.000837816 0.000233775 194415
0.0005 0.000853602 0.000233775 220736
0.0005 0.000867954 0.000233775 251092
0.0005 0.000881001 0.000233775 286186
0.0005 0.000892861 0.000233775 326831
0.0005 0.000903644 0.000233775 373968
0.0005 0.000913446 0.000233775 428682
0.0005 0.000922357 0.000233775 492249
0.0005 0.000930458 0.000233775 566215
0.0005 0.000937823 0.000233775 652580
0.0005 0.000944518 0.000233775 754136
0.0005 0.000950604 0.000233775 875071
0.0005 0.000956137 0.000233775 1.02185e+06
0.0005 0.000961167 0.000233775 1.20403e+06
0.0005 0.00096574 0.000233775 1.43641e+06
0.0005 0.000969897 0.000233775 1.74312e+06
0.0005 0.000973676 0.000233775 2.16229e+06
0.0005 0.000977112 0.000233775 2.75297e+06
0.0005 0.000980235 0.000233775 3.60707e+06
0.0005 0.000983075 0.000233775 4.87252e+06
0.0005 0.000985656 0.000233775 6.80023e+06
0.0005 0.000988002 0.000233775 9.84331e+06
0.0005 0.000990136 0.000233775 1.48832e+07
0.0005 0.000992075 0.000233775 2.37984e+07
0.0005 0.000993838 0.000233775 4.10991e+07
0.0005 0.000995441 0.000233775 7.95341e+07
0.0005 0.000996898 0.000233775 1.84801e+08
0.0005 0.000998222 0.000233775 5.94343e+08
0.0005 0.000999427 0.000233775 3.64963e+09
0.0005 4.59758e-05 0.00032581 20185.1
0.0005 0.000133748 0.00032581 21613.6
0.0005 0.000213541 0.00032581 24161.5
0.0005 0.000286079 0.00032581 27618.8
0.0005 0.000352024 0.00032581 31845.9
0.0005 0.000411973 0.00032581 36763.6
0.0005 0.000466473 0.00032581 42341.2
0.0005 0.000516018 0.00032581 48586.7
0.0005 0.000561059 0.00032581 55546.8
0.0005 0.000602005 0.00032581 63315.7
0.0005 0.000639229 0.00032581 72024
0.0005 0.000673069 0.00032581 81781.2
0.0005 0.000703833 0.00032581 92684.7
0.0005 0.000731799 0.00032581 104878
0.0005 0.000757224 0.00032581 118566
0.0005 0.000780337 0.00032581 134012
0.0005 0.000801349 0.00032581 151538
0.0005 0.000820451 0.00032581 171523
0.0005 0.000837816 0.00032581 194415
0.0005 0.000853602 0.00032581 220736
0.0005 0.000867954 0.00032581 251093
0.0005 0.000881001 0.00032581 286186
0.0005 0.000892861 0.00032581 326832
0.0005 0.000903644 0.00032581 373968
0.0005 0.000913446 0.00032581 428683
0.0005 0.000922357 0.00032581 492249
0.0005 0.000930458 0.00032581 566216
0.0005 0.000937823 0.00032581 652581
0.0005 0.000944518 0.00032581 754137
0.0005 0.000950604 0.00032581 875072
0.0005 0.000956137 0.00032581 1.02185e+06
0.0005 0.000961167 0.00032581 1.20403e+06
0.0005 0.00096574 0.00032581 1.43642e+06
0.0005 0.000969897 0.00032581 1.74312e+06
0.0005 0.000973676 0.00032581 2.16229e+06
0.0005 0.000977112 0.00032581 2.75297e+06
0.0005 0.000980235 0.00032581 3.60707e+06
0.0005 0.000983075 0.00032581 4.87253e+06
0.0005 0.000985656 0.00032581 6.80023e+06
0.0005 0.000988002 0.00032581 9.84331e+06
0.0005 0.000990136 0.00032581 1.48832e+07
0.0005 0.000992075 0.00032581 2.37984e+07
0.0005 0.000993838 0.00032581 4.10991e+07
0.0005 0.000995441 0.00032581 7.95341e+07
0.0005 0.000996898 0.00032581 1.84801e+08
0.0005 0.000998222 0.00032581 5.94343e+08
0.0005 0.000999427 0.00032581 3.64963e+09
0.0005 4.59758e-05 0.000416988 20185.1
0.0005 0.000133748 0.000416988 21613.6
0.0005 0.000213541 0.000416988 24161.5
0.0005 0.000286079 0.000416988 27618.9
0.0005 0.000352024 0.000416988 31846
0.0005 0.000411973 0.000416988 36763.7
0.0005 0.000466473 0.000416988 42341.2
0.0005 0.000516018 0.000416988 48586.8
0.0005 0.000561059 0.000416988 55546.8
0.0005 0.000602005 0.000416988 63315.8
0.0005 0.000639229 0.000416988 72024.1
0.0005 0.000673069 0.000416988 81781.4
0.0005 0.000703833 0.000416988 92684.9
0.0005 0.000731799 0.000416988 104878
0.0005 0.000757224 0.000416988 118566
0.0005 0.000780337 0.000416988 134012
0.0005 0.000801349 0.000416988 151538
0.0005 0.000820451 0.000416988 171523
0.0005 0.000837816 0.000416988 194415
0.0005 0.000853602 0.000416988 220737
0.0005 0.000867954 0.000416988 251093
0.0005 0.000881001 0.000416988 286187
0.0005 0.000892861 0.000416988 326832
0.0005 0.000903644 0.000416988 373969
0.0005 0.000913446 0.000416988 428683
0.0005 0.000922357 0.000416988 492250
0.0005 0.000930458 0.000416988 566216
0.0005 0.000937823 0.000416988 652581
0.0005 0.000944518 0.000416988 754138
0.0005 0.000950604 0.000416988 875073
0.0005 0.000956137 0.000416988 1.02185e+06
0.0005 0.000961167 0.000416988 1.20403e+06
0.0005 0.00096574 0.000416988 1.43642e+06
0.0005 0.000969897 0.000416988 1.74312e+06
0.0005 0.000973676 0.000416988 2.16229e+06
0.0005 0.000977112 0.000416988 2.75297e+06
0.0005 0.000980235 0.000416988 3.60707e+06
0.0005 0.000983075 0.000416988 4.87253e+06
0.0005 0.000985656 0.000416988 6.80023e+06
0.0005 0.000988002 0.000416988 9.84331e+06
0.0005 0.000990136 0.000416988 1.48832e+07
0.0005 0.000992075 0.000416988 2.37984e+07
0.0005 0.000993838 0.000416988 4.10991e+07
0.0005 0.000995441 0.000416988 7.95341e+07
0.0005 0.000996898 0.000416988 1.84801e+08
0.0005 0.000998222 0.000416988 5.94343e+08
0.0005 0.000999427 0.000416988 3.64963e+09
0.0005 4.59758e-05 0.000507318 20185.2
0.0005 0.000133748 0.000507318 21613.6
0.0005 0.000213541 0.000507318 24161.5
0.0005 0.000286079 0.000507318 27618.9
0.0005 0.000352024 0.000507318 31846
0.0005 0.000411973 0.000507318 36763.7
0.0005 0.000466473 0.000507318 42341.3
0.0005 0.000516018 0.000507318 48586.9
0.0005 0.000561059 0.000507318 55546.9
0.0005 0.000602005 0.000507318 63315.9
0.0005 0.000639229 0.000507318 72024.2
0.0005 0.000673069 0.000507318 81781.5
0.0005 0.000703833 0.000507318 92685
0.0005 0.000731799 0.000507318 104878
0.0005 0.000757224 0.000507318 118566
0.0005 0.000780337 0.000507318 134012
0.0005 0.000801349 0.000507318 151538
0.0005 0.000820451 0.000507318 171523
0.0005 0.000837816 0.000507318 194415
0.0005 0.000853602 0.000507318 220737
0.0005 0.000867954 0.000507318 251093
0.0005 0.000881001 0.000507318 286187
0.0005 0.000892861 0.000507318 326832
0.0005 0.000903644 0.000507318 373969
0.0005 0.000913446 0.000507318 428683
0.0005 0.000922357 0.000507318 492250
0.0005 0.000930458 0.000507318 566217
0.0005 0.000937823 0.000507318 652582
0.0005 0.000944518 0.000507318 754138
0.0005 0.000950604 0.000507318 875073
0.0005 0.000956137 0.000507318 1.02185e+06
0.0005 0.000961167 0.000507318 1.20403e+06
0.0005 0.00096574 0.000507318 1.43642e+06
0.0005 0.000969897 0.000507318 1.74312e+06
0.0005 0.000973676 0.000507318 2.16229e+06
0.0005 0.000977112 0.000507318 2.75297e+06
0.0005 0.000980235 0.000507318 3.60707e+06
0.0005 0.000983075 0.000507318 4.87253e+06
0.0005 0.000985656 0.000507318 6.80023e+06
0.0005 0.000988002 0.000507318 9.84331e+06
0.0005 0.000990136 0.000507318 1.48832e+07
0.0005 0.000992075 0.000507318 2.37984e+07
0.0005 0.000993838 0.000507318 4.10991e+07
0.0005 0.000995441 0.000507318 7.95341e+07
0.0005 0.000996898 0.000507318 1.84801e+08
0.0005 0.000998222 0.000507318 5.94343e+08
0.0005 0.000999427 0.000507318 3.64963e+09
0.0005 4.59758e-05 0.000596807 20185.2
0.0005 0.000133748 0.000596807 21613.6
0.0005 0.000213541 0.000596807 24161.6
0.0005 0.000286079 0.000596807 27618.9
0.0005 0.000352024 0.000596807 31846
0.0005 0.000411973 0.000596807 36763.7
0.0005 0.000466473 0.000596807 42341.3
0.0005 0.000516018 0.000596807 48586.9
0.0005 0.000561059 0.000596807 55547
0.0005 0.000602005 0.000596807 63315.9
0.0005 0.000639229 0.000596807 72024.3
0.0005 0.000673069 0.000596807 81781.5
0.0005 0.000703833 0.000596807 92685.1
0.0005 0.000731799 0.000596807 104879
0.0005 0.000757224 0.000596807 118566
0.0005 0.000780337 0.000596807 134013
0.0005 0.000801349 0.000596807 151538
0.0005 0.000820451 0.000596807 171523
0.0005 0.000837816 0.000596807 194415
0.0005 0.000853602 0.000596807 220737
0.0005 0.000867954 0.000596807 251093
0.0005 0.000881001 0.000596807 286187
0.0005 0.000892861 0.000596807 326832
0.0005 0.000903644 0.000596807 373969
0.0005 0.000913446 0.000596807 428683
0.0005 0.000922357 0.000596807 492250
0.0005 0.000930458 0.000596807 566217
0.0005 0.000937823 0.000596807 652582
0.0005 0.000944518 0.000596807 754138
0.0005 0.000950604 0.000596807 875074
0.0005 0.000956137 0.000596807 1.02185e+06
0.0005 0.000961167 0.000596807 1.20403e+06
0.0005 0.00096574 0.000596807 1.43642e+06
0.0005 0.000969897 0.000596807 1.74312e+06
0.0005 0.000973676 0.000596807 2.16229e+06
0.0005 0.000977112 0.000596807 2.75297e+06
0.0005 0.000980235 0.000596807 3.60707e+06
0.0005 0.000983075 0.000596807 4.87253e+06
0.0005 0.000985656 0.000596807 6.80023e+06
0.0005 0.000988002 0.000596807 9.84331e+06
0.0005 0.000990136 0.000596807 1.48832e+07
0.0005 0.000992075 0.000596807 2.37984e+07
0.0005 0.000993838 0.000596807 4.10991e+07
0.0005 0.000995441 0.000596807 7.95341e+07
0.0005 0.000996898 0.000596807 1.84801e+08
0.0005 0.000998222 0.000596807 5.94343e+08
0.0005 0.000999427 0.000596807 3.64963e+09
0.0005 4.59758e-05 0.000685463 20185.2
0.0005 0.000133748 0.000685463 21613.6
0.0005 0.000213541 0.000685463 24161.6
0.0005 0.000286079 0.000685463 27618.9
0.0005 0.000352024 0.000685463 31846
0.0005 0.000411973 0.000685463 36763.7
0.0005 0.000466473 0.000685463 42341.3
0.0005 0.000516018 0.000685463 48586.9
0.0005 0.000561059 0.000685463 55547
0.0005 0.000602005 0.000685463 63316
0.0005 0.000639229 0.000685463 72024.3
0.0005 0.000673069 0.000685463 81781.6
0.0005 0.000703833 0.000685463 92685.1
0.0005 0.000731799 0.000685463 104879
0.0005 0.000757224 0.000685463 118566
0.0005 0.000780337 0.000685463 134013
0.0005 0.000801349 0.000685463 151538
0.0005 0.000820451 0.000685463 171523
0.0005 0.000837816 0.000685463 194415
0.0005 0.000853602 0.000685463 220737
0.0005 0.000867954 0.000685463 251093
0.0005 0.000881001 0.000685463 286187
0.0005 0.000892861 0.000685463 326832
0.0005 0.000903644 0.000685463 373969
0.0005 0.000913446 0.000685463 428683
0.0005 0.000922357 0.000685463 492250
0.0005 0.000930458 0.000685463 566217
0.0005 0.000937823 0.000685463 652582
0.0005 0.000944518 0.000685463 754138
0.0005 0.000950604 0.000685463 875074
0.0005 0.000956137 0.000685463 1.02185e+06
0.0005 0.000961167 0.000685463 1.20403e+06
0.0005 0.00096574 0.000685463 1.43642e+06
0.0005 0.000969897 0.000685463 1.74312e+06
0.0005 0.000973676 0.000685463 2.16229e+06
0.0005 0.000977112 0.000685463 2.75297e+06
0.0005 0.000980235 0.000685463 3.60707e+06
0.0005 0.000983075 0.000685463 4.87253e+06
0.0005 0.000985656 0.000685463 6.80023e+06
0.0005 0.000988002 0.000685463 9.84331e+06
0.0005 0.000990136 0.000685463 1.48832e+07
0.0005 0.000992075 0.000685463 2.37984e+07
0.0005 0.000993838 0.000685463 4.10991e+07
0.0005 0.000995441 0.000685463 7.95341e+07
0.0005 0.000996898 0.000685463 1.84801e+08
0.0005 0.000998222 0.000685463 5.94343e+08
0.0005 0.000999427 0.000685463 3.64963e+09
0.0005 4.59758e-05 0.000773295 20185.1
0.0005 0.000133748 0.000773295 21613.6
0.0005 0.000213541 0.000773295 24161.6
0.0005 0.000286079 0.000773295 27618.9
0.0005 0.000352024 0.000773295 31846
0.0005 0.000411973 0.000773295 36763.7
0.0005 0.000466473 0.000773295 42341.3
0.0005 0.000516018 0.000773295 48586.9
0.0005 0.000561059 0.000773295 55547
0.0005 0.000602005 0.000773295 63316
0.0005 0.000639229 0.000773295 72024.4
0.0005 0.000673069 0.000773295 81781.6
0.0005 0.000703833 0.000773295 92685.2
0.0005 0.000731799 0.000773295 104879
0.0005 0.000757224 0.000773295 118566
0.0005 0.000780337 0.000773295 134013
0.0005 0.000801349 0.000773295 151538
0.0005 0.000820451 0.000773295 171523
0.0005 0.000837816 0.000773295 194415
0.0005 0.000853602 0.000773295 220737
0.0005 0.000867954 0.000773295 251093
0.0005 0.000881001 0.000773295 286187
0.0005 0.000892861 0.000773295 326832
0.0005 0.000903644 0.000773295 373969
0.0005 0.000913446 0.000773295 428683
0.0005 0.000922357 0.000773295 492250
0.0005 0.000930458 0.000773295 566217
0.0005 0.000937823 0.000773295 652582
0.0005 0.000944518 0.000773295 754138
0.0005 0.000950604 0.000773295 875073
0.0005 0.000956137 0.000773295 1.02185e+06
0.0005 0.000961167 0.000773295 1.20403e+06
0.0005 0.00096574 0.000773295 1.43642e+06
0.0005 0.000969897 0.000773295 1.74312e+06
0.0005 0.000973676 0.000773295 2.16229e+06
0.0005 0.000977112 0.000773295 2.75297e+06
0.0005 0.000980235 0.000773295 3.60707e+06
0.0005 0.000983075 0.000773295 4.87253e+06
0.0005 0.000985656 0.000773295 6.80023e+06
0.0005 0.000988002 0.000773295 9.84331e+06
0.0005 0.000990136 0.000773295 1.48832e+07
0.0005 0.000992075 0.000773295 2.37984e+07
0.0005 0.000993838 0.000773295 4.10991e+07
0.0005 0.000995441 0.000773295 7.95341e+07
0.0005 0.000996898 0.000773295 1.84801e+08
0.0005 0.000998222 0.000773295 5.94343e+08
0.0005 0.000999427 0.000773295 3.64963e+09
0.0005 4.59758e-05 0.00086031 20185.1
0.0005 0.000133748 0.00086031 21613.6
0.0005 0.000213541 0.00086031 24161.5
0.0005 0.000286079 0.00086031 27618.9
0.0005 0.000352024 0.00086031 31846
0.0005 0.000411973 0.00086031 36763.7
0.0005 0.000466473 0.00086031 42341.3
0.0005 0.000516018 0.00086031 48586.9
0.0005 0.000561059 0.00086031 55547
0.0005 0.000602005 0.00086031 63316
0.0005 0.000639229 0.00086031 72024.3
0.0005 0.000673069 0.00086031 81781.6
0.0005 0.000703833 0.00086031 92685.1
0.0005 0.000731799 0.00086031 104879
0.0005 0.000757224 0.00086031 118566
0.0005 0.000780337 0.00086031 134013
0.0005 0.000801349 0.00086031 151538
0.0005 0.000820451 0.00086031 171523
0.0005 0.000837816 0.00086031 194415
0.0005 0.000853602 0.00086031 220737
0.0005 0.000867954 0.00086031 251093
0.0005 0.000881001 0.00086031 286187
0.0005 0.000892861 0.00086031 326832
0.0005 0.000903644 0.00086031 373969
0.0005 0.000913446 0.00086031 428683
0.0005 0.000922357 0.00086031 492250
0.0005 0.000930458 0.00086031 566217
0.0005 0.000937823 0.00086031 652582
0.0005 0.000944518 0.00086031 754138
0.0005 0.000950604 0.00086031 875073
0.0005 0.000956137 0.00086031 1.02185e+06
0.0005 0.000961167 0.00086031 1.20403e+06
0.0005 0.00096574 0.00086031 1.43642e+06
0.0005 0.000969897 0.00086031 1.74312e+06
0.0005 0.000973676 0.00086031 2.16229e+06
0.0005 0.000977112 0.00086031 2.75297e+06
0.0005 0.000980235 0.00086031 3.60707e+06
0.0005 0.000983075 0.00086031 4.87253e+06
0.0005 0.000985656 0.00086031 6.80023e+06
0.0005 0.000988002 0.00086031 9.84331e+06
0.0005 0.000990136 0.00086031 1.48832e+07
0.0005 0.000992075 0.00086031 2.37984e+07
0.0005 0.000993838 0.00086031 4.10991e+07
0.0005 0.000995441 0.00086031 7.95341e+07
0.0005 0.000996898 0.00086031 1.84801e+08
0.0005 0.000998222 0.00086031 5.94343e+08
0.0005 0.000999427 0.00086031 3.64963e+09
0.0005 4.59758e-05 0.000946515 20185.1
0.0005 0.000133748 0.000946515 21613.6
0.0005 0.000213541 0.000946515 24161.5
0.0005 0.000286079 0.000946515 27618.9
0.0005 0.000352024 0.000946515 31846
0.0005 0.000411973 0.000946515 36763.7
0.0005 0.000466473 0.000946515 42341.3
0.0005 0.000516018 0.000946515 48586.9
0.0005 0.000561059 0.000946515 55547
0.0005 0.000602005 0.000946515 63315.9
0.0005 0.000639229 0.000946515 72024.3
0.0005 0.000673069 0.000946515 81781.6
0.0005 0.000703833 0.000946515 92685.1
0.0005 0.000731799 0.000946515 104879
0.0005 0.000757224 0.000946515 118566
0.0005 0.000780337 0.000946515 134013
0.0005 0.000801349 0.000946515 151538
0.0005 0.000820451 0.000946515 171523
0.0005 0.000837816 0.000946515 194415
0.0005 0.000853602 0.000946515 220737
0.0005 0.000867954 0.000946515 251093
0.0005 0.000881001 0.000946515 286187
0.0005 0.000892861 0.000946515 326832
0.0005 0.000903644 0.000946515 373969
0.0005 0.000913446 0.000946515 428683
0.0005 0.000922357 0.000946515 492250
0.0005 0.000930458 0.000946515 566216
0.0005 0.000937823 0.000946515 652581
0.0005 0.000944518 0.000946515 754138
0.0005 0.000950604 0.000946515 875073
0.0005 0.000956137 0.000946515 1.02185e+06
0.0005 0.000961167 0.000946515 1.20403e+06
0.0005 0.00096574 0.000946515 1.43642e+06
0.0005 0.000969897 0.000946515 1.74312e+06
0.0005 0.000973676 0.000946515 2.16229e+06
0.0005 0.000977112 0.000946515 2.75297e+06
0.0005 0.000980235 0.000946515 3.60707e+06
0.0005 0.000983075 0.000946515 4.87253e+06
0.0005 0.000985656 0.000946515 6.80023e+06
0.0005 0.000988002 0.000946515 9.84331e+06
0.0005 0.000990136 0.000946515 1.48832e+07
0.0005 0.000992075 0.000946515 2.37984e+07
0.0005 0.000993838 0.000946515 4.10991e+07
0.0005 0.000995441 0.000946515 7.95341e+07
0.0005 0.000996898 0.000946515 1.84801e+08
0.0005 0.000998222 0.000946515 5.94343e+08
0.0005 0.000999427 0.000946515 3.64963e+09
0.0005 4.59758e-05 0.00103192 20185.1
0.0005 0.000133748 0.00103192 21613.5
0.0005 0.000213541 0.00103192 24161.5
0.0005 0.000286079 0.00103192 27618.9
0.0005 0.000352024 0.00103192 31846
0.0005 0.000411973 0.00103192 36763.7
0.0005 0.000466473 0.00103192 42341.3
0.0005 0.000516018 0.00103192 48586.9
0.0005 0.000561059 0.00103192 55546.9
0.0005 0.000602005 0.00103192 63315.9
0.0005 0.000639229 0.00103192 72024.3
0.0005 0.000673069 0.00103192 81781.5
0.0005 0.000703833 0.00103192 92685
0.0005 0.000731799 0.00103192 104878
0.0005 0.000757224 0.00103192 118566
0.0005 0.000780337 0.00103192 134012
0.0005 0.000801349 0.00103192 151538
0.0005 0.000820451 0.00103192 171523
0.0005 0.000837816 0.00103192 194415
0.0005 0.000853602 0.00103192 220737
0.0005 0.000867954 0.00103192 251093
0.0005 0.000881001 0.00103192 286186
0.0005 0.000892861 0.00103192 326832
0.0005 0.000903644 0.00103192 373968
0.0005 0.000913446 0.00103192 428683
0.0005 0.000922357 0.00103192 492249
0.0005 0.000930458 0.00103192 566216
0.0005 0.000937823 0.00103192 652581
0.0005 0.000944518 0.00103192 754137
0.0005 0.000950604 0.00103192 875072
0.0005 0.000956137 0.00103192 1.02185e+06
0.0005 0.000961167 0.00103192 1.20403e+06
0.0005 0.00096574 0.00103192 1.43642e+06
0.0005 0.000969897 0.00103192 1.74312e+06
0.0005 0.000973676 0.00103192 2.16229e+06
0.0005 0.000977112 0.00103192 2.75297e+06
0.0005 0.000980235 0.00103192 3.60707e+06
0.0005 0.000983075 0.00103192 4.87253e+06
0.0005 0.000985656 0.00103192 6.80023e+06
0.0005 0.000988002 0.00103192 9.84331e+06
0.0005 0.000990136 0.00103192 1.48832e+07
0.0005 0.000992075 0.00103192 2.37984e+07
0.0005 0.000993838 0.00103192 4.10991e+07
0.0005 0.000995441 0.00103192 7.95341e+07
0.0005 0.000996898 0.00103192 1.84801e+08
0.0005 0.000998222 0.00103192 5.94343e+08
0.0005 0.000999427 0.00103192 3.64963e+09
0.0005 4.59758e-05 0.00111653 20185.1
0.0005 0.000133748 0.00111653 21613.5
0.0005 0.000213541 0.00111653 24161.5
0.0005 0.000286079 0.00111653 27618.8
0.0005 0.000352024 0.00111653 31845.9
0.0005 0.000411973 0.00111653 36763.6
0.0005 0.000466473 0.00111653 42341.2
0.0005 0.000516018 0.00111653 48586.8
0.0005 0.000561059 0.00111653 55546.9
0.0005 0.000602005 0.00111653 63315.8
0.0005 0.000639229 0.00111653 72024.2
0.0005 0.000673069 0.00111653 81781.4
0.0005 0.000703833 0.00111653 92684.9
0.0005 0.000731799 0.00111653 104878
0.0005 0.000757224 0.00111653 118566
0.0005 0.000780337 0.00111653 134012
0.0005 0.000801349 0.00111653 151538
0.0005 0.000820451 0.00111653 171523
0.0005 0.000837816 0.00111653 194415
0.0005 0.000853602 0.00111653 220736
0.0005 0.000867954 0.00111653 251093
0.0005 0.000881001 0.00111653 286186
0.0005 0.000892861 0.00111653 326832
0.0005 0.000903644 0.00111653 373968
0.0005 0.000913446 0.00111653 428682
0.0005 0.000922357 0.00111653 492249
0.0005 0.000930458 0.00111653 566215
0.0005 0.000937823 0.00111653 652580
0.0005 0.000944518 0.00111653 754136
0.0005 0.000950604 0.00111653 875071
0.0005 0.000956137 0.00111653 1.02185e+06
0.0005 0.000961167 0.00111653 1.20403e+06
0.0005 0.00096574 0.00111653 1.43641e+06
0.0005 0.000969897 0.00111653 1.74312e+06
0.0005 0.000973676 0.00111653 2.16229e+06
0.0005 0.000977112 0.00111653 2.75297e+06
0.0005 0.000980235 0.00111653 3.60707e+06
0.0005 0.000983075 0.00111653 4.87252e+06
0.0005 0.000985656 0.00111653 6.80023e+06
0.0005 0.000988002 0.00111653 9.84331e+06
0.0005 0.000990136 0.00111653 1.48832e+07
0.0005 0.000992075 0.00111653 2.37984e+07
0.0005 0.000993838 0.00111653 4.10991e+07
0.0005 0.000995441 0.00111653 7.95341e+07
0.0005 0.000996898 0.00111653 1.84801e+08
0.0005 0.000998222 0.00111653 5.94343e+08
0.0005 0.000999427 0.00111653 3.64963e+09
0.0005 4.59758e-05 0.00120035 20185
0.0005 0.000133748 0.00120035 21613.5
0.0005 0.000213541 0.00120035 24161.4
0.0005 0.000286079 0.00120035 27618.8
0.0005 0.000352024 0.00120035 31845.9
0.0005 0.000411973 0.00120035 36763.6
0.0005 0.000466473 0.00120035 42341.2
0.0005 0.000516018 0.00120035 48586.8
0.0005 0.000561059 0.00120035 55546.8
0.0005 0.000602005 0.00120035 63315.7
0.0005 0.000639229 0.00120035 72024.1
0.0005 0.000673069 0.00120035 81781.3
0.0005 0.000703833 0.00120035 92684.8
0.0005 0.000731799 0.00120035 104878
0.0005 0.000757224 0.00120035 118566
0.0005 0.000780337 0.00120035 134012
0.0005 0.000801349 0.00120035 151538
0.0005 0.000820451 0.00120035 171523
0.0005 0.000837816 0.00120035 194415
0.0005 0.000853602 0.00120035 220736
0.0005 0.000867954 0.00120035 251092
0.0005 0.000881001 0.00120035 286186
0.0005 0.000892861 0.00120035 326831
0.0005 0.000903644 0.00120035 373968
0.0005 0.000913446 0.00120035 428682
0.0005 0.000922357 0.00120035 492248
0.0005 0.000930458 0.00120035 566215
0.0005 0.000937823 0.00120035 652580
0.0005 0.000944518 0.00120035 754136
0.0005 0.000950604 0.00120035 875070
0.0005 0.000956137 0.00120035 1.02185e+06
0.0005 0.000961167 0.00120035 1.20403e+06
0.0005 0.00096574 0.00120035 1.43641e+06
0.0005 0.000969897 0.00120035 1.74312e+06
0.0005 0.000973676 0.00120035 2.16229e+06
0.0005 0.000977112 0.00120035 2.75297e+06
0.0005 0.000980235 0.00120035 3.60706e+06
0.0005 0.000983075 0.00120035 4.87252e+06
0.0005 0.000985656 0.00120035 6.80023e+06
0.0005 0.000988002 0.00120035 9.8433e+06
0.0005 0.000990136 0.00120035 1.48832e+07
0.0005 0.000992075 0.00120035 2.37984e+07
0.0005 0.000993838 0.00120035 4.10991e+07
0.0005 0.000995441 0.00120035 7.95341e+07
0.0005 0.000996898 0.00120035 1.84801e+08
0.0005 0.000998222 0.00120035 5.94343e+08
0.0005 0.000999427 0.00120035 3.64963e+09
0.0005 4.59758e-05 0.00128339 20185
0.0005 0.000133748 0.00128339 21613.4
0.0005 0.000213541 0.00128339 24161.4
0.0005 0.000286079 0.00128339 27618.7
0.0005 0.000352024 0.00128339 31845.8
0.0005 0.000411973 0.00128339 36763.5
0.0005 0.000466473 0.00128339 42341.1
0.0005 0.000516018 0.00128339 48586.7
0.0005 0.000561059 0.00128339 55546.7
0.0005 0.000602005 0.00128339 63315.6
0.0005 0.000639229 0.00128339 72024
0.0005 0.000673069 0.00128339 81781.2
0.0005 0.000703833 0.00128339 92684.7
0.0005 0.000731799 0.00128339 104878
0.0005 0.000757224 0.00128339 118566
0.0005 0.000780337 0.00128339 134012
0.0005 0.000801349 0.00128339 151538
0.0005 0.000820451 0.00128339 171523
0.0005 0.000837816 0.00128339 194414
0.0005 0.000853602 0.00128339 220736
0.0005 0.000867954 0.00128339 251092
0.0005 0.000881001 0.00128339 286186
0.0005 0.000892861 0.00128339 326831
0.0005 0.000903644 0.00128339 373967
0.0005 0.000913446 0.00128339 428681
0.0005 0.000922357 0.00128339 492248
0.0005 0.000930458 0.00128339 566214
0.0005 0.000937823 0.00128339 652579
0.0005 0.000944518 0.00128339 754135
0.0005 0.000950604 0.00128339 875069
0.0005 0.000956137 0.00128339 1.02185e+06
0.0005 0.000961167 0.00128339 1.20403e+06
0.0005 0.00096574 0.00128339 1.43641e+06
0.0005 0.000969897 0.00128339 1.74312e+06
0.0005 0.000973676 0.00128339 2.16229e+06
0.0005 0.000977112 0.00128339 2.75297e+06
0.0005 0.000980235 0.00128339 3.60706e+06
0.0005 0.000983075 0.00128339 4.87252e+06
0.0005 0.000985656 0.00128339 6.80023e+06
0.0005 0.000988002 0.00128339 9.8433e+06
0.0005 0.000990136 0.00128339 1.48832e+07
0.0005 0.000992075 0.00128339 2.37984e+07
0.0005 0.000993838 0.00128339 4.10991e+07
0.0005 0.000995441 0.00128339 7.95341e+07
0.0005 0.000996898 0.00128339 1.84801e+08
0.0005 0.000998222 0.00128339 5.94343e+08
0.0005 0.000999427 0.00128339 3.64963e+09
0.0005 4.59758e-05 0.00136566 20184.9
0.0005 0.000133748 0.00136566 21613.3
0.0005 0.000213541 0.00136566 24161.3
0.0005 0.000286079 0.00136566 27618.6
0.0005 0.000352024 0.00136566 31845.8
0.0005 0.000411973 0.00136566 36763.4
0.0005 0.000466473 0.00136566 42341
0.0005 0.000516018 0.00136566 48586.6
0.0005 0.000561059 0.00136566 55546.6
0.0005 0.000602005 0.00136566 63315.5
0.0005 0.000639229 0.00136566 72023.9
0.0005 0.000673069 0.00136566 81781.1
0.0005 0.000703833 0.00136566 92684.5
0.0005 0.000731799 0.00136566 104878
0.0005 0.000757224 0.00136566 118566
0.0005 0.000780337 0.00136566 134012
0.0005 0.000801349 0.00136566 151537
0.0005 0.000820451 0.00136566 171522
0.0005 0.000837816 0.00136566 194414
0.0005 0.000853602 0.00136566 220736
0.0005 0.000867954 0.00136566 251092
0.0005 0.000881001 0.00136566 286185
0.0005 0.000892861 0.00136566 326831
0.0005 0.000903644 0.00136566 373967
0.0005 0.000913446 0.00136566 428681
0.0005 0.000922357 0.00136566 492247
0.0005 0.000930458 0.00136566 566213
0.0005 0.000937823 0.00136566 652578
0.0005 0.000944518 0.00136566 754134
0.0005 0.000950604 0.00136566 875068
0.0005 0.000956137 0.00136566 1.02185e+06
0.0005 0.000961167 0.00136566 1.20403e+06
0.0005 0.00096574 0.00136566 1.43641e+06
0.0005 0.000969897 0.00136566 1.74312e+06
0.0005 0.000973676 0.00136566 2.16229e+06
0.0005 0.000977112 0.00136566 2.75296e+06
0.0005 0.000980235 0.00136566 3.60706e+06
0.0005 0.000983075 0.00136566 4.87252e+06
0.0005 0.000985656 0.00136566 6.80023e+06
0.0005 0.000988002 0.00136566 9.8433e+06
0.0005 0.000990136 0.00136566 1.48832e+07
0.0005 0.000992075 0.00136566 2.37984e+07
0.0005 0.000993838 0.00136566 4.10991e+07
0.0005 0.000995441 0.00136566 7.95341e+07
0.0005 0.000996898 0.00136566 1.84801e+08
0.0005 0.000998222 0.00136566 5.94343e+08
0.0005 0.000999427 0.00136566 3.64963e+09
0.0005 4.59758e-05 0.00144716 20184.8
0.0005 0.000133748 0.00144716 21613.3
0.0005 0.000213541 0.00144716 24161.2
0.0005 0.000286079 0.00144716 27618.6
0.0005 0.000352024 0.00144716 31845.7