# p  FACE_DATA 22090
#  x  y  z  p
0.0005 4.59758e-05 4.71048e-05 3.79307e-14
0.0005 0.000133748 4.71048e-05 3.35678e-14
0.0005 0.000213541 4.71048e-05 1.12521e-14
0.0005 0.000286079 4.71048e-05 -3.51624e-15
0.0005 0.000352024 4.71048e-05 -1.03146e-14
0.0005 0.000411973 4.71048e-05 -1.66844e-14
0.0005 0.000466473 4.71048e-05 -1.78441e-14
0.0005 0.000516018 4.71048e-05 -1.76956e-14
0.0005 0.000561059 4.71048e-05 -1.65406e-14
0.0005 0.000602005 4.71048e-05 -1.51793e-14
0.0005 0.000639229 4.71048e-05 -1.40262e-14
0.0005 0.000673069 4.71048e-05 -1.0374e-14
0.0005 0.000703833 4.71048e-05 -6.89882e-15
0.0005 0.000731799 4.71048e-05 -4.56782e-15
0.0005 0.000757224 4.71048e-05 -1.86971e-15
0.0005 0.000780337 4.71048e-05 6.51756e-16
0.0005 0.000801349 4.71048e-05 3.22661e-15
0.0005 0.000820451 4.71048e-05 5.87871e-15
0.0005 0.000837816 4.71048e-05 8.01679e-15
0.0005 0.000853602 4.71048e-05 9.98923e-15
0.0005 0.000867954 4.71048e-05 1.18094e-14
0.0005 0.000881001 4.71048e-05 1.32844e-14
0.0005 0.000892861 4.71048e-05 1.44513e-14
0.0005 0.000903644 4.71048e-05 1.53863e-14
0.0005 0.000913446 4.71048e-05 1.59735e-14
0.0005 0.000922357 4.71048e-05 1.62548e-14
0.0005 0.000930458 4.71048e-05 1.62572e-14
0.0005 0.000937823 4.71048e-05 1.63002e-14
0.0005 0.000944518 4.71048e-05 1.61983e-14
0.0005 0.000950604 4.71048e-05 1.59206e-14
0.0005 0.000956137 4.71048e-05 1.56002e-14
0.0005 0.000961167 4.71048e-05 1.49779e-14
0.0005 0.00096574 4.71048e-05 1.43557e-14
0.0005 0.000969897 4.71048e-05 1.37309e-14
0.0005 0.000973676 4.71048e-05 1.31058e-14
0.0005 0.000977112 4.71048e-05 1.24739e-14
0.0005 0.000980235 4.71048e-05 1.18602e-14
0.0005 0.000983075 4.71048e-05 1.12689e-14
0.0005 0.000985656 4.71048e-05 1.07299e-14
0.0005 0.000988002 4.71048e-05 1.02226e-14
0.0005 0.000990136 4.71048e-05 9.78294e-15
0.0005 0.000992075 4.71048e-05 9.3993e-15
0.0005 0.000993838 4.71048e-05 9.0816e-15
0.0005 0.000995441 4.71048e-05 8.82842e-15
0.0005 0.000996898 4.71048e-05 8.62929e-15
0.0005 0.000998222 4.71048e-05 8.47513e-15
0.0005 0.000999427 4.71048e-05 8.36028e-15
0.0005 4.59758e-05 0.000140876 2.9318e-14
0.0005 0.000133748 0.000140876 1.56358e-14
0.0005 0.000213541 0.000140876 -3.2245e-16
0.0005 0.000286079 0.000140876 -1.08919e-14
0.0005 0.000352024 0.000140876 -1.29118e-14
0.0005 0.000411973 0.000140876 -1.70699e-14
0.0005 0.000466473 0.000140876 -1.5861e-14
0.0005 0.000516018 0.000140876 -1.9907e-14
0.0005 0.000561059 0.000140876 -1.85556e-14
0.0005 0.000602005 0.000140876 -1.37973e-14
0.0005 0.000639229 0.000140876 -1.22095e-14
0.0005 0.000673069 0.000140876 -9.1604e-15
0.0005 0.000703833 0.000140876 -4.38824e-15
0.0005 0.000731799 0.000140876 -1.4793e-15
0.0005 0.000757224 0.000140876 -5.25537e-16
0.0005 0.000780337 0.000140876 1.68007e-15
0.0005 0.000801349 0.000140876 5.18499e-15
0.0005 0.000820451 0.000140876 7.81043e-15
0.0005 0.000837816 0.000140876 9.68129e-15
0.0005 0.000853602 0.000140876 1.1328e-14
0.0005 0.000867954 0.000140876 1.25407e-14
0.0005 0.000881001 0.000140876 1.34266e-14
0.0005 0.000892861 0.000140876 1.40236e-14
0.0005 0.000903644 0.000140876 1.43756e-14
0.0005 0.000913446 0.000140876 1.4511e-14
0.0005 0.000922357 0.000140876 1.43025e-14
0.0005 0.000930458 0.000140876 1.39835e-14
0.0005 0.000937823 0.000140876 1.37751e-14
0.0005 0.000944518 0.000140876 1.35624e-14
0.0005 0.000950604 0.000140876 1.31947e-14
0.0005 0.000956137 0.000140876 1.27228e-14
0.0005 0.000961167 0.000140876 1.22247e-14
0.0005 0.00096574 0.000140876 1.17645e-14
0.0005 0.000969897 0.000140876 1.14183e-14
0.0005 0.000973676 0.000140876 1.11282e-14
0.0005 0.000977112 0.000140876 1.0796e-14
0.0005 0.000980235 0.000140876 1.04718e-14
0.0005 0.000983075 0.000140876 1.02372e-14
0.0005 0.000985656 0.000140876 1.00629e-14
0.0005 0.000988002 0.000140876 9.94616e-15
0.0005 0.000990136 0.000140876 9.85111e-15
0.0005 0.000992075 0.000140876 9.79517e-15
0.0005 0.000993838 0.000140876 9.76738e-15
0.0005 0.000995441 0.000140876 9.74272e-15
0.0005 0.000996898 0.000140876 9.74006e-15
0.0005 0.000998222 0.000140876 9.74155e-15
0.0005 0.000999427 0.000140876 9.74492e-15
0.0005 4.59758e-05 0.000233775 4.55662e-15
0.0005 0.000133748 0.000233775 -5.70298e-15
0.0005 0.000213541 0.000233775 -7.99948e-15
0.0005 0.000286079 0.000233775 -1.46596e-14
0.0005 0.000352024 0.000233775 -1.7902e-14
0.0005 0.000411973 0.000233775 -1.75049e-14
0.0005 0.000466473 0.000233775 -1.62673e-14
0.0005 0.000516018 0.000233775 -1.44062e-14
0.0005 0.000561059 0.000233775 -1.20233e-14
0.0005 0.000602005 0.000233775 -9.01051e-15
0.0005 0.000639229 0.000233775 -6.34477e-15
0.0005 0.000673069 0.000233775 -3.91436e-15
0.0005 0.000703833 0.000233775 -1.14466e-15
0.0005 0.000731799 0.000233775 1.52757e-15
0.0005 0.000757224 0.000233775 3.74577e-15
0.0005 0.000780337 0.000233775 6.03658e-15
0.0005 0.000801349 0.000233775 8.66031e-15
0.0005 0.000820451 0.000233775 1.01236e-14
0.0005 0.000837816 0.000233775 1.06087e-14
0.0005 0.000853602 0.000233775 1.10613e-14
0.0005 0.000867954 0.000233775 1.12298e-14
0.0005 0.000881001 0.000233775 1.17263e-14
0.0005 0.000892861 0.000233775 1.24818e-14
0.0005 0.000903644 0.000233775 1.31456e-14
0.0005 0.000913446 0.000233775 1.31739e-14
0.0005 0.000922357 0.000233775 1.32528e-14
0.0005 0.000930458 0.000233775 1.32053e-14
0.0005 0.000937823 0.000233775 1.32184e-14
0.0005 0.000944518 0.000233775 1.29759e-14
0.0005 0.000950604 0.000233775 1.25956e-14
0.0005 0.000956137 0.000233775 1.22377e-14
0.0005 0.000961167 0.000233775 1.19033e-14
0.0005 0.00096574 0.000233775 1.16359e-14
0.0005 0.000969897 0.000233775 1.13227e-14
0.0005 0.000973676 0.000233775 1.09833e-14
0.0005 0.000977112 0.000233775 1.06491e-14
0.0005 0.000980235 0.000233775 1.0315e-14
0.0005 0.000983075 0.000233775 9.9783e-15
0.0005 0.000985656 0.000233775 9.63641e-15
0.0005 0.000988002 0.000233775 9.3228e-15
0.0005 0.000990136 0.000233775 9.01154e-15
0.0005 0.000992075 0.000233775 8.70785e-15
0.0005 0.000993838 0.000233775 8.43106e-15
0.0005 0.000995441 0.000233775 8.20175e-15
0.0005 0.000996898 0.000233775 7.99876e-15
0.0005 0.000998222 0.000233775 7.85853e-15
0.0005 0.000999427 0.000233775 7.76975e-15
0.0005 4.59758e-05 0.00032581 -7.11798e-15
0.0005 0.000133748 0.00032581 -1.52402e-14
0.0005 0.000213541 0.00032581 -1.73912e-14
0.0005 0.000286079 0.00032581 -1.82142e-14
0.0005 0.000352024 0.00032581 -1.83987e-14
0.0005 0.000411973 0.00032581 -1.77386e-14
0.0005 0.000466473 0.00032581 -1.63824e-14
0.0005 0.000516018 0.00032581 -1.42098e-14
0.0005 0.000561059 0.00032581 -1.22913e-14
0.0005 0.000602005 0.00032581 -9.96059e-15
0.0005 0.000639229 0.00032581 -7.41173e-15
0.0005 0.000673069 0.00032581 -4.67893e-15
0.0005 0.000703833 0.00032581 -1.87627e-15
0.0005 0.000731799 0.00032581 6.51042e-16
0.0005 0.000757224 0.00032581 2.84148e-15
0.0005 0.000780337 0.00032581 4.64468e-15
0.0005 0.000801349 0.00032581 6.01196e-15
0.0005 0.000820451 0.00032581 7.59026e-15
0.0005 0.000837816 0.00032581 9.03477e-15
0.0005 0.000853602 0.00032581 9.28804e-15
0.0005 0.000867954 0.00032581 9.2663e-15
0.0005 0.000881001 0.00032581 1.02889e-14
0.0005 0.000892861 0.00032581 1.13016e-14
0.0005 0.000903644 0.00032581 1.12884e-14
0.0005 0.000913446 0.00032581 1.13101e-14
0.0005 0.000922357 0.00032581 1.1489e-14
0.0005 0.000930458 0.00032581 1.14976e-14
0.0005 0.000937823 0.00032581 1.13506e-14
0.0005 0.000944518 0.00032581 1.14223e-14
0.0005 0.000950604 0.00032581 1.13791e-14
0.0005 0.000956137 0.00032581 1.14372e-14
0.0005 0.000961167 0.00032581 1.14738e-14
0.0005 0.00096574 0.00032581 1.15104e-14
0.0005 0.000969897 0.00032581 1.14927e-14
0.0005 0.000973676 0.00032581 1.14974e-14
0.0005 0.000977112 0.00032581 1.15168e-14
0.0005 0.000980235 0.00032581 1.15362e-14
0.0005 0.000983075 0.00032581 1.15526e-14
0.0005 0.000985656 0.00032581 1.15837e-14
0.0005 0.000988002 0.00032581 1.16138e-14
0.0005 0.000990136 0.00032581 1.16477e-14
0.0005 0.000992075 0.00032581 1.16791e-14
0.0005 0.000993838 0.00032581 1.16704e-14
0.0005 0.000995441 0.00032581 1.16399e-14
0.0005 0.000996898 0.00032581 1.16283e-14
0.0005 0.000998222 0.00032581 1.16494e-14
0.0005 0.000999427 0.00032581 1.17054e-14
0.0005 4.59758e-05 0.000416988 -2.01946e-14
0.0005 0.000133748 0.000416988 -2.15448e-14
0.0005 0.000213541 0.000416988 -2.07004e-14
0.0005 0.000286079 0.000416988 -1.94967e-14
0.0005 0.000352024 0.000416988 -1.87405e-14
0.0005 0.000411973 0.000416988 -1.78838e-14
0.0005 0.000466473 0.000416988 -1.67187e-14
0.0005 0.000516018 0.000416988 -1.50085e-14
0.0005 0.000561059 0.000416988 -1.30104e-14
0.0005 0.000602005 0.000416988 -1.0863e-14
0.0005 0.000639229 0.000416988 -8.8037e-15
0.0005 0.000673069 0.000416988 -6.99694e-15
0.0005 0.000703833 0.000416988 -5.19105e-15
0.0005 0.000731799 0.000416988 -3.37399e-15
0.0005 0.000757224 0.000416988 -1.67054e-15
0.0005 0.000780337 0.000416988 -3.39594e-17
0.0005 0.000801349 0.000416988 1.56967e-15
0.0005 0.000820451 0.000416988 3.20109e-15
0.0005 0.000837816 0.000416988 4.37588e-15
0.0005 0.000853602 0.000416988 5.29399e-15
0.0005 0.000867954 0.000416988 5.98387e-15
0.0005 0.000881001 0.000416988 6.77121e-15
0.0005 0.000892861 0.000416988 7.42855e-15
0.0005 0.000903644 0.000416988 7.96387e-15
0.0005 0.000913446 0.000416988 8.39441e-15
0.0005 0.000922357 0.000416988 8.73428e-15
0.0005 0.000930458 0.000416988 9.01993e-15
0.0005 0.000937823 0.000416988 9.2892e-15
0.0005 0.000944518 0.000416988 9.54178e-15
0.0005 0.000950604 0.000416988 9.52686e-15
0.0005 0.000956137 0.000416988 9.59405e-15
0.0005 0.000961167 0.000416988 9.55988e-15
0.0005 0.00096574 0.000416988 9.55455e-15
0.0005 0.000969897 0.000416988 9.57653e-15
0.0005 0.000973676 0.000416988 9.61112e-15
0.0005 0.000977112 0.000416988 9.66157e-15
0.0005 0.000980235 0.000416988 9.63917e-15
0.0005 0.000983075 0.000416988 9.63757e-15
0.0005 0.000985656 0.000416988 9.65099e-15
0.0005 0.000988002 0.000416988 9.63677e-15
0.0005 0.000990136 0.000416988 9.62499e-15
0.0005 0.000992075 0.000416988 9.6129e-15
0.0005 0.000993838 0.000416988 9.59741e-15
0.0005 0.000995441 0.000416988 9.57217e-15
0.0005 0.000996898 0.000416988 9.54585e-15
0.0005 0.000998222 0.000416988 9.53759e-15
0.0005 0.000999427 0.000416988 9.54657e-15
0.0005 4.59758e-05 0.000507318 -2.38668e-14
0.0005 0.000133748 0.000507318 -2.34419e-14
0.0005 0.000213541 0.000507318 -2.14141e-14
0.0005 0.000286079 0.000507318 -1.78632e-14
0.0005 0.000352024 0.000507318 -1.89822e-14
0.0005 0.000411973 0.000507318 -1.95295e-14
0.0005 0.000466473 0.000507318 -2.11437e-14
0.0005 0.000516018 0.000507318 -1.71421e-14
0.0005 0.000561059 0.000507318 -1.44128e-14
0.0005 0.000602005 0.000507318 -1.16528e-14
0.0005 0.000639229 0.000507318 -8.61142e-15
0.0005 0.000673069 0.000507318 -8.65269e-15
0.0005 0.000703833 0.000507318 -7.84728e-15
0.0005 0.000731799 0.000507318 -6.32307e-15
0.0005 0.000757224 0.000507318 -4.78534e-15
0.0005 0.000780337 0.000507318 -3.17161e-15
0.0005 0.000801349 0.000507318 -1.48933e-15
0.0005 0.000820451 0.000507318 -1.03471e-15
0.0005 0.000837816 0.000507318 -2.5975e-16
0.0005 0.000853602 0.000507318 5.3739e-16
0.0005 0.000867954 0.000507318 1.29344e-15
0.0005 0.000881001 0.000507318 2.21832e-15
0.0005 0.000892861 0.000507318 3.29954e-15
0.0005 0.000903644 0.000507318 3.6678e-15
0.0005 0.000913446 0.000507318 3.7672e-15
0.0005 0.000922357 0.000507318 4.01587e-15
0.0005 0.000930458 0.000507318 4.20386e-15
0.0005 0.000937823 0.000507318 4.61955e-15
0.0005 0.000944518 0.000507318 5.11546e-15
0.0005 0.000950604 0.000507318 5.47042e-15
0.0005 0.000956137 0.000507318 5.75349e-15
0.0005 0.000961167 0.000507318 6.00753e-15
0.0005 0.00096574 0.000507318 6.26042e-15
0.0005 0.000969897 0.000507318 6.43678e-15
0.0005 0.000973676 0.000507318 6.62621e-15
0.0005 0.000977112 0.000507318 6.75673e-15
0.0005 0.000980235 0.000507318 6.88349e-15
0.0005 0.000983075 0.000507318 7.00604e-15
0.0005 0.000985656 0.000507318 7.12051e-15
0.0005 0.000988002 0.000507318 7.22339e-15
0.0005 0.000990136 0.000507318 7.32754e-15
0.0005 0.000992075 0.000507318 7.4094e-15
0.0005 0.000993838 0.000507318 7.4593e-15
0.0005 0.000995441 0.000507318 7.52549e-15
0.0005 0.000996898 0.000507318 7.5541e-15
0.0005 0.000998222 0.000507318 7.61021e-15
0.0005 0.000999427 0.000507318 7.69073e-15
0.0005 4.59758e-05 0.000596807 -2.53725e-14
0.0005 0.000133748 0.000596807 -2.33161e-14
0.0005 0.000213541 0.000596807 -2.2495e-14
0.0005 0.000286079 0.000596807 -2.10778e-14
0.0005 0.000352024 0.000596807 -2.02699e-14
0.0005 0.000411973 0.000596807 -2.04527e-14
0.0005 0.000466473 0.000596807 -1.93786e-14
0.0005 0.000516018 0.000596807 -1.77988e-14
0.0005 0.000561059 0.000596807 -1.60773e-14
0.0005 0.000602005 0.000596807 -1.44057e-14
0.0005 0.000639229 0.000596807 -1.27877e-14
0.0005 0.000673069 0.000596807 -1.0394e-14
0.0005 0.000703833 0.000596807 -1.06243e-14
0.0005 0.000731799 0.000596807 -1.0048e-14
0.0005 0.000757224 0.000596807 -8.87903e-15
0.0005 0.000780337 0.000596807 -7.55784e-15
0.0005 0.000801349 0.000596807 -6.12207e-15
0.0005 0.000820451 0.000596807 -5.54774e-15
0.0005 0.000837816 0.000596807 -4.63541e-15
0.0005 0.000853602 0.000596807 -3.42839e-15
0.0005 0.000867954 0.000596807 -2.17704e-15
0.0005 0.000881001 0.000596807 -1.79614e-15
0.0005 0.000892861 0.000596807 -1.35743e-15
0.0005 0.000903644 0.000596807 -7.42118e-16
0.0005 0.000913446 0.000596807 -2.36265e-16
0.0005 0.000922357 0.000596807 3.43573e-16
0.0005 0.000930458 0.000596807 5.8731e-16
0.0005 0.000937823 0.000596807 9.16102e-16
0.0005 0.000944518 0.000596807 1.25701e-15
0.0005 0.000950604 0.000596807 1.43267e-15
0.0005 0.000956137 0.000596807 1.51403e-15
0.0005 0.000961167 0.000596807 1.5594e-15
0.0005 0.00096574 0.000596807 1.59222e-15
0.0005 0.000969897 0.000596807 1.62396e-15
0.0005 0.000973676 0.000596807 1.67362e-15
0.0005 0.000977112 0.000596807 1.71601e-15
0.0005 0.000980235 0.000596807 1.71175e-15
0.0005 0.000983075 0.000596807 1.75078e-15
0.0005 0.000985656 0.000596807 1.80708e-15
0.0005 0.000988002 0.000596807 1.84617e-15
0.0005 0.000990136 0.000596807 1.86649e-15
0.0005 0.000992075 0.000596807 1.90554e-15
0.0005 0.000993838 0.000596807 1.95139e-15
0.0005 0.000995441 0.000596807 1.96972e-15
0.0005 0.000996898 0.000596807 2.01842e-15
0.0005 0.000998222 0.000596807 2.02988e-15
0.0005 0.000999427 0.000596807 2.00657e-15
0.0005 4.59758e-05 0.000685463 -2.59598e-14
0.0005 0.000133748 0.000685463 -2.21883e-14
0.0005 0.000213541 0.000685463 -2.27091e-14
0.0005 0.000286079 0.000685463 -2.14119e-14
0.0005 0.000352024 0.000685463 -1.95589e-14
0.0005 0.000411973 0.000685463 -2.4555e-14
0.0005 0.000466473 0.000685463 -2.14829e-14
0.0005 0.000516018 0.000685463 -1.92717e-14
0.0005 0.000561059 0.000685463 -1.75962e-14
0.0005 0.000602005 0.000685463 -1.65513e-14
0.0005 0.000639229 0.000685463 -1.57282e-14
0.0005 0.000673069 0.000685463 -1.51111e-14
0.0005 0.000703833 0.000685463 -1.44095e-14
0.0005 0.000731799 0.000685463 -1.34048e-14
0.0005 0.000757224 0.000685463 -1.2501e-14
0.0005 0.000780337 0.000685463 -1.16176e-14
0.0005 0.000801349 0.000685463 -1.07878e-14
0.0005 0.000820451 0.000685463 -9.9666e-15
0.0005 0.000837816 0.000685463 -9.20484e-15
0.0005 0.000853602 0.000685463 -8.49925e-15
0.0005 0.000867954 0.000685463 -7.84828e-15
0.0005 0.000881001 0.000685463 -7.23583e-15
0.0005 0.000892861 0.000685463 -6.67792e-15
0.0005 0.000903644 0.000685463 -6.28828e-15
0.0005 0.000913446 0.000685463 -6.01086e-15
0.0005 0.000922357 0.000685463 -5.81986e-15
0.0005 0.000930458 0.000685463 -5.7272e-15
0.0005 0.000937823 0.000685463 -5.71022e-15
0.0005 0.000944518 0.000685463 -5.4161e-15
0.0005 0.000950604 0.000685463 -5.37273e-15
0.0005 0.000956137 0.000685463 -5.31457e-15
0.0005 0.000961167 0.000685463 -5.2036e-15
0.0005 0.00096574 0.000685463 -5.11498e-15
0.0005 0.000969897 0.000685463 -5.07969e-15
0.0005 0.000973676 0.000685463 -4.99368e-15
0.0005 0.000977112 0.000685463 -4.8766e-15
0.0005 0.000980235 0.000685463 -4.79603e-15
0.0005 0.000983075 0.000685463 -4.73687e-15
0.0005 0.000985656 0.000685463 -4.68122e-15
0.0005 0.000988002 0.000685463 -4.60086e-15
0.0005 0.000990136 0.000685463 -4.51582e-15
0.0005 0.000992075 0.000685463 -4.43422e-15
0.0005 0.000993838 0.000685463 -4.36524e-15
0.0005 0.000995441 0.000685463 -4.27554e-15
0.0005 0.000996898 0.000685463 -4.23226e-15
0.0005 0.000998222 0.000685463 -4.18605e-15
0.0005 0.000999427 0.000685463 -4.13735e-15
0.0005 4.59758e-05 0.000773295 -2.71087e-14
0.0005 0.000133748 0.000773295 -2.51713e-14
0.0005 0.000213541 0.000773295 -2.34067e-14
0.0005 0.000286079 0.000773295 -2.0474e-14
0.0005 0.000352024 0.000773295 -2.22448e-14
0.0005 0.000411973 0.000773295 -2.24413e-14
0.0005 0.000466473 0.000773295 -2.12468e-14
0.0005 0.000516018 0.000773295 -1.91434e-14
0.0005 0.000561059 0.000773295 -1.59617e-14
0.0005 0.000602005 0.000773295 -1.71653e-14
0.0005 0.000639229 0.000773295 -1.73709e-14
0.0005 0.000673069 0.000773295 -1.692e-14
0.0005 0.000703833 0.000773295 -1.65145e-14
0.0005 0.000731799 0.000773295 -1.61402e-14
0.0005 0.000757224 0.000773295 -1.57992e-14
0.0005 0.000780337 0.000773295 -1.55068e-14
0.0005 0.000801349 0.000773295 -1.53125e-14
0.0005 0.000820451 0.000773295 -1.41042e-14
0.0005 0.000837816 0.000773295 -1.35141e-14
0.0005 0.000853602 0.000773295 -1.22394e-14
0.0005 0.000867954 0.000773295 -1.13348e-14
0.0005 0.000881001 0.000773295 -1.0833e-14
0.0005 0.000892861 0.000773295 -1.06073e-14
0.0005 0.000903644 0.000773295 -1.04926e-14
0.0005 0.000913446 0.000773295 -1.03861e-14
0.0005 0.000922357 0.000773295 -1.02857e-14
0.0005 0.000930458 0.000773295 -1.05412e-14
0.0005 0.000937823 0.000773295 -1.08148e-14
0.0005 0.000944518 0.000773295 -1.11249e-14
0.0005 0.000950604 0.000773295 -1.11881e-14
0.0005 0.000956137 0.000773295 -1.13536e-14
0.0005 0.000961167 0.000773295 -1.15371e-14
0.0005 0.00096574 0.000773295 -1.17233e-14
0.0005 0.000969897 0.000773295 -1.18662e-14
0.0005 0.000973676 0.000773295 -1.19728e-14
0.0005 0.000977112 0.000773295 -1.20542e-14
0.0005 0.000980235 0.000773295 -1.21132e-14
0.0005 0.000983075 0.000773295 -1.21489e-14
0.0005 0.000985656 0.000773295 -1.21845e-14
0.0005 0.000988002 0.000773295 -1.22057e-14
0.0005 0.000990136 0.000773295 -1.22116e-14
0.0005 0.000992075 0.000773295 -1.22144e-14
0.0005 0.000993838 0.000773295 -1.2199e-14
0.0005 0.000995441 0.000773295 -1.21926e-14
0.0005 0.000996898 0.000773295 -1.21688e-14
0.0005 0.000998222 0.000773295 -1.22063e-14
0.0005 0.000999427 0.000773295 -1.22993e-14
0.0005 4.59758e-05 0.00086031 -2.68375e-14
0.0005 0.000133748 0.00086031 -2.51313e-14
0.0005 0.000213541 0.00086031 -2.54535e-14
0.0005 0.000286079 0.00086031 -2.56856e-14
0.0005 0.000352024 0.00086031 -2.78915e-14
0.0005 0.000411973 0.00086031 -2.36792e-14
0.0005 0.000466473 0.00086031 -2.25656e-14
0.0005 0.000516018 0.00086031 -2.16643e-14
0.0005 0.000561059 0.00086031 -2.07895e-14
0.0005 0.000602005 0.00086031 -2.03478e-14
0.0005 0.000639229 0.00086031 -1.99343e-14
0.0005 0.000673069 0.00086031 -1.94207e-14
0.0005 0.000703833 0.00086031 -1.90722e-14
0.0005 0.000731799 0.00086031 -1.90135e-14
0.0005 0.000757224 0.00086031 -1.92916e-14
0.0005 0.000780337 0.00086031 -1.99056e-14
0.0005 0.000801349 0.00086031 -1.81749e-14
0.0005 0.000820451 0.00086031 -1.67576e-14
0.0005 0.000837816 0.00086031 -1.68275e-14
0.0005 0.000853602 0.00086031 -1.67957e-14
0.0005 0.000867954 0.00086031 -1.66177e-14
0.0005 0.000881001 0.00086031 -1.63704e-14
0.0005 0.000892861 0.00086031 -1.63205e-14
0.0005 0.000903644 0.00086031 -1.63583e-14
0.0005 0.000913446 0.00086031 -1.64022e-14
0.0005 0.000922357 0.00086031 -1.64235e-14
0.0005 0.000930458 0.00086031 -1.64559e-14
0.0005 0.000937823 0.00086031 -1.6712e-14
0.0005 0.000944518 0.00086031 -1.69155e-14
0.0005 0.000950604 0.00086031 -1.70384e-14
0.0005 0.000956137 0.00086031 -1.71289e-14
0.0005 0.000961167 0.00086031 -1.71826e-14
0.0005 0.00096574 0.00086031 -1.72454e-14
0.0005 0.000969897 0.00086031 -1.72915e-14
0.0005 0.000973676 0.00086031 -1.73199e-14
0.0005 0.000977112 0.00086031 -1.73185e-14
0.0005 0.000980235 0.00086031 -1.73707e-14
0.0005 0.000983075 0.00086031 -1.73858e-14
0.0005 0.000985656 0.00086031 -1.73853e-14
0.0005 0.000988002 0.00086031 -1.7373e-14
0.0005 0.000990136 0.00086031 -1.73505e-14
0.0005 0.000992075 0.00086031 -1.73255e-14
0.0005 0.000993838 0.00086031 -1.72725e-14
0.0005 0.000995441 0.00086031 -1.72168e-14
0.0005 0.000996898 0.00086031 -1.71854e-14
0.0005 0.000998222 0.00086031 -1.71798e-14
0.0005 0.000999427 0.00086031 -1.71928e-14
0.0005 4.59758e-05 0.000946515 -2.81169e-14
0.0005 0.000133748 0.000946515 -2.77593e-14
0.0005 0.000213541 0.000946515 -2.76396e-14
0.0005 0.000286079 0.000946515 -2.77246e-14
0.0005 0.000352024 0.000946515 -2.68833e-14
0.0005 0.000411973 0.000946515 -2.42845e-14
0.0005 0.000466473 0.000946515 -2.33999e-14
0.0005 0.000516018 0.000946515 -2.28535e-14
0.0005 0.000561059 0.000946515 -2.22625e-14
0.0005 0.000602005 0.000946515 -2.16957e-14
0.0005 0.000639229 0.000946515 -2.08981e-14
0.0005 0.000673069 0.000946515 -2.11102e-14
0.0005 0.000703833 0.000946515 -2.11069e-14
0.0005 0.000731799 0.000946515 -2.12265e-14
0.0005 0.000757224 0.000946515 -2.16811e-14
0.0005 0.000780337 0.000946515 -2.24616e-14
0.0005 0.000801349 0.000946515 -1.96798e-14
0.0005 0.000820451 0.000946515 -1.88341e-14
0.0005 0.000837816 0.000946515 -1.88831e-14
0.0005 0.000853602 0.000946515 -1.93857e-14
0.0005 0.000867954 0.000946515 -1.96235e-14
0.0005 0.000881001 0.000946515 -1.96067e-14
0.0005 0.000892861 0.000946515 -1.975e-14
0.0005 0.000903644 0.000946515 -1.99801e-14
0.0005 0.000913446 0.000946515 -1.99644e-14
0.0005 0.000922357 0.000946515 -2.00233e-14
0.0005 0.000930458 0.000946515 -2.02385e-14
0.0005 0.000937823 0.000946515 -2.0494e-14
0.0005 0.000944518 0.000946515 -2.07343e-14
0.0005 0.000950604 0.000946515 -2.09477e-14
0.0005 0.000956137 0.000946515 -2.11537e-14
0.0005 0.000961167 0.000946515 -2.13463e-14
0.0005 0.00096574 0.000946515 -2.15494e-14
0.0005 0.000969897 0.000946515 -2.16687e-14
0.0005 0.000973676 0.000946515 -2.18e-14
0.0005 0.000977112 0.000946515 -2.19389e-14
0.0005 0.000980235 0.000946515 -2.20241e-14
0.0005 0.000983075 0.000946515 -2.21143e-14
0.0005 0.000985656 0.000946515 -2.22154e-14
0.0005 0.000988002 0.000946515 -2.23109e-14
0.0005 0.000990136 0.000946515 -2.24248e-14
0.0005 0.000992075 0.000946515 -2.25288e-14
0.0005 0.000993838 0.000946515 -2.26213e-14
0.0005 0.000995441 0.000946515 -2.26962e-14
0.0005 0.000996898 0.000946515 -2.27524e-14
0.0005 0.000998222 0.000946515 -2.28215e-14
0.0005 0.000999427 0.000946515 -2.29046e-14
0.0005 4.59758e-05 0.00103192 -2.97712e-14
0.0005 0.000133748 0.00103192 -3.0228e-14
0.0005 0.000213541 0.00103192 -2.95362e-14
0.0005 0.000286079 0.00103192 -3.12727e-14
0.0005 0.000352024 0.00103192 -2.92108e-14
0.0005 0.000411973 0.00103192 -2.90597e-14
0.0005 0.000466473 0.00103192 -2.54857e-14
0.0005 0.000516018 0.00103192 -2.44172e-14
0.0005 0.000561059 0.00103192 -2.35281e-14
0.0005 0.000602005 0.00103192 -2.26748e-14
0.0005 0.000639229 0.00103192 -2.36062e-14
0.0005 0.000673069 0.00103192 -2.49001e-14
0.0005 0.000703833 0.00103192 -2.37286e-14
0.0005 0.000731799 0.00103192 -2.32451e-14
0.0005 0.000757224 0.00103192 -2.29874e-14
0.0005 0.000780337 0.00103192 -2.28121e-14
0.0005 0.000801349 0.00103192 -2.25963e-14
0.0005 0.000820451 0.00103192 -2.25232e-14
0.0005 0.000837816 0.00103192 -2.36587e-14
0.0005 0.000853602 0.00103192 -2.33695e-14
0.0005 0.000867954 0.00103192 -2.31914e-14
0.0005 0.000881001 0.00103192 -2.31397e-14
0.0005 0.000892861 0.00103192 -2.31291e-14
0.0005 0.000903644 0.00103192 -2.32065e-14
0.0005 0.000913446 0.00103192 -2.33586e-14
0.0005 0.000922357 0.00103192 -2.36168e-14
0.0005 0.000930458 0.00103192 -2.39543e-14
0.0005 0.000937823 0.00103192 -2.4077e-14
0.0005 0.000944518 0.00103192 -2.4305e-14
0.0005 0.000950604 0.00103192 -2.45376e-14
0.0005 0.000956137 0.00103192 -2.46982e-14
0.0005 0.000961167 0.00103192 -2.49296e-14
0.0005 0.00096574 0.00103192 -2.50948e-14
0.0005 0.000969897 0.00103192 -2.52461e-14
0.0005 0.000973676 0.00103192 -2.53861e-14
0.0005 0.000977112 0.00103192 -2.54527e-14
0.0005 0.000980235 0.00103192 -2.55292e-14
0.0005 0.000983075 0.00103192 -2.56173e-14
0.0005 0.000985656 0.00103192 -2.57245e-14
0.0005 0.000988002 0.00103192 -2.58716e-14
0.0005 0.000990136 0.00103192 -2.5964e-14
0.0005 0.000992075 0.00103192 -2.60839e-14
0.0005 0.000993838 0.00103192 -2.62051e-14
0.0005 0.000995441 0.00103192 -2.63178e-14
0.0005 0.000996898 0.00103192 -2.64076e-14
0.0005 0.000998222 0.00103192 -2.64686e-14
0.0005 0.000999427 0.00103192 -2.65092e-14
0.0005 4.59758e-05 0.00111653 -3.09998e-14
0.0005 0.000133748 0.00111653 -3.38415e-14
0.0005 0.000213541 0.00111653 -3.00255e-14
0.0005 0.000286079 0.00111653 -2.64733e-14
0.0005 0.000352024 0.00111653 -2.81607e-14
0.0005 0.000411973 0.00111653 -2.97511e-14
0.0005 0.000466473 0.00111653 -2.62106e-14
0.0005 0.000516018 0.00111653 -2.54578e-14
0.0005 0.000561059 0.00111653 -2.48271e-14
0.0005 0.000602005 0.00111653 -2.44053e-14
0.0005 0.000639229 0.00111653 -2.42147e-14
0.0005 0.000673069 0.00111653 -2.40686e-14
0.0005 0.000703833 0.00111653 -2.38053e-14
0.0005 0.000731799 0.00111653 -2.37346e-14
0.0005 0.000757224 0.00111653 -2.36768e-14
0.0005 0.000780337 0.00111653 -2.36188e-14
0.0005 0.000801349 0.00111653 -2.35214e-14
0.0005 0.000820451 0.00111653 -2.3269e-14
0.0005 0.000837816 0.00111653 -2.32506e-14
0.0005 0.000853602 0.00111653 -2.39974e-14
0.0005 0.000867954 0.00111653 -2.45022e-14
0.0005 0.000881001 0.00111653 -2.50303e-14
0.0005 0.000892861 0.00111653 -2.47699e-14
0.0005 0.000903644 0.00111653 -2.49702e-14
0.0005 0.000913446 0.00111653 -2.49526e-14
0.0005 0.000922357 0.00111653 -2.47044e-14
0.0005 0.000930458 0.00111653 -2.45189e-14
0.0005 0.000937823 0.00111653 -2.45011e-14
0.0005 0.000944518 0.00111653 -2.45416e-14
0.0005 0.000950604 0.00111653 -2.46252e-14
0.0005 0.000956137 0.00111653 -2.47749e-14
0.0005 0.000961167 0.00111653 -2.49145e-14
0.0005 0.00096574 0.00111653 -2.50527e-14
0.0005 0.000969897 0.00111653 -2.51888e-14
0.0005 0.000973676 0.00111653 -2.53163e-14
0.0005 0.000977112 0.00111653 -2.55364e-14
0.0005 0.000980235 0.00111653 -2.57359e-14
0.0005 0.000983075 0.00111653 -2.59722e-14
0.0005 0.000985656 0.00111653 -2.61771e-14
0.0005 0.000988002 0.00111653 -2.63936e-14
0.0005 0.000990136 0.00111653 -2.65805e-14
0.0005 0.000992075 0.00111653 -2.67429e-14
0.0005 0.000993838 0.00111653 -2.68774e-14
0.0005 0.000995441 0.00111653 -2.69725e-14
0.0005 0.000996898 0.00111653 -2.70514e-14
0.0005 0.000998222 0.00111653 -2.71081e-14
0.0005 0.000999427 0.00111653 -2.71417e-14
0.0005 4.59758e-05 0.00120035 -3.17093e-14
0.0005 0.000133748 0.00120035 -3.19043e-14
0.0005 0.000213541 0.00120035 -3.03862e-14
0.0005 0.000286079 0.00120035 -2.86051e-14
0.0005 0.000352024 0.00120035 -2.72139e-14
0.0005 0.000411973 0.00120035 -2.82119e-14
0.0005 0.000466473 0.00120035 -2.739e-14
0.0005 0.000516018 0.00120035 -2.61462e-14
0.0005 0.000561059 0.00120035 -2.54432e-14
0.0005 0.000602005 0.00120035 -2.50507e-14
0.0005 0.000639229 0.00120035 -2.47172e-14
0.0005 0.000673069 0.00120035 -2.39785e-14
0.0005 0.000703833 0.00120035 -2.25031e-14
0.0005 0.000731799 0.00120035 -2.39554e-14
0.0005 0.000757224 0.00120035 -2.46315e-14
0.0005 0.000780337 0.00120035 -2.47765e-14
0.0005 0.000801349 0.00120035 -2.48485e-14
0.0005 0.000820451 0.00120035 -2.48805e-14
0.0005 0.000837816 0.00120035 -2.47934e-14
0.0005 0.000853602 0.00120035 -2.45181e-14
0.0005 0.000867954 0.00120035 -2.39608e-14
0.0005 0.000881001 0.00120035 -2.41344e-14
0.0005 0.000892861 0.00120035 -2.48878e-14
0.0005 0.000903644 0.00120035 -2.51698e-14
0.0005 0.000913446 0.00120035 -2.53397e-14
0.0005 0.000922357 0.00120035 -2.56055e-14
0.0005 0.000930458 0.00120035 -2.58298e-14
0.0005 0.000937823 0.00120035 -2.59108e-14
0.0005 0.000944518 0.00120035 -2.63169e-14
0.0005 0.000950604 0.00120035 -2.66203e-14
0.0005 0.000956137 0.00120035 -2.68498e-14
0.0005 0.000961167 0.00120035 -2.69544e-14
0.0005 0.00096574 0.00120035 -2.70419e-14
0.0005 0.000969897 0.00120035 -2.71311e-14
0.0005 0.000973676 0.00120035 -2.71899e-14
0.0005 0.000977112 0.00120035 -2.71369e-14
0.0005 0.000980235 0.00120035 -2.70532e-14
0.0005 0.000983075 0.00120035 -2.70456e-14
0.0005 0.000985656 0.00120035 -2.70152e-14
0.0005 0.000988002 0.00120035 -2.69805e-14
0.0005 0.000990136 0.00120035 -2.69468e-14
0.0005 0.000992075 0.00120035 -2.69303e-14
0.0005 0.000993838 0.00120035 -2.6912e-14
0.0005 0.000995441 0.00120035 -2.69144e-14
0.0005 0.000996898 0.00120035 -2.68926e-14
0.0005 0.000998222 0.00120035 -2.68616e-14
0.0005 0.000999427 0.00120035 -2.68209e-14
0.0005 4.59758e-05 0.00128339 -3.22788e-14
0.0005 0.000133748 0.00128339 -3.16911e-14
0.0005 0.000213541 0.00128339 -3.1157e-14
0.0005 0.000286079 0.00128339 -3.02552e-14
0.0005 0.000352024 0.00128339 -2.96183e-14
0.0005 0.000411973 0.00128339 -2.99791e-14
0.0005 0.000466473 0.00128339 -3.12697e-14
0.0005 0.000516018 0.00128339 -2.70087e-14
0.0005 0.000561059 0.00128339 -2.50223e-14
0.0005 0.000602005 0.00128339 -2.54253e-14
0.0005 0.000639229 0.00128339 -2.76238e-14
0.0005 0.000673069 0.00128339 -2.64168e-14
0.0005 0.000703833 0.00128339 -2.60256e-14
0.0005 0.000731799 0.00128339 -2.61004e-14
0.0005 0.000757224 0.00128339 -2.63473e-14
0.0005 0.000780337 0.00128339 -2.66909e-14
0.0005 0.000801349 0.00128339 -2.70631e-14
0.0005 0.000820451 0.00128339 -2.74331e-14
0.0005 0.000837816 0.00128339 -2.74661e-14
0.0005 0.000853602 0.00128339 -2.76482e-14
0.0005 0.000867954 0.00128339 -2.82238e-14
0.0005 0.000881001 0.00128339 -2.81797e-14
0.0005 0.000892861 0.00128339 -2.75237e-14
0.0005 0.000903644 0.00128339 -2.72026e-14
0.0005 0.000913446 0.00128339 -2.67092e-14
0.0005 0.000922357 0.00128339 -2.66013e-14
0.0005 0.000930458 0.00128339 -2.64362e-14
0.0005 0.000937823 0.00128339 -2.61584e-14
0.0005 0.000944518 0.00128339 -2.59204e-14
0.0005 0.000950604 0.00128339 -2.57116e-14
0.0005 0.000956137 0.00128339 -2.55211e-14
0.0005 0.000961167 0.00128339 -2.54077e-14
0.0005 0.00096574 0.00128339 -2.53368e-14
0.0005 0.000969897 0.00128339 -2.52913e-14
0.0005 0.000973676 0.00128339 -2.52674e-14