# k  FACE_DATA 8748
#  x  y  z  k
0.0005 4.57206e-05 4.66216e-05 30.0477
0.0005 0.000133005 4.66216e-05 31.4007
0.0005 0.000212355 4.66216e-05 33.7357
0.0005 0.000284491 4.66216e-05 36.7451
0.0005 0.000350069 4.66216e-05 40.1787
0.0005 0.000409686 4.66216e-05 43.8381
0.0005 0.000463883 4.66216e-05 47.572
0.0005 0.000513153 4.66216e-05 51.2694
0.0005 0.000557944 4.66216e-05 54.8524
0.0005 0.000598663 4.66216e-05 58.2689
0.0005 0.00063568 4.66216e-05 61.486
0.0005 0.000669332 4.66216e-05 64.4853
0.0005 0.000699925 4.66216e-05 67.258
0.0005 0.000727736 4.66216e-05 69.7976
0.0005 0.00075302 4.66216e-05 72.0903
0.0005 0.000776004 4.66216e-05 74.1296
0.0005 0.0007969 4.66216e-05 75.9168
0.0005 0.000815895 4.66216e-05 77.4582
0.0005 0.000833164 4.66216e-05 78.7608
0.0005 0.000848863 4.66216e-05 79.83
0.0005 0.000863135 4.66216e-05 80.6685
0.0005 0.000876109 4.66216e-05 81.2753
0.0005 0.000887904 4.66216e-05 81.6452
0.0005 0.000898627 4.66216e-05 81.7681
0.0005 0.000908374 4.66216e-05 81.6289
0.0005 0.000917236 4.66216e-05 81.2065
0.0005 0.000925292 4.66216e-05 80.4729
0.0005 0.000932616 4.66216e-05 79.3929
0.0005 0.000939274 4.66216e-05 77.9231
0.0005 0.000945326 4.66216e-05 76.0118
0.0005 0.000950829 4.66216e-05 73.6003
0.0005 0.000955831 4.66216e-05 70.6251
0.0005 0.000960378 4.66216e-05 67.0232
0.0005 0.000964512 4.66216e-05 62.7413
0.0005 0.00096827 4.66216e-05 57.7494
0.0005 0.000971687 4.66216e-05 52.0588
0.0005 0.000974793 4.66216e-05 45.7366
0.0005 0.000977616 4.66216e-05 38.8863
0.0005 0.000980183 4.66216e-05 31.7423
0.0005 0.000982517 4.66216e-05 24.6967
0.0005 0.000984638 4.66216e-05 18.2235
0.0005 0.000986567 4.66216e-05 12.7362
0.0005 0.00098832 4.66216e-05 8.44861
0.0005 0.000989914 4.66216e-05 5.33779
0.0005 0.000991363 4.66216e-05 3.21802
0.0005 0.00099268 4.66216e-05 1.8479
0.0005 0.000993878 4.66216e-05 1.0038
0.0005 0.000994966 4.66216e-05 0.508948
0.0005 0.000995956 4.66216e-05 0.235425
0.0005 0.000996856 4.66216e-05 0.0956008
0.0005 0.000997673 4.66216e-05 0.0318109
0.0005 0.000998417 4.66216e-05 0.0075657
0.0005 0.000999093 4.66216e-05 0.000942676
0.0005 0.000999707 4.66216e-05 2.82744e-05
0.0005 4.57206e-05 0.000138425 30.0622
0.0005 0.000133005 0.000138425 31.4117
0.0005 0.000212355 0.000138425 33.7408
0.0005 0.000284491 0.000138425 36.7433
0.0005 0.000350069 0.000138425 40.1697
0.0005 0.000409686 0.000138425 43.8222
0.0005 0.000463883 0.000138425 47.5499
0.0005 0.000513153 0.000138425 51.2418
0.0005 0.000557944 0.000138425 54.8201
0.0005 0.000598663 0.000138425 58.2326
0.0005 0.00063568 0.000138425 61.4464
0.0005 0.000669332 0.000138425 64.4428
0.0005 0.000699925 0.000138425 67.213
0.0005 0.000727736 0.000138425 69.7508
0.0005 0.00075302 0.000138425 72.0423
0.0005 0.000776004 0.000138425 74.0807
0.0005 0.0007969 0.000138425 75.8675
0.0005 0.000815895 0.000138425 77.4085
0.0005 0.000833164 0.000138425 78.7109
0.0005 0.000848863 0.000138425 79.78
0.0005 0.000863135 0.000138425 80.6184
0.0005 0.000876109 0.000138425 81.2252
0.0005 0.000887904 0.000138425 81.5951
0.0005 0.000898627 0.000138425 81.7181
0.0005 0.000908374 0.000138425 81.5791
0.0005 0.000917236 0.000138425 81.1568
0.0005 0.000925292 0.000138425 80.4234
0.0005 0.000932616 0.000138425 79.3437
0.0005 0.000939274 0.000138425 77.8741
0.0005 0.000945326 0.000138425 75.9632
0.0005 0.000950829 0.000138425 73.5521
0.0005 0.000955831 0.000138425 70.5775
0.0005 0.000960378 0.000138425 66.9765
0.0005 0.000964512 0.000138425 62.6956
0.0005 0.00096827 0.000138425 57.7052
0.0005 0.000971687 0.000138425 52.0165
0.0005 0.000974793 0.000138425 45.6969
0.0005 0.000977616 0.000138425 38.8499
0.0005 0.000980183 0.000138425 31.71
0.0005 0.000982517 0.000138425 24.6695
0.0005 0.000984638 0.000138425 18.2019
0.0005 0.000986567 0.000138425 12.7202
0.0005 0.00098832 0.000138425 8.43754
0.0005 0.000989914 0.000138425 5.33061
0.0005 0.000991363 0.000138425 3.21362
0.0005 0.00099268 0.000138425 1.84536
0.0005 0.000993878 0.000138425 1.00241
0.0005 0.000994966 0.000138425 0.508242
0.0005 0.000995956 0.000138425 0.235099
0.0005 0.000996856 0.000138425 0.0954681
0.0005 0.000997673 0.000138425 0.0317667
0.0005 0.000998417 0.000138425 0.0075552
0.0005 0.000999093 0.000138425 0.000941368
0.0005 0.000999707 0.000138425 2.82352e-05
0.0005 4.57206e-05 0.000227392 30.0912
0.0005 0.000133005 0.000227392 31.4338
0.0005 0.000212355 0.000227392 33.7517
0.0005 0.000284491 0.000227392 36.7408
0.0005 0.000350069 0.000227392 40.1533
0.0005 0.000409686 0.000227392 43.7926
0.0005 0.000463883 0.000227392 47.5082
0.0005 0.000513153 0.000227392 51.1896
0.0005 0.000557944 0.000227392 54.7588
0.0005 0.000598663 0.000227392 58.1636
0.0005 0.00063568 0.000227392 61.3709
0.0005 0.000669332 0.000227392 64.3618
0.0005 0.000699925 0.000227392 67.1272
0.0005 0.000727736 0.000227392 69.6615
0.0005 0.00075302 0.000227392 71.9505
0.0005 0.000776004 0.000227392 73.9873
0.0005 0.0007969 0.000227392 75.773
0.0005 0.000815895 0.000227392 77.3133
0.0005 0.000833164 0.000227392 78.6152
0.0005 0.000848863 0.000227392 79.684
0.0005 0.000863135 0.000227392 80.5223
0.0005 0.000876109 0.000227392 81.129
0.0005 0.000887904 0.000227392 81.4989
0.0005 0.000898627 0.000227392 81.6219
0.0005 0.000908374 0.000227392 81.483
0.0005 0.000917236 0.000227392 81.061
0.0005 0.000925292 0.000227392 80.328
0.0005 0.000932616 0.000227392 79.2486
0.0005 0.000939274 0.000227392 77.7795
0.0005 0.000945326 0.000227392 75.8692
0.0005 0.000950829 0.000227392 73.459
0.0005 0.000955831 0.000227392 70.4856
0.0005 0.000960378 0.000227392 66.886
0.0005 0.000964512 0.000227392 62.6072
0.0005 0.00096827 0.000227392 57.6196
0.0005 0.000971687 0.000227392 51.9347
0.0005 0.000974793 0.000227392 45.6201
0.0005 0.000977616 0.000227392 38.7794
0.0005 0.000980183 0.000227392 31.6476
0.0005 0.000982517 0.000227392 24.6168
0.0005 0.000984638 0.000227392 18.1601
0.0005 0.000986567 0.000227392 12.6892
0.0005 0.00098832 0.000227392 8.41611
0.0005 0.000989914 0.000227392 5.3167
0.0005 0.000991363 0.000227392 3.2051
0.0005 0.00099268 0.000227392 1.84043
0.0005 0.000993878 0.000227392 0.999724
0.0005 0.000994966 0.000227392 0.506876
0.0005 0.000995956 0.000227392 0.234466
0.0005 0.000996856 0.000227392 0.0952113
0.0005 0.000997673 0.000227392 0.0316812
0.0005 0.000998417 0.000227392 0.00753487
0.0005 0.000999093 0.000227392 0.000938835
0.0005 0.000999707 0.000227392 2.81592e-05
0.0005 4.57206e-05 0.000313612 30.1352
0.0005 0.000133005 0.000313612 31.4679
0.0005 0.000212355 0.000313612 33.7695
0.0005 0.000284491 0.000313612 36.7391
0.0005 0.000350069 0.000313612 40.1315
0.0005 0.000409686 0.000313612 43.7515
0.0005 0.000463883 0.000313612 47.4495
0.0005 0.000513153 0.000313612 51.1155
0.0005 0.000557944 0.000313612 54.6716
0.0005 0.000598663 0.000313612 58.0652
0.0005 0.00063568 0.000313612 61.2631
0.0005 0.000669332 0.000313612 64.2458
0.0005 0.000699925 0.000313612 67.0043
0.0005 0.000727736 0.000313612 69.5333
0.0005 0.00075302 0.000313612 71.8186
0.0005 0.000776004 0.000313612 73.853
0.0005 0.0007969 0.000313612 75.637
0.0005 0.000815895 0.000313612 77.1763
0.0005 0.000833164 0.000313612 78.4774
0.0005 0.000848863 0.000313612 79.5457
0.0005 0.000863135 0.000313612 80.3837
0.0005 0.000876109 0.000313612 80.9903
0.0005 0.000887904 0.000313612 81.3601
0.0005 0.000898627 0.000313612 81.4833
0.0005 0.000908374 0.000313612 81.3446
0.0005 0.000917236 0.000313612 80.9229
0.0005 0.000925292 0.000313612 80.1903
0.0005 0.000932616 0.000313612 79.1114
0.0005 0.000939274 0.000313612 77.6431
0.0005 0.000945326 0.000313612 75.7337
0.0005 0.000950829 0.000313612 73.3247
0.0005 0.000955831 0.000313612 70.3528
0.0005 0.000960378 0.000313612 66.7554
0.0005 0.000964512 0.000313612 62.4796
0.0005 0.00096827 0.000313612 57.496
0.0005 0.000971687 0.000313612 51.8166
0.0005 0.000974793 0.000313612 45.5093
0.0005 0.000977616 0.000313612 38.6777
0.0005 0.000980183 0.000313612 31.5575
0.0005 0.000982517 0.000313612 24.5408
0.0005 0.000984638 0.000313612 18.0998
0.0005 0.000986567 0.000313612 12.6445
0.0005 0.00098832 0.000313612 8.38522
0.0005 0.000989914 0.000313612 5.29666
0.0005 0.000991363 0.000313612 3.19283
0.0005 0.00099268 0.000313612 1.83332
0.0005 0.000993878 0.000313612 0.995849
0.0005 0.000994966 0.000313612 0.504908
0.0005 0.000995956 0.000313612 0.233555
0.0005 0.000996856 0.000313612 0.0948411
0.0005 0.000997673 0.000313612 0.0315581
0.0005 0.000998417 0.000313612 0.00750557
0.0005 0.000999093 0.000313612 0.000935185
0.0005 0.000999707 0.000313612 2.80498e-05
0.0005 4.57206e-05 0.000397168 30.1956
0.0005 0.000133005 0.000397168 31.5154
0.0005 0.000212355 0.000397168 33.7959
0.0005 0.000284491 0.000397168 36.7403
0.0005 0.000350069 0.000397168 40.1064
0.0005 0.000409686 0.000397168 43.7013
0.0005 0.000463883 0.000397168 47.3765
0.0005 0.000513153 0.000397168 51.0225
0.0005 0.000557944 0.000397168 54.5614
0.0005 0.000598663 0.000397168 57.9405
0.0005 0.00063568 0.000397168 61.126
0.0005 0.000669332 0.000397168 64.0983
0.0005 0.000699925 0.000397168 66.8477
0.0005 0.000727736 0.000397168 69.3697
0.0005 0.00075302 0.000397168 71.6502
0.0005 0.000776004 0.000397168 73.6812
0.0005 0.0007969 0.000397168 75.463
0.0005 0.000815895 0.000397168 77.0008
0.0005 0.000833164 0.000397168 78.3009
0.0005 0.000848863 0.000397168 79.3686
0.0005 0.000863135 0.000397168 80.2062
0.0005 0.000876109 0.000397168 80.8126
0.0005 0.000887904 0.000397168 81.1824
0.0005 0.000898627 0.000397168 81.3057
0.0005 0.000908374 0.000397168 81.1672
0.0005 0.000917236 0.000397168 80.7459
0.0005 0.000925292 0.000397168 80.0138
0.0005 0.000932616 0.000397168 78.9357
0.0005 0.000939274 0.000397168 77.4682
0.0005 0.000945326 0.000397168 75.56
0.0005 0.000950829 0.000397168 73.1526
0.0005 0.000955831 0.000397168 70.1828
0.0005 0.000960378 0.000397168 66.5881
0.0005 0.000964512 0.000397168 62.316
0.0005 0.00096827 0.000397168 57.3376
0.0005 0.000971687 0.000397168 51.6653
0.0005 0.000974793 0.000397168 45.3673
0.0005 0.000977616 0.000397168 38.5474
0.0005 0.000980183 0.000397168 31.4421
0.0005 0.000982517 0.000397168 24.4435
0.0005 0.000984638 0.000397168 18.0226
0.0005 0.000986567 0.000397168 12.5874
0.0005 0.00098832 0.000397168 8.34572
0.0005 0.000989914 0.000397168 5.27104
0.0005 0.000991363 0.000397168 3.17715
0.0005 0.00099268 0.000397168 1.82424
0.0005 0.000993878 0.000397168 0.990896
0.0005 0.000994966 0.000397168 0.502391
0.0005 0.000995956 0.000397168 0.23239
0.0005 0.000996856 0.000397168 0.0943679
0.0005 0.000997673 0.000397168 0.0314006
0.0005 0.000998417 0.000397168 0.00746812
0.0005 0.000999093 0.000397168 0.000930519
0.0005 0.000999707 0.000397168 2.79098e-05
0.0005 4.57206e-05 0.000478143 30.2739
0.0005 0.000133005 0.000478143 31.578
0.0005 0.000212355 0.000478143 33.8328
0.0005 0.000284491 0.000478143 36.7465
0.0005 0.000350069 0.000478143 40.0806
0.0005 0.000409686 0.000478143 43.6447
0.0005 0.000463883 0.000478143 47.292
0.0005 0.000513153 0.000478143 50.9133
0.0005 0.000557944 0.000478143 54.431
0.0005 0.000598663 0.000478143 57.7922
0.0005 0.00063568 0.000478143 60.9626
0.0005 0.000669332 0.000478143 63.9222
0.0005 0.000699925 0.000478143 66.6609
0.0005 0.000727736 0.000478143 69.1741
0.0005 0.00075302 0.000478143 71.4482
0.0005 0.000776004 0.000478143 73.4749
0.0005 0.0007969 0.000478143 75.254
0.0005 0.000815895 0.000478143 76.79
0.0005 0.000833164 0.000478143 78.089
0.0005 0.000848863 0.000478143 79.1559
0.0005 0.000863135 0.000478143 79.993
0.0005 0.000876109 0.000478143 80.5991
0.0005 0.000887904 0.000478143 80.9688
0.0005 0.000898627 0.000478143 81.0923
0.0005 0.000908374 0.000478143 80.9541
0.0005 0.000917236 0.000478143 80.5333
0.0005 0.000925292 0.000478143 79.8018
0.0005 0.000932616 0.000478143 78.7245
0.0005 0.000939274 0.000478143 77.2582
0.0005 0.000945326 0.000478143 75.3514
0.0005 0.000950829 0.000478143 72.9458
0.0005 0.000955831 0.000478143 69.9784
0.0005 0.000960378 0.000478143 66.3871
0.0005 0.000964512 0.000478143 62.1196
0.0005 0.00096827 0.000478143 57.1475
0.0005 0.000971687 0.000478143 51.4836
0.0005 0.000974793 0.000478143 45.1968
0.0005 0.000977616 0.000478143 38.391
0.0005 0.000980183 0.000478143 31.3036
0.0005 0.000982517 0.000478143 24.3267
0.0005 0.000984638 0.000478143 17.9301
0.0005 0.000986567 0.000478143 12.5189
0.0005 0.00098832 0.000478143 8.29838
0.0005 0.000989914 0.000478143 5.24034
0.0005 0.000991363 0.000478143 3.15836
0.0005 0.00099268 0.000478143 1.81336
0.0005 0.000993878 0.000478143 0.984963
0.0005 0.000994966 0.000478143 0.499378
0.0005 0.000995956 0.000478143 0.230995
0.0005 0.000996856 0.000478143 0.0938013
0.0005 0.000997673 0.000478143 0.031212
0.0005 0.000998417 0.000478143 0.00742327
0.0005 0.000999093 0.000478143 0.000924931
0.0005 0.000999707 0.000478143 2.77422e-05
0.0005 4.57206e-05 0.000556618 30.3719
0.0005 0.000133005 0.000556618 31.6578
0.0005 0.000212355 0.000556618 33.8825
0.0005 0.000284491 0.000556618 36.7601
0.0005 0.000350069 0.000556618 40.0565
0.0005 0.000409686 0.000556618 43.5844
0.0005 0.000463883 0.000556618 47.1987
0.0005 0.000513153 0.000556618 50.7909
0.0005 0.000557944 0.000556618 54.2836
0.0005 0.000598663 0.000556618 57.6235
0.0005 0.00063568 0.000556618 60.7761
0.0005 0.000669332 0.000556618 63.7207
0.0005 0.000699925 0.000556618 66.4468
0.0005 0.000727736 0.000556618 68.9493
0.0005 0.00075302 0.000556618 71.2157
0.0005 0.000776004 0.000556618 73.2373
0.0005 0.0007969 0.000556618 75.0131
0.0005 0.000815895 0.000556618 76.5469
0.0005 0.000833164 0.000556618 77.8445
0.0005 0.000848863 0.000556618 78.9105
0.0005 0.000863135 0.000556618 79.747
0.0005 0.000876109 0.000556618 80.3529
0.0005 0.000887904 0.000556618 80.7226
0.0005 0.000898627 0.000556618 80.8461
0.0005 0.000908374 0.000556618 80.7083
0.0005 0.000917236 0.000556618 80.288
0.0005 0.000925292 0.000556618 79.5573
0.0005 0.000932616 0.000556618 78.481
0.0005 0.000939274 0.000556618 77.0159
0.0005 0.000945326 0.000556618 75.1107
0.0005 0.000950829 0.000556618 72.7073
0.0005 0.000955831 0.000556618 69.7427
0.0005 0.000960378 0.000556618 66.1553
0.0005 0.000964512 0.000556618 61.893
0.0005 0.00096827 0.000556618 56.9281
0.0005 0.000971687 0.000556618 51.2741
0.0005 0.000974793 0.000556618 45.0003
0.0005 0.000977616 0.000556618 38.2108
0.0005 0.000980183 0.000556618 31.144
0.0005 0.000982517 0.000556618 24.1923
0.0005 0.000984638 0.000556618 17.8235
0.0005 0.000986567 0.000556618 12.4401
0.0005 0.00098832 0.000556618 8.24395
0.0005 0.000989914 0.000556618 5.20505
0.0005 0.000991363 0.000556618 3.13676
0.0005 0.00099268 0.000556618 1.80086
0.0005 0.000993878 0.000556618 0.978145
0.0005 0.000994966 0.000556618 0.495914
0.0005 0.000995956 0.000556618 0.229392
0.0005 0.000996856 0.000556618 0.0931501
0.0005 0.000997673 0.000556618 0.0309953
0.0005 0.000998417 0.000556618 0.00737173
0.0005 0.000999093 0.000556618 0.000918509
0.0005 0.000999707 0.000556618 2.75496e-05
0.0005 4.57206e-05 0.000632668 30.4916
0.0005 0.000133005 0.000632668 31.7567
0.0005 0.000212355 0.000632668 33.9471
0.0005 0.000284491 0.000632668 36.7835
0.0005 0.000350069 0.000632668 40.0368
0.0005 0.000409686 0.000632668 43.5232
0.0005 0.000463883 0.000632668 47.0995
0.0005 0.000513153 0.000632668 50.6583
0.0005 0.000557944 0.000632668 54.1221
0.0005 0.000598663 0.000632668 57.4375
0.0005 0.00063568 0.000632668 60.5696
0.0005 0.000669332 0.000632668 63.4969
0.0005 0.000699925 0.000632668 66.2083
0.0005 0.000727736 0.000632668 68.6985
0.0005 0.00075302 0.000632668 70.9559
0.0005 0.000776004 0.000632668 72.9714
0.0005 0.0007969 0.000632668 74.7432
0.0005 0.000815895 0.000632668 76.2745
0.0005 0.000833164 0.000632668 77.5705
0.0005 0.000848863 0.000632668 78.6354
0.0005 0.000863135 0.000632668 79.4713
0.0005 0.000876109 0.000632668 80.0767
0.0005 0.000887904 0.000632668 80.4463
0.0005 0.000898627 0.000632668 80.57
0.0005 0.000908374 0.000632668 80.4326
0.0005 0.000917236 0.000632668 80.0129
0.0005 0.000925292 0.000632668 79.283
0.0005 0.000932616 0.000632668 78.2078
0.0005 0.000939274 0.000632668 76.7441
0.0005 0.000945326 0.000632668 74.8407
0.0005 0.000950829 0.000632668 72.4397
0.0005 0.000955831 0.000632668 69.4783
0.0005 0.000960378 0.000632668 65.8952
0.0005 0.000964512 0.000632668 61.6389
0.0005 0.00096827 0.000632668 56.6821
0.0005 0.000971687 0.000632668 51.0391
0.0005 0.000974793 0.000632668 44.78
0.0005 0.000977616 0.000632668 38.0087
0.0005 0.000980183 0.000632668 30.9653
0.0005 0.000982517 0.000632668 24.0418
0.0005 0.000984638 0.000632668 17.7044
0.0005 0.000986567 0.000632668 12.3519
0.0005 0.00098832 0.000632668 8.18311
0.0005 0.000989914 0.000632668 5.16562
0.0005 0.000991363 0.000632668 3.11263
0.0005 0.00099268 0.000632668 1.7869
0.0005 0.000993878 0.000632668 0.970529
0.0005 0.000994966 0.000632668 0.492046
0.0005 0.000995956 0.000632668 0.227601
0.0005 0.000996856 0.000632668 0.0924226
0.0005 0.000997673 0.000632668 0.0307533
0.0005 0.000998417 0.000632668 0.00731416
0.0005 0.000999093 0.000632668 0.000911336
0.0005 0.000999707 0.000632668 2.73345e-05
0.0005 4.57206e-05 0.000706369 30.6348
0.0005 0.000133005 0.000706369 31.8767
0.0005 0.000212355 0.000706369 34.0289
0.0005 0.000284491 0.000706369 36.8192
0.0005 0.000350069 0.000706369 40.0242
0.0005 0.000409686 0.000706369 43.4639
0.0005 0.000463883 0.000706369 46.9974
0.0005 0.000513153 0.000706369 50.5183
0.0005 0.000557944 0.000706369 53.9495
0.0005 0.000598663 0.000706369 57.2372
0.0005 0.00063568 0.000706369 60.3459
0.0005 0.000669332 0.000706369 63.2536
0.0005 0.000699925 0.000706369 65.9484
0.0005 0.000727736 0.000706369 68.4244
0.0005 0.00075302 0.000706369 70.6714
0.0005 0.000776004 0.000706369 72.6799
0.0005 0.0007969 0.000706369 74.4472
0.0005 0.000815895 0.000706369 75.9755
0.0005 0.000833164 0.000706369 77.2695
0.0005 0.000848863 0.000706369 78.3332
0.0005 0.000863135 0.000706369 79.1683
0.0005 0.000876109 0.000706369 79.7733
0.0005 0.000887904 0.000706369 80.1428
0.0005 0.000898627 0.000706369 80.2666
0.0005 0.000908374 0.000706369 80.1296
0.0005 0.000917236 0.000706369 79.7104
0.0005 0.000925292 0.000706369 78.9815
0.0005 0.000932616 0.000706369 77.9074
0.0005 0.000939274 0.000706369 76.4453
0.0005 0.000945326 0.000706369 74.5439
0.0005 0.000950829 0.000706369 72.1455
0.0005 0.000955831 0.000706369 69.1877
0.0005 0.000960378 0.000706369 65.6093
0.0005 0.000964512 0.000706369 61.3596
0.0005 0.00096827 0.000706369 56.4118
0.0005 0.000971687 0.000706369 50.781
0.0005 0.000974793 0.000706369 44.538
0.0005 0.000977616 0.000706369 37.7869
0.0005 0.000980183 0.000706369 30.7691
0.0005 0.000982517 0.000706369 23.8767
0.0005 0.000984638 0.000706369 17.5737
0.0005 0.000986567 0.000706369 12.2554
0.0005 0.00098832 0.000706369 8.1165
0.0005 0.000989914 0.000706369 5.12246
0.0005 0.000991363 0.000706369 3.08623
0.0005 0.00099268 0.000706369 1.77162
0.0005 0.000993878 0.000706369 0.962196
0.0005 0.000994966 0.000706369 0.487813
0.0005 0.000995956 0.000706369 0.225642
0.0005 0.000996856 0.000706369 0.0916268
0.0005 0.000997673 0.000706369 0.0304884
0.0005 0.000998417 0.000706369 0.00725118
0.0005 0.000999093 0.000706369 0.000903488
0.0005 0.000999707 0.000706369 2.70991e-05
0.0005 4.57206e-05 0.000777794 30.8031
0.0005 0.000133005 0.000777794 32.0196
0.0005 0.000212355 0.000777794 34.1299
0.0005 0.000284491 0.000777794 36.8694
0.0005 0.000350069 0.000777794 40.0211
0.0005 0.000409686 0.000777794 43.409
0.0005 0.000463883 0.000777794 46.895
0.0005 0.000513153 0.000777794 50.3738
0.0005 0.000557944 0.000777794 53.7686
0.0005 0.000598663 0.000777794 57.0253
0.0005 0.00063568 0.000777794 60.1079
0.0005 0.000669332 0.000777794 62.9936
0.0005 0.000699925 0.000777794 65.6697
0.0005 0.000727736 0.000777794 68.1297
0.0005 0.00075302 0.000777794 70.365
0.0005 0.000776004 0.000777794 72.3655
0.0005 0.0007969 0.000777794 74.1275
0.0005 0.000815895 0.000777794 75.6524
0.0005 0.000833164 0.000777794 76.9441
0.0005 0.000848863 0.000777794 78.0063
0.0005 0.000863135 0.000777794 78.8405
0.0005 0.000876109 0.000777794 79.445
0.0005 0.000887904 0.000777794 79.8143
0.0005 0.000898627 0.000777794 79.9382
0.0005 0.000908374 0.000777794 79.8015
0.0005 0.000917236 0.000777794 79.3831
0.0005 0.000925292 0.000777794 78.655
0.0005 0.000932616 0.000777794 77.5823
0.0005 0.000939274 0.000777794 76.1218
0.0005 0.000945326 0.000777794 74.2226
0.0005 0.000950829 0.000777794 71.827
0.0005 0.000955831 0.000777794 68.873
0.0005 0.000960378 0.000777794 65.2999
0.0005 0.000964512 0.000777794 61.0572
0.0005 0.00096827 0.000777794 56.1192
0.0005 0.000971687 0.000777794 50.5017
0.0005 0.000974793 0.000777794 44.2762
0.0005 0.000977616 0.000777794 37.5471
0.0005 0.000980183 0.000777794 30.5571
0.0005 0.000982517 0.000777794 23.6984
0.0005 0.000984638 0.000777794 17.4327
0.0005 0.000986567 0.000777794 12.1513
0.0005 0.00098832 0.000777794 8.04469
0.0005 0.000989914 0.000777794 5.07596
0.0005 0.000991363 0.000777794 3.05779
0.0005 0.00099268 0.000777794 1.75516
0.0005 0.000993878 0.000777794 0.953222
0.0005 0.000994966 0.000777794 0.483255
0.0005 0.000995956 0.000777794 0.223532
0.0005 0.000996856 0.000777794 0.0907697
0.0005 0.000997673 0.000777794 0.0302032
0.0005 0.000998417 0.000777794 0.00718335
0.0005 0.000999093 0.000777794 0.000895037
0.0005 0.000999707 0.000777794 2.68456e-05
0.0005 4.57206e-05 0.000847012 30.9979
0.0005 0.000133005 0.000847012 32.1871
0.0005 0.000212355 0.000847012 34.252
0.0005 0.000284491 0.000847012 36.9365
0.0005 0.000350069 0.000847012 40.03
0.0005 0.000409686 0.000847012 43.3613
0.0005 0.000463883 0.000847012 46.7951
0.0005 0.000513153 0.000847012 50.2275
0.0005 0.000557944 0.000847012 53.5821
0.0005 0.000598663 0.000847012 56.8046
0.0005 0.00063568 0.000847012 59.8583
0.0005 0.000669332 0.000847012 62.7196
0.0005 0.000699925 0.000847012 65.375
0.0005 0.000727736 0.000847012 67.8172
0.0005 0.00075302 0.000847012 70.0392
0.0005 0.000776004 0.000847012 72.0306
0.0005 0.0007969 0.000847012 73.7865
0.0005 0.000815895 0.000847012 75.3074
0.0005 0.000833164 0.000847012 76.5965
0.0005 0.000848863 0.000847012 77.657
0.0005 0.000863135 0.000847012 78.49
0.0005 0.000876109 0.000847012 79.0939
0.0005 0.000887904 0.000847012 79.463
0.0005 0.000898627 0.000847012 79.587
0.0005 0.000908374 0.000847012 79.4507
0.0005 0.000917236 0.000847012 79.0329
0.0005 0.000925292 0.000847012 78.3059
0.0005 0.000932616 0.000847012 77.2344
0.0005 0.000939274 0.000847012 75.7757
0.0005 0.000945326 0.000847012 73.8789
0.0005 0.000950829 0.000847012 71.4863
0.0005 0.000955831 0.000847012 68.5365
0.0005 0.000960378 0.000847012 64.9689
0.0005 0.000964512 0.000847012 60.7339
0.0005 0.00096827 0.000847012 55.8064
0.0005 0.000971687 0.000847012 50.2031
0.0005 0.000974793 0.000847012 43.9965
0.0005 0.000977616 0.000847012 37.2909
0.0005 0.000980183 0.000847012 30.3308
0.0005 0.000982517 0.000847012 23.5081
0.0005 0.000984638 0.000847012 17.2824
0.0005 0.000986567 0.000847012 12.0404
0.0005 0.00098832 0.000847012 7.96825
0.0005 0.000989914 0.000847012 5.02647
0.0005 0.000991363 0.000847012 3.02753
0.0005 0.00099268 0.000847012 1.73765
0.0005 0.000993878 0.000847012 0.943675
0.0005 0.000994966 0.000847012 0.478406
0.0005 0.000995956 0.000847012 0.221287
0.0005 0.000996856 0.000847012 0.089858
0.0005 0.000997673 0.000847012 0.0298999
0.0005 0.000998417 0.000847012 0.00711119
0.0005 0.000999093 0.000847012 0.000886047
0.0005 0.000999707 0.000847012 2.6576e-05
0.0005 4.57206e-05 0.000914093 31.2203
0.0005 0.000133005 0.000914093 32.3804
0.0005 0.000212355 0.000914093 34.3968
0.0005 0.000284491 0.000914093 37.0223
0.0005 0.000350069 0.000914093 40.0531
0.0005 0.000409686 0.000914093 43.3232
0.0005 0.000463883 0.000914093 46.7002
0.0005 0.000513153 0.000914093 50.082
0.0005 0.000557944 0.000914093 53.3927
0.0005 0.000598663 0.000914093 56.5776
0.0005 0.00063568 0.000914093 59.5996
0.0005 0.000669332 0.000914093 62.4341
0.0005 0.000699925 0.000914093 65.0667
0.0005 0.000727736 0.000914093 67.4893
0.0005 0.00075302 0.000914093 69.6965
0.0005 0.000776004 0.000914093 71.6775
0.0005 0.0007969 0.000914093 73.4264
0.0005 0.000815895 0.000914093 74.9427
0.0005 0.000833164 0.000914093 76.2288
0.0005 0.000848863 0.000914093 77.2872
0.0005 0.000863135 0.000914093 78.119
0.0005 0.000876109 0.000914093 78.7221
0.0005 0.000887904 0.000914093 79.0908
0.0005 0.000898627 0.000914093 79.2149
0.0005 0.000908374 0.000914093 79.079
0.0005 0.000917236 0.000914093 78.6619
0.0005 0.000925292 0.000914093 77.9359
0.0005 0.000932616 0.000914093 76.8659
0.0005 0.000939274 0.000914093 75.409
0.0005 0.000945326 0.000914093 73.5146
0.0005 0.000950829 0.000914093 71.1253
0.0005 0.000955831 0.000914093 68.1798
0.0005 0.000960378 0.000914093 64.6182
0.0005 0.000964512 0.000914093 60.3913
0.0005 0.00096827 0.000914093 55.475
0.0005 0.000971687 0.000914093 49.8869
0.0005 0.000974793 0.000914093 43.7003
0.0005 0.000977616 0.000914093 37.0198
0.0005 0.000980183 0.000914093 30.0915
0.0005 0.000982517 0.000914093 23.3071
0.0005 0.000984638 0.000914093 17.1237
0.0005 0.000986567 0.000914093 11.9234
0.0005 0.00098832 0.000914093 7.88765
0.0005 0.000989914 0.000914093 4.97432
0.0005 0.000991363 0.000914093 2.99565
0.0005 0.00099268 0.000914093 1.71921
0.0005 0.000993878 0.000914093 0.93362
0.0005 0.000994966 0.000914093 0.4733
0.0005 0.000995956 0.000914093 0.218923
0.0005 0.000996856 0.000914093 0.0888979
0.0005 0.000997673 0.000914093 0.0295803
0.0005 0.000998417 0.000914093 0.0070352
0.0005 0.000999093 0.000914093 0.000876579
0.0005 0.000999707 0.000914093 2.6292e-05
0.0005 4.57206e-05 0.000979101 31.471
0.0005 0.000133005 0.000979101 32.6004
0.0005 0.000212355 0.000979101 34.5657
0.0005 0.000284491 0.000979101 37.1285
0.0005 0.000350069 0.000979101 40.0925
0.0005 0.000409686 0.000979101 43.2969
0.0005 0.000463883 0.000979101 46.6128
0.0005 0.000513153 0.000979101 49.9398
0.0005 0.000557944 0.000979101 53.2027
0.0005 0.000598663 0.000979101 56.3468
0.0005 0.00063568 0.000979101 59.3341
0.0005 0.000669332 0.000979101 62.1394
0.0005 0.000699925 0.000979101 64.7473
0.0005 0.000727736 0.000979101 67.1487
0.0005 0.00075302 0.000979101 69.3392
0.0005 0.000776004 0.000979101 71.3083
0.0005 0.0007969 0.000979101 73.0491
0.0005 0.000815895 0.000979101 74.5601
0.0005 0.000833164 0.000979101 75.8427
0.0005 0.000848863 0.000979101 76.8988
0.0005 0.000863135 0.000979101 77.7292
0.0005 0.000876109 0.000979101 78.3314
0.0005 0.000887904 0.000979101 78.6997
0.0005 0.000898627 0.000979101 78.8238
0.0005 0.000908374 0.000979101 78.6883
0.0005 0.000917236 0.000979101 78.2719
0.0005 0.000925292 0.000979101 77.5469
0.0005 0.000932616 0.000979101 76.4784
0.0005 0.000939274 0.000979101 75.0235
0.0005 0.000945326 0.000979101 73.1317
0.0005 0.000950829 0.000979101 70.7458
0.0005 0.000955831 0.000979101 67.8049
0.0005 0.000960378 0.000979101 64.2495
0.0005 0.000964512 0.000979101 60.0313
0.0005 0.00096827 0.000979101 55.1268
0.0005 0.000971687 0.000979101 49.5547
0.0005 0.000974793 0.000979101 43.3893
0.0005 0.000977616 0.000979101 36.7352
0.0005 0.000980183 0.000979101 29.8404
0.0005 0.000982517 0.000979101 23.0965
0.0005 0.000984638 0.000979101 16.9575
0.0005 0.000986567 0.000979101 11.801
0.0005 0.00098832 0.000979101 7.80338
0.0005 0.000989914 0.000979101 4.91981
0.0005 0.000991363 0.000979101 2.96234
0.0005 0.00099268 0.000979101 1.69994
0.0005 0.000993878 0.000979101 0.923117
0.0005 0.000994966 0.000979101 0.467965
0.0005 0.000995956 0.000979101 0.216454
0.0005 0.000996856 0.000979101 0.0878949
0.0005 0.000997673 0.000979101 0.0292466
0.0005 0.000998417 0.000979101 0.00695582
0.0005 0.000999093 0.000979101 0.000866688
0.0005 0.000999707 0.000979101 2.59953e-05
0.0005 4.57206e-05 0.0010421 31.7503
0.0005 0.000133005 0.0010421 32.8479
0.0005 0.000212355 0.0010421 34.7597
0.0005 0.000284491 0.0010421 37.2567
0.0005 0.000350069 0.0010421 40.1502
0.0005 0.000409686 0.0010421 43.2848
0.0005 0.000463883 0.0010421 46.5353
0.0005 0.000513153 0.0010421 49.8035
0.0005 0.000557944 0.0010421 53.0147
0.0005 0.000598663 0.0010421 56.1145
0.0005 0.00063568 0.0010421 59.0641
0.0005 0.000669332 0.0010421 61.8376
0.0005 0.000699925 0.0010421 64.4188
0.0005 0.000727736 0.0010421 66.7978
0.0005 0.00075302 0.0010421 68.9695
0.0005 0.000776004 0.0010421 70.9249
0.0005 0.0007969 0.0010421 72.6565
0.0005 0.000815895 0.0010421 74.1615
0.0005 0.000833164 0.0010421 75.4401
0.0005 0.000848863 0.0010421 76.4937
0.0005 0.000863135 0.0010421 77.3223
0.0005 0.000876109 0.0010421 77.9236
0.0005 0.000887904 0.0010421 78.2914
0.0005 0.000898627 0.0010421 78.4154
0.0005 0.000908374 0.0010421 78.2802
0.0005 0.000917236 0.0010421 77.8646
0.0005 0.000925292 0.0010421 77.1407
0.0005 0.000932616 0.0010421 76.0737
0.0005 0.000939274 0.0010421 74.6208
0.0005 0.000945326 0.0010421 72.7317
0.0005 0.000950829 0.0010421 70.3494
0.0005 0.000955831 0.0010421 67.4133
0.0005 0.000960378 0.0010421 63.8645
0.0005 0.000964512 0.0010421 59.6553
0.0005 0.00096827 0.0010421 54.7632
0.0005 0.000971687 0.0010421 49.208
0.0005 0.000974793 0.0010421 43.0648
0.0005 0.000977616 0.0010421 36.4384
0.0005 0.000980183 0.0010421 29.5788
0.0005 0.000982517 0.0010421 22.8771
0.0005 0.000984638 0.0010421 16.7847
0.0005 0.000986567 0.0010421 11.6738
0.0005 0.00098832 0.0010421 7.71586
0.0005 0.000989914 0.0010421 4.86323
0.0005 0.000991363 0.0010421 2.92778
0.0005 0.00099268 0.0010421 1.67995
0.0005 0.000993878 0.0010421 0.91222
0.0005 0.000994966 0.0010421 0.462431
0.0005 0.000995956 0.0010421 0.213892
0.0005 0.000996856 0.0010421 0.0868544
0.0005 0.000997673 0.0010421 0.0289003
0.0005 0.000998417 0.0010421 0.00687347
0.0005 0.000999093 0.0010421 0.000856428
0.0005 0.000999707 0.0010421 2.56876e-05
0.0005 4.57206e-05 0.00110316 32.0582
0.0005 0.000133005 0.00110316 33.1228
0.0005 0.000212355 0.00110316 34.9794
0.0005 0.000284491 0.00110316 37.4081
0.0005 0.000350069 0.00110316 40.2277
0.0005 0.000409686 0.00110316 43.2888
0.0005 0.000463883 0.00110316 46.47
0.0005 0.000513153 0.00110316 49.6754
0.0005 0.000557944 0.00110316 52.8314
0.0005 0.000598663 0.00110316 55.8834
0.0005 0.00063568 0.00110316 58.7924
0.0005 0.000669332 0.00110316 61.5318
0.0005 0.000699925 0.00110316 64.084