# U  FACE_DATA 8748
#  x  y  z  U_x  U_y  U_z  
0.0005 4.57206e-05 4.66216e-05 109.393 -7.44787e-15 -7.5316e-15
0.0005 0.000133005 4.66216e-05 109.071 -1.15006e-14 -3.421e-15
0.0005 0.000212355 4.66216e-05 108.495 -6.7254e-15 -2.06216e-15
0.0005 0.000284491 4.66216e-05 107.718 -4.48203e-15 -1.23689e-15
0.0005 0.000350069 4.66216e-05 106.777 -3.00019e-15 -7.74692e-16
0.0005 0.000409686 4.66216e-05 105.705 -2.14795e-15 -5.48839e-16
0.0005 0.000463883 4.66216e-05 104.525 -1.76901e-15 -4.34021e-16
0.0005 0.000513153 4.66216e-05 103.258 -1.62062e-15 -3.22496e-16
0.0005 0.000557944 4.66216e-05 101.918 -1.56553e-15 -2.816e-16
0.0005 0.000598663 4.66216e-05 100.52 -1.50408e-15 -3.13256e-16
0.0005 0.00063568 4.66216e-05 99.0717 -1.49766e-15 -3.57458e-16
0.0005 0.000669332 4.66216e-05 97.5803 -1.47719e-15 -3.40938e-16
0.0005 0.000699925 4.66216e-05 96.0466 -1.37897e-15 -3.25551e-16
0.0005 0.000727736 4.66216e-05 94.4718 -1.29627e-15 -3.21926e-16
0.0005 0.00075302 4.66216e-05 92.8617 -1.22122e-15 -3.16884e-16
0.0005 0.000776004 4.66216e-05 91.2219 -1.12113e-15 -3.1901e-16
0.0005 0.0007969 4.66216e-05 89.5557 -1.01279e-15 -3.27506e-16
0.0005 0.000815895 4.66216e-05 87.8645 -8.88274e-16 -3.401e-16
0.0005 0.000833164 4.66216e-05 86.1475 -7.92109e-16 -3.54799e-16
0.0005 0.000848863 4.66216e-05 84.403 -7.61892e-16 -3.71603e-16
0.0005 0.000863135 4.66216e-05 82.628 -8.08421e-16 -3.79521e-16
0.0005 0.000876109 4.66216e-05 80.8187 -8.52299e-16 -3.83245e-16
0.0005 0.000887904 4.66216e-05 78.9705 -8.04128e-16 -3.83842e-16
0.0005 0.000898627 4.66216e-05 77.0782 -7.12743e-16 -3.86511e-16
0.0005 0.000908374 4.66216e-05 75.1357 -6.30001e-16 -3.79433e-16
0.0005 0.000917236 4.66216e-05 73.1361 -5.59501e-16 -3.73057e-16
0.0005 0.000925292 4.66216e-05 71.0716 -5.00928e-16 -3.6881e-16
0.0005 0.000932616 4.66216e-05 68.9336 -4.49978e-16 -3.64798e-16
0.0005 0.000939274 4.66216e-05 66.7127 -3.98457e-16 -3.60335e-16
0.0005 0.000945326 4.66216e-05 64.3988 -3.48842e-16 -3.55713e-16
0.0005 0.000950829 4.66216e-05 61.9815 -3.05352e-16 -3.50813e-16
0.0005 0.000955831 4.66216e-05 59.4503 -2.75704e-16 -3.45158e-16
0.0005 0.000960378 4.66216e-05 56.7955 -2.61604e-16 -3.38303e-16
0.0005 0.000964512 4.66216e-05 54.0093 -2.58573e-16 -3.3005e-16
0.0005 0.00096827 4.66216e-05 51.0871 -2.58088e-16 -3.20177e-16
0.0005 0.000971687 4.66216e-05 48.0293 -2.52619e-16 -3.08163e-16
0.0005 0.000974793 4.66216e-05 44.8413 -2.40397e-16 -2.94276e-16
0.0005 0.000977616 4.66216e-05 41.5234 -2.27004e-16 -2.78713e-16
0.0005 0.000980183 4.66216e-05 38.0806 -2.15113e-16 -2.61387e-16
0.0005 0.000982517 4.66216e-05 34.5477 -2.02423e-16 -2.42368e-16
0.0005 0.000984638 4.66216e-05 30.9879 -1.88999e-16 -2.22034e-16
0.0005 0.000986567 4.66216e-05 27.4816 -1.76443e-16 -2.00923e-16
0.0005 0.00098832 4.66216e-05 24.1084 -1.65189e-16 -1.79645e-16
0.0005 0.000989914 4.66216e-05 20.9288 -1.53702e-16 -1.58654e-16
0.0005 0.000991363 4.66216e-05 17.9768 -1.41522e-16 -1.38331e-16
0.0005 0.00099268 4.66216e-05 15.2622 -1.28771e-16 -1.18881e-16
0.0005 0.000993878 4.66216e-05 12.7795 -1.15181e-16 -1.00437e-16
0.0005 0.000994966 4.66216e-05 10.5153 -1.00618e-16 -8.30543e-17
0.0005 0.000995956 4.66216e-05 8.453 -8.46862e-17 -6.67879e-17
0.0005 0.000996856 4.66216e-05 6.5758 -6.949e-17 -5.16831e-17
0.0005 0.000997673 4.66216e-05 4.86757 -5.36928e-17 -3.77868e-17
0.0005 0.000998417 4.66216e-05 3.31332 -3.70103e-17 -2.52392e-17
0.0005 0.000999093 4.66216e-05 1.8993 -2.07168e-17 -1.42131e-17
0.0005 0.000999707 4.66216e-05 0.612935 -7.11458e-18 -4.58082e-18
0.0005 4.57206e-05 0.000138425 109.355 -2.93548e-15 -1.20202e-14
0.0005 0.000133005 0.000138425 109.032 -4.53382e-15 -5.81922e-15
0.0005 0.000212355 0.000138425 108.457 -2.65752e-15 -3.39792e-15
0.0005 0.000284491 0.000138425 107.681 -1.24698e-15 -2.18091e-15
0.0005 0.000350069 0.000138425 106.742 -5.78075e-16 -1.61882e-15
0.0005 0.000409686 0.000138425 105.67 -4.17301e-16 -1.4348e-15
0.0005 0.000463883 0.000138425 104.491 -4.78768e-16 -1.36741e-15
0.0005 0.000513153 0.000138425 103.225 -7.3751e-16 -1.31046e-15
0.0005 0.000557944 0.000138425 101.886 -1.20238e-15 -1.21858e-15
0.0005 0.000598663 0.000138425 100.489 -1.49171e-15 -1.10769e-15
0.0005 0.00063568 0.000138425 99.0412 -1.47379e-15 -9.97649e-16
0.0005 0.000669332 0.000138425 97.5507 -1.37728e-15 -9.06179e-16
0.0005 0.000699925 0.000138425 96.0178 -1.36063e-15 -8.2142e-16
0.0005 0.000727736 0.000138425 94.4438 -1.33256e-15 -7.59741e-16
0.0005 0.00075302 0.000138425 92.8344 -1.28815e-15 -7.037e-16
0.0005 0.000776004 0.000138425 91.1952 -1.2339e-15 -6.56013e-16
0.0005 0.0007969 0.000138425 89.5295 -1.15415e-15 -6.18713e-16
0.0005 0.000815895 0.000138425 87.8387 -1.03118e-15 -5.90688e-16
0.0005 0.000833164 0.000138425 86.1222 -9.29131e-16 -5.72917e-16
0.0005 0.000848863 0.000138425 84.3781 -8.31491e-16 -5.54521e-16
0.0005 0.000863135 0.000138425 82.6035 -7.7587e-16 -5.31059e-16
0.0005 0.000876109 0.000138425 80.7945 -7.54207e-16 -4.94395e-16
0.0005 0.000887904 0.000138425 78.9467 -6.86158e-16 -4.52271e-16
0.0005 0.000898627 0.000138425 77.0547 -5.11462e-16 -4.11546e-16
0.0005 0.000908374 0.000138425 75.1126 -3.49484e-16 -3.7642e-16
0.0005 0.000917236 0.000138425 73.1132 -3.14613e-16 -3.44317e-16
0.0005 0.000925292 0.000138425 71.0491 -2.89762e-16 -3.16289e-16
0.0005 0.000932616 0.000138425 68.9114 -2.47132e-16 -2.88835e-16
0.0005 0.000939274 0.000138425 66.6908 -2.02717e-16 -2.6311e-16
0.0005 0.000945326 0.000138425 64.3773 -1.65721e-16 -2.39887e-16
0.0005 0.000950829 0.000138425 61.9603 -1.27551e-16 -2.18774e-16
0.0005 0.000955831 0.000138425 59.4294 -9.25059e-17 -1.98809e-16
0.0005 0.000960378 0.000138425 56.775 -6.99032e-17 -1.7932e-16
0.0005 0.000964512 0.000138425 53.9893 -5.40389e-17 -1.60201e-16
0.0005 0.00096827 0.000138425 51.0676 -2.98099e-17 -1.41602e-16
0.0005 0.000971687 0.000138425 48.0103 -2.53148e-18 -1.23969e-16
0.0005 0.000974793 0.000138425 44.823 1.47483e-17 -1.0743e-16
0.0005 0.000977616 0.000138425 41.5058 2.63542e-17 -9.22287e-17
0.0005 0.000980183 0.000138425 38.0638 3.99588e-17 -7.82974e-17
0.0005 0.000982517 0.000138425 34.5318 5.59123e-17 -6.56152e-17
0.0005 0.000984638 0.000138425 30.9733 6.85605e-17 -5.42713e-17
0.0005 0.000986567 0.000138425 27.4683 7.64111e-17 -4.43932e-17
0.0005 0.00098832 0.000138425 24.0965 8.22096e-17 -3.59766e-17
0.0005 0.000989914 0.000138425 20.9184 8.73672e-17 -2.89624e-17
0.0005 0.000991363 0.000138425 17.9678 9.01113e-17 -2.31992e-17
0.0005 0.00099268 0.000138425 15.2546 9.00891e-17 -1.85041e-17
0.0005 0.000993878 0.000138425 12.7731 8.68325e-17 -1.46697e-17
0.0005 0.000994966 0.000138425 10.51 8.06897e-17 -1.15208e-17
0.0005 0.000995956 0.000138425 8.44876 7.163e-17 -8.95221e-18
0.0005 0.000996856 0.000138425 6.57251 6.16705e-17 -6.91408e-18
0.0005 0.000997673 0.000138425 4.86514 4.93029e-17 -5.38083e-18
0.0005 0.000998417 0.000138425 3.31166 3.53271e-17 -4.2979e-18
0.0005 0.000999093 0.000138425 1.89835 2.07153e-17 -3.46588e-18
0.0005 0.000999707 0.000138425 0.612629 7.21116e-18 -1.86388e-18
0.0005 4.57206e-05 0.000227392 109.28 -1.26331e-15 -6.87541e-15
0.0005 0.000133005 0.000227392 108.958 -1.5812e-15 -4.14447e-15
0.0005 0.000212355 0.000227392 108.384 -7.37266e-16 -2.63764e-15
0.0005 0.000284491 0.000227392 107.61 -1.37047e-16 -2.10154e-15
0.0005 0.000350069 0.000227392 106.672 4.17035e-17 -1.91462e-15
0.0005 0.000409686 0.000227392 105.603 -5.88206e-17 -1.94843e-15
0.0005 0.000463883 0.000227392 104.425 -2.88922e-16 -1.95042e-15
0.0005 0.000513153 0.000227392 103.161 -5.19649e-16 -1.95862e-15
0.0005 0.000557944 0.000227392 101.824 -7.19696e-16 -1.82379e-15
0.0005 0.000598663 0.000227392 100.428 -8.82747e-16 -1.61778e-15
0.0005 0.00063568 0.000227392 98.9818 -1.10526e-15 -1.46868e-15
0.0005 0.000669332 0.000227392 97.4927 -1.24832e-15 -1.34243e-15
0.0005 0.000699925 0.000227392 95.9615 -1.2804e-15 -1.22775e-15
0.0005 0.000727736 0.000227392 94.3891 -1.27652e-15 -1.11774e-15
0.0005 0.00075302 0.000227392 92.781 -1.2152e-15 -1.02433e-15
0.0005 0.000776004 0.000227392 91.1429 -1.13568e-15 -9.25187e-16
0.0005 0.0007969 0.000227392 89.4783 -1.04669e-15 -8.49081e-16
0.0005 0.000815895 0.000227392 87.7884 -9.45771e-16 -7.99448e-16
0.0005 0.000833164 0.000227392 86.0728 -8.28251e-16 -7.77921e-16
0.0005 0.000848863 0.000227392 84.3294 -7.00687e-16 -7.64422e-16
0.0005 0.000863135 0.000227392 82.5555 -5.69822e-16 -7.5958e-16
0.0005 0.000876109 0.000227392 80.7473 -4.44341e-16 -7.47557e-16
0.0005 0.000887904 0.000227392 78.9002 -3.34384e-16 -7.30231e-16
0.0005 0.000898627 0.000227392 77.0089 -2.76262e-16 -7.04712e-16
0.0005 0.000908374 0.000227392 75.0673 -2.50786e-16 -6.86362e-16
0.0005 0.000917236 0.000227392 73.0687 -2.40313e-16 -6.67902e-16
0.0005 0.000925292 0.000227392 71.0051 -2.26936e-16 -6.45621e-16
0.0005 0.000932616 0.000227392 68.8681 -2.09635e-16 -6.20439e-16
0.0005 0.000939274 0.000227392 66.6481 -2.22413e-16 -5.94362e-16
0.0005 0.000945326 0.000227392 64.3353 -2.41636e-16 -5.68078e-16
0.0005 0.000950829 0.000227392 61.919 -2.45953e-16 -5.41697e-16
0.0005 0.000955831 0.000227392 59.3888 -2.34022e-16 -5.14748e-16
0.0005 0.000960378 0.000227392 56.7352 -2.2203e-16 -4.86488e-16
0.0005 0.000964512 0.000227392 53.9503 -2.18158e-16 -4.56328e-16
0.0005 0.00096827 0.000227392 51.0296 -2.23075e-16 -4.24483e-16
0.0005 0.000971687 0.000227392 47.9734 -2.28182e-16 -3.91709e-16
0.0005 0.000974793 0.000227392 44.7873 -2.29196e-16 -3.58414e-16
0.0005 0.000977616 0.000227392 41.4715 -2.33115e-16 -3.24856e-16
0.0005 0.000980183 0.000227392 38.0311 -2.39939e-16 -2.9122e-16
0.0005 0.000982517 0.000227392 34.5011 -2.47821e-16 -2.58046e-16
0.0005 0.000984638 0.000227392 30.9448 -2.56809e-16 -2.25742e-16
0.0005 0.000986567 0.000227392 27.4424 -2.61871e-16 -1.9495e-16
0.0005 0.00098832 0.000227392 24.0734 -2.60886e-16 -1.6632e-16
0.0005 0.000989914 0.000227392 20.8982 -2.53536e-16 -1.40357e-16
0.0005 0.000991363 0.000227392 17.9503 -2.42932e-16 -1.17224e-16
0.0005 0.00099268 0.000227392 15.2397 -2.29357e-16 -9.68494e-17
0.0005 0.000993878 0.000227392 12.7607 -2.11254e-16 -7.90055e-17
0.0005 0.000994966 0.000227392 10.4998 -1.8916e-16 -6.34126e-17
0.0005 0.000995956 0.000227392 8.44052 -1.63359e-16 -4.98143e-17
0.0005 0.000996856 0.000227392 6.5661 -1.36326e-16 -3.80173e-17
0.0005 0.000997673 0.000227392 4.8604 -1.06905e-16 -2.78665e-17
0.0005 0.000998417 0.000227392 3.30844 -7.57849e-17 -1.92187e-17
0.0005 0.000999093 0.000227392 1.8965 -4.40403e-17 -1.18428e-17
0.0005 0.000999707 0.000227392 0.612033 -1.54279e-17 -4.56577e-18
0.0005 4.57206e-05 0.000313612 109.171 -5.80863e-16 -4.63569e-15
0.0005 0.000133005 0.000313612 108.851 -4.03067e-16 -3.00215e-15
0.0005 0.000212355 0.000313612 108.279 1.52367e-17 -2.18813e-15
0.0005 0.000284491 0.000313612 107.506 2.53157e-16 -2.08547e-15
0.0005 0.000350069 0.000313612 106.571 2.25732e-16 -2.16385e-15
0.0005 0.000409686 0.000313612 105.505 4.80385e-17 -2.25976e-15
0.0005 0.000463883 0.000313612 104.33 -1.30396e-16 -2.30428e-15
0.0005 0.000513153 0.000313612 103.068 -2.77772e-16 -2.2534e-15
0.0005 0.000557944 0.000313612 101.734 -4.5425e-16 -2.16214e-15
0.0005 0.000598663 0.000313612 100.34 -8.16021e-16 -2.11355e-15
0.0005 0.00063568 0.000313612 98.8957 -1.0245e-15 -2.07507e-15
0.0005 0.000669332 0.000313612 97.4089 -1.03763e-15 -1.99364e-15
0.0005 0.000699925 0.000313612 95.8801 -1.05509e-15 -1.90408e-15
0.0005 0.000727736 0.000313612 94.3098 -1.05886e-15 -1.81603e-15
0.0005 0.00075302 0.000313612 92.7037 -9.91482e-16 -1.74622e-15
0.0005 0.000776004 0.000313612 91.0673 -9.49831e-16 -1.69209e-15
0.0005 0.0007969 0.000313612 89.4042 -1.01565e-15 -1.63969e-15
0.0005 0.000815895 0.000313612 87.7156 -1.09264e-15 -1.58077e-15
0.0005 0.000833164 0.000313612 86.0012 -1.12111e-15 -1.52915e-15
0.0005 0.000848863 0.000313612 84.259 -1.07804e-15 -1.48791e-15
0.0005 0.000863135 0.000313612 82.4862 -9.94166e-16 -1.4578e-15
0.0005 0.000876109 0.000313612 80.679 -8.7254e-16 -1.43794e-15
0.0005 0.000887904 0.000313612 78.8328 -7.01916e-16 -1.42863e-15
0.0005 0.000898627 0.000313612 76.9425 -5.43995e-16 -1.42057e-15
0.0005 0.000908374 0.000313612 75.0019 -4.59565e-16 -1.40911e-15
0.0005 0.000917236 0.000313612 73.0042 -4.01989e-16 -1.39306e-15
0.0005 0.000925292 0.000313612 70.9416 -3.27948e-16 -1.3751e-15
0.0005 0.000932616 0.000313612 68.8055 -2.67527e-16 -1.35889e-15
0.0005 0.000939274 0.000313612 66.5865 -2.38021e-16 -1.34033e-15
0.0005 0.000945326 0.000313612 64.2746 -2.23473e-16 -1.31562e-15
0.0005 0.000950829 0.000313612 61.8592 -2.01905e-16 -1.28521e-15
0.0005 0.000955831 0.000313612 59.3302 -1.58376e-16 -1.25084e-15
0.0005 0.000960378 0.000313612 56.6777 -9.74504e-17 -1.21266e-15
0.0005 0.000964512 0.000313612 53.894 -3.23506e-17 -1.16951e-15
0.0005 0.00096827 0.000313612 50.9746 2.84507e-17 -1.12092e-15
0.0005 0.000971687 0.000313612 47.92 8.04106e-17 -1.06683e-15
0.0005 0.000974793 0.000313612 44.7357 1.19441e-16 -1.00792e-15
0.0005 0.000977616 0.000313612 41.422 1.48598e-16 -9.44112e-16
0.0005 0.000980183 0.000313612 37.9839 1.65534e-16 -8.7529e-16
0.0005 0.000982517 0.000313612 34.4566 1.7703e-16 -8.01978e-16
0.0005 0.000984638 0.000313612 30.9036 1.89668e-16 -7.25583e-16
0.0005 0.000986567 0.000313612 27.405 1.98405e-16 -6.4806e-16
0.0005 0.00098832 0.000313612 24.04 2.0364e-16 -5.7168e-16
0.0005 0.000989914 0.000313612 20.8689 2.06265e-16 -4.98438e-16
0.0005 0.000991363 0.000313612 17.9251 2.04075e-16 -4.29594e-16
0.0005 0.00099268 0.000313612 15.2182 1.95745e-16 -3.65742e-16
0.0005 0.000993878 0.000313612 12.7427 1.82522e-16 -3.06994e-16
0.0005 0.000994966 0.000313612 10.485 1.65804e-16 -2.53209e-16
0.0005 0.000995956 0.000313612 8.42863 1.44559e-16 -2.04113e-16
0.0005 0.000996856 0.000313612 6.55685 1.21104e-16 -1.59402e-16
0.0005 0.000997673 0.000313612 4.85355 9.52967e-17 -1.18749e-16
0.0005 0.000998417 0.000313612 3.30378 6.81418e-17 -8.18095e-17
0.0005 0.000999093 0.000313612 1.89383 4.01524e-17 -4.80923e-17
0.0005 0.000999707 0.000313612 0.611172 1.41599e-17 -1.63529e-17
0.0005 4.57206e-05 0.000397168 109.032 -1.9737e-16 -3.26892e-15
0.0005 0.000133005 0.000397168 108.712 8.17892e-17 -2.12051e-15
0.0005 0.000212355 0.000397168 108.143 1.17448e-16 -1.52411e-15
0.0005 0.000284491 0.000397168 107.373 6.89614e-17 -1.55437e-15
0.0005 0.000350069 0.000397168 106.442 6.94669e-17 -1.83207e-15
0.0005 0.000409686 0.000397168 105.378 -1.0403e-17 -2.05578e-15
0.0005 0.000463883 0.000397168 104.207 -5.17911e-17 -2.25669e-15
0.0005 0.000513153 0.000397168 102.949 -9.92682e-17 -2.29978e-15
0.0005 0.000557944 0.000397168 101.617 -3.60642e-16 -2.27446e-15
0.0005 0.000598663 0.000397168 100.226 -6.56036e-16 -2.22203e-15
0.0005 0.00063568 0.000397168 98.7852 -7.73935e-16 -2.09001e-15
0.0005 0.000669332 0.000397168 97.3011 -7.66461e-16 -1.98489e-15
0.0005 0.000699925 0.000397168 95.7753 -7.44573e-16 -1.8955e-15
0.0005 0.000727736 0.000397168 94.2078 -7.56176e-16 -1.84271e-15
0.0005 0.00075302 0.000397168 92.6043 -7.45382e-16 -1.79924e-15
0.0005 0.000776004 0.000397168 90.9701 -6.57868e-16 -1.77557e-15
0.0005 0.0007969 0.000397168 89.3089 -4.90604e-16 -1.745e-15
0.0005 0.000815895 0.000397168 87.6221 -3.57353e-16 -1.70001e-15
0.0005 0.000833164 0.000397168 85.9093 -3.08369e-16 -1.63641e-15
0.0005 0.000848863 0.000397168 84.1686 -2.9575e-16 -1.56532e-15
0.0005 0.000863135 0.000397168 82.3972 -2.9923e-16 -1.49864e-15
0.0005 0.000876109 0.000397168 80.5913 -3.22708e-16 -1.43963e-15
0.0005 0.000887904 0.000397168 78.7464 -3.0329e-16 -1.39052e-15
0.0005 0.000898627 0.000397168 76.8574 -2.30716e-16 -1.35331e-15
0.0005 0.000908374 0.000397168 74.918 -1.50675e-16 -1.32321e-15
0.0005 0.000917236 0.000397168 72.9215 -1.08611e-16 -1.29431e-15
0.0005 0.000925292 0.000397168 70.86 -1.30411e-16 -1.26731e-15
0.0005 0.000932616 0.000397168 68.7251 -1.41935e-16 -1.24145e-15
0.0005 0.000939274 0.000397168 66.5073 -1.0142e-16 -1.21454e-15
0.0005 0.000945326 0.000397168 64.1966 -4.5554e-17 -1.18458e-15
0.0005 0.000950829 0.000397168 61.7826 -2.14394e-17 -1.15106e-15
0.0005 0.000955831 0.000397168 59.2549 -2.4072e-17 -1.11388e-15
0.0005 0.000960378 0.000397168 56.6038 -1.69607e-17 -1.07321e-15
0.0005 0.000964512 0.000397168 53.8217 4.69567e-18 -1.02902e-15
0.0005 0.00096827 0.000397168 50.9041 2.25991e-17 -9.82003e-16
0.0005 0.000971687 0.000397168 47.8515 2.86404e-17 -9.32561e-16
0.0005 0.000974793 0.000397168 44.6696 3.14065e-17 -8.80068e-16
0.0005 0.000977616 0.000397168 41.3585 3.71527e-17 -8.23933e-16
0.0005 0.000980183 0.000397168 37.9233 4.21693e-17 -7.64154e-16
0.0005 0.000982517 0.000397168 34.3996 4.12628e-17 -7.01053e-16
0.0005 0.000984638 0.000397168 30.8508 3.48482e-17 -6.35717e-16
0.0005 0.000986567 0.000397168 27.357 2.77163e-17 -5.69657e-16
0.0005 0.00098832 0.000397168 23.9972 2.0249e-17 -5.04609e-16
0.0005 0.000989914 0.000397168 20.8314 1.40838e-17 -4.42116e-16
0.0005 0.000991363 0.000397168 17.8927 1.14383e-17 -3.83148e-16
0.0005 0.00099268 0.000397168 15.1907 9.49166e-18 -3.28154e-16
0.0005 0.000993878 0.000397168 12.7196 8.52722e-18 -2.77173e-16
0.0005 0.000994966 0.000397168 10.466 7.94398e-18 -2.30103e-16
0.0005 0.000995956 0.000397168 8.41337 7.03037e-18 -1.86752e-16
0.0005 0.000996856 0.000397168 6.545 5.64357e-18 -1.46896e-16
0.0005 0.000997673 0.000397168 4.84478 4.16668e-18 -1.10303e-16
0.0005 0.000998417 0.000397168 3.29781 2.88657e-18 -7.66341e-17
0.0005 0.000999093 0.000397168 1.89041 1.71804e-18 -4.53937e-17
0.0005 0.000999707 0.000397168 0.610069 6.17478e-19 -1.54954e-17
0.0005 4.57206e-05 0.000478143 108.863 -7.6547e-17 -2.55048e-15
0.0005 0.000133005 0.000478143 108.545 2.78722e-16 -1.75076e-15
0.0005 0.000212355 0.000478143 107.979 2.16184e-16 -1.3248e-15
0.0005 0.000284491 0.000478143 107.213 -1.40976e-16 -1.2533e-15
0.0005 0.000350069 0.000478143 106.285 -2.76278e-16 -1.46379e-15
0.0005 0.000409686 0.000478143 105.226 -3.57825e-16 -1.60981e-15
0.0005 0.000463883 0.000478143 104.059 -2.58065e-16 -1.74395e-15
0.0005 0.000513153 0.000478143 102.805 -6.53887e-17 -1.84246e-15
0.0005 0.000557944 0.000478143 101.477 -9.10353e-17 -1.92807e-15
0.0005 0.000598663 0.000478143 100.09 -2.27423e-16 -1.96103e-15
0.0005 0.00063568 0.000478143 98.652 -3.20265e-16 -1.94158e-15
0.0005 0.000669332 0.000478143 97.1712 -3.98507e-16 -1.88598e-15
0.0005 0.000699925 0.000478143 95.6487 -5.25929e-16 -1.83517e-15
0.0005 0.000727736 0.000478143 94.0848 -6.1481e-16 -1.76519e-15
0.0005 0.00075302 0.000478143 92.4844 -6.01065e-16 -1.67399e-15
0.0005 0.000776004 0.000478143 90.853 -5.47108e-16 -1.59114e-15
0.0005 0.0007969 0.000478143 89.1942 -4.71529e-16 -1.55336e-15
0.0005 0.000815895 0.000478143 87.5096 -3.53358e-16 -1.54311e-15
0.0005 0.000833164 0.000478143 85.7987 -2.29402e-16 -1.52581e-15
0.0005 0.000848863 0.000478143 84.0598 -1.61101e-16 -1.49733e-15
0.0005 0.000863135 0.000478143 82.2901 -1.43642e-16 -1.46417e-15
0.0005 0.000876109 0.000478143 80.4858 -1.37578e-16 -1.43014e-15
0.0005 0.000887904 0.000478143 78.6425 -1.29371e-16 -1.38739e-15
0.0005 0.000898627 0.000478143 76.7549 -1.23711e-16 -1.35133e-15
0.0005 0.000908374 0.000478143 74.817 -1.20212e-16 -1.32181e-15
0.0005 0.000917236 0.000478143 72.822 -1.17151e-16 -1.29622e-15
0.0005 0.000925292 0.000478143 70.762 -1.13834e-16 -1.26691e-15
0.0005 0.000932616 0.000478143 68.6285 -1.07537e-16 -1.23288e-15
0.0005 0.000939274 0.000478143 66.4122 -9.28247e-17 -1.1963e-15
0.0005 0.000945326 0.000478143 64.1029 -7.33552e-17 -1.15947e-15
0.0005 0.000950829 0.000478143 61.6904 -5.03719e-17 -1.1215e-15
0.0005 0.000955831 0.000478143 59.1643 -1.9998e-17 -1.08141e-15
0.0005 0.000960378 0.000478143 56.515 1.71302e-17 -1.03852e-15
0.0005 0.000964512 0.000478143 53.7348 3.5697e-17 -9.92955e-16
0.0005 0.00096827 0.000478143 50.8193 2.10178e-17 -9.44509e-16
0.0005 0.000971687 0.000478143 47.7692 5.24244e-18 -8.92582e-16
0.0005 0.000974793 0.000478143 44.5901 8.04975e-18 -8.36848e-16
0.0005 0.000977616 0.000478143 41.2821 1.22385e-17 -7.77861e-16
0.0005 0.000980183 0.000478143 37.8505 6.20865e-18 -7.1619e-16
0.0005 0.000982517 0.000478143 34.331 -1.40745e-18 -6.52535e-16
0.0005 0.000984638 0.000478143 30.7873 -1.77107e-18 -5.88182e-16
0.0005 0.000986567 0.000478143 27.2993 1.64802e-18 -5.24649e-16
0.0005 0.00098832 0.000478143 23.9458 3.79183e-18 -4.63293e-16
0.0005 0.000989914 0.000478143 20.7863 4.79338e-18 -4.04986e-16
0.0005 0.000991363 0.000478143 17.8538 5.31162e-18 -3.50279e-16
0.0005 0.00099268 0.000478143 15.1576 5.96019e-18 -2.99266e-16
0.0005 0.000993878 0.000478143 12.6919 7.65695e-18 -2.51875e-16
0.0005 0.000994966 0.000478143 10.4432 9.06375e-18 -2.07933e-16
0.0005 0.000995956 0.000478143 8.39505 9.66335e-18 -1.67289e-16
0.0005 0.000996856 0.000478143 6.53074 9.08963e-18 -1.29832e-16
0.0005 0.000997673 0.000478143 4.83423 7.58728e-18 -9.55276e-17
0.0005 0.000998417 0.000478143 3.29064 5.61412e-18 -6.44386e-17
0.0005 0.000999093 0.000478143 1.8863 3.39018e-18 -3.67805e-17
0.0005 0.000999707 0.000478143 0.608743 1.19247e-18 -1.20435e-17
0.0005 4.57206e-05 0.000556618 108.667 -5.09042e-17 -2.06351e-15
0.0005 0.000133005 0.000556618 108.351 2.25065e-16 -1.34121e-15
0.0005 0.000212355 0.000556618 107.788 2.04369e-16 -8.8201e-16
0.0005 0.000284491 0.000556618 107.027 -1.84274e-16 -9.76099e-16
0.0005 0.000350069 0.000556618 106.104 -2.92487e-16 -1.22603e-15
0.0005 0.000409686 0.000556618 105.05 -2.7346e-16 -1.37322e-15
0.0005 0.000463883 0.000556618 103.888 -2.45329e-16 -1.44393e-15
0.0005 0.000513153 0.000556618 102.638 -2.18463e-16 -1.56738e-15
0.0005 0.000557944 0.000556618 101.315 -3.48374e-16 -1.70628e-15
0.0005 0.000598663 0.000556618 99.9317 -4.301e-16 -1.79337e-15
0.0005 0.00063568 0.000556618 98.4978 -3.65269e-16 -1.85256e-15
0.0005 0.000669332 0.000556618 97.0207 -2.90838e-16 -1.89586e-15
0.0005 0.000699925 0.000556618 95.5021 -2.26293e-16 -1.9308e-15
0.0005 0.000727736 0.000556618 93.9422 -1.26124e-16 -1.93411e-15
0.0005 0.00075302 0.000556618 92.3456 -9.14896e-17 -1.92461e-15
0.0005 0.000776004 0.000556618 90.7175 -2.09435e-16 -1.90838e-15
0.0005 0.0007969 0.000556618 89.0616 -3.05296e-16 -1.87505e-15
0.0005 0.000815895 0.000556618 87.3795 -2.24181e-16 -1.82198e-15
0.0005 0.000833164 0.000556618 85.6708 -4.90789e-17 -1.76703e-15
0.0005 0.000848863 0.000556618 83.934 9.08734e-17 -1.71216e-15
0.0005 0.000863135 0.000556618 82.1663 1.62704e-16 -1.65595e-15
0.0005 0.000876109 0.000556618 80.3639 2.39852e-16 -1.59784e-15
0.0005 0.000887904 0.000556618 78.5224 2.72515e-16 -1.54411e-15
0.0005 0.000898627 0.000556618 76.6366 2.21494e-16 -1.50098e-15
0.0005 0.000908374 0.000556618 74.7004 1.78988e-16 -1.46371e-15
0.0005 0.000917236 0.000556618 72.707 1.75297e-16 -1.4263e-15
0.0005 0.000925292 0.000556618 70.6487 1.78471e-16 -1.39266e-15
0.0005 0.000932616 0.000556618 68.5168 1.6869e-16 -1.35867e-15
0.0005 0.000939274 0.000556618 66.3022 1.56495e-16 -1.32525e-15
0.0005 0.000945326 0.000556618 63.9947 1.44258e-16 -1.29202e-15
0.0005 0.000950829 0.000556618 61.584 1.23933e-16 -1.25749e-15
0.0005 0.000955831 0.000556618 59.0597 1.00859e-16 -1.22055e-15
0.0005 0.000960378 0.000556618 56.4124 9.11372e-17 -1.18065e-15
0.0005 0.000964512 0.000556618 53.6343 9.29316e-17 -1.13802e-15
0.0005 0.00096827 0.000556618 50.7214 1.04094e-16 -1.09093e-15
0.0005 0.000971687 0.000556618 47.6741 1.27303e-16 -1.03806e-15
0.0005 0.000974793 0.000556618 44.4982 1.44836e-16 -9.79904e-16
0.0005 0.000977616 0.000556618 41.1938 1.44734e-16 -9.16855e-16
0.0005 0.000980183 0.000556618 37.7664 1.34955e-16 -8.49057e-16
0.0005 0.000982517 0.000556618 34.2519 1.19288e-16 -7.77192e-16
0.0005 0.000984638 0.000556618 30.714 9.57309e-17 -7.02989e-16
0.0005 0.000986567 0.000556618 27.2328 7.04333e-17 -6.28449e-16
0.0005 0.00098832 0.000556618 23.8864 4.97944e-17 -5.55531e-16
0.0005 0.000989914 0.000556618 20.7343 3.34737e-17 -4.85731e-16
0.0005 0.000991363 0.000556618 17.8089 2.05448e-17 -4.19995e-16
0.0005 0.00099268 0.000556618 15.1194 1.08565e-17 -3.58697e-16
0.0005 0.000993878 0.000556618 12.6599 4.18713e-18 -3.01902e-16
0.0005 0.000994966 0.000556618 10.4168 4.19163e-19 -2.49462e-16
0.0005 0.000995956 0.000556618 8.37389 -1.97644e-18 -2.01149e-16
0.0005 0.000996856 0.000556618 6.5143 -3.92184e-18 -1.56703e-16
0.0005 0.000997673 0.000556618 4.82207 -4.53919e-18 -1.15882e-16
0.0005 0.000998417 0.000556618 3.28236 -3.91471e-18 -7.85538e-17
0.0005 0.000999093 0.000556618 1.88155 -2.48144e-18 -4.46853e-17
0.0005 0.000999707 0.000556618 0.607212 -9.23801e-19 -1.42588e-17
0.0005 4.57206e-05 0.000632668 108.446 -1.09617e-17 -1.68391e-15
0.0005 0.000133005 0.000632668 108.132 4.11466e-16 -1.14297e-15
0.0005 0.000212355 0.000632668 107.573 1.56658e-16 -7.3454e-16
0.0005 0.000284491 0.000632668 106.816 -5.7959e-16 -7.77494e-16
0.0005 0.000350069 0.000632668 105.899 -6.45742e-16 -1.07835e-15
0.0005 0.000409686 0.000632668 104.851 -4.90078e-16 -1.45917e-15
0.0005 0.000463883 0.000632668 103.694 -4.00878e-16 -1.63468e-15
0.0005 0.000513153 0.000632668 102.45 -3.20576e-16 -1.78995e-15
0.0005 0.000557944 0.000632668 101.132 -2.77414e-16 -1.82492e-15
0.0005 0.000598663 0.000632668 99.7534 -2.54102e-16 -1.78984e-15
0.0005 0.00063568 0.000632668 98.324 -2.3369e-16 -1.76865e-15
0.0005 0.000669332 0.000632668 96.851 -2.44474e-16 -1.79228e-15
0.0005 0.000699925 0.000632668 95.3367 -2.57272e-16 -1.83378e-15
0.0005 0.000727736 0.000632668 93.7815 -2.44438e-16 -1.89073e-15
0.0005 0.00075302 0.000632668 92.1892 -2.07558e-16 -1.95462e-15
0.0005 0.000776004 0.000632668 90.5649 -1.20469e-16 -1.9974e-15
0.0005 0.0007969 0.000632668 88.9123 4.76842e-17 -1.99256e-15
0.0005 0.000815895 0.000632668 87.2331 2.11196e-16 -1.9671e-15
0.0005 0.000833164 0.000632668 85.5271 3.22604e-16 -1.94977e-15
0.0005 0.000848863 0.000632668 83.7926 3.95464e-16 -1.92559e-15
0.0005 0.000863135 0.000632668 82.0271 4.36174e-16 -1.89721e-15
0.0005 0.000876109 0.000632668 80.2268 4.34044e-16 -1.86174e-15
0.0005 0.000887904 0.000632668 78.3874 3.54738e-16 -1.82599e-15
0.0005 0.000898627 0.000632668 76.5035 2.63461e-16 -1.78237e-15
0.0005 0.000908374 0.000632668 74.5693 2.42014e-16 -1.73239e-15
0.0005 0.000917236 0.000632668 72.5778 2.17603e-16 -1.68118e-15
0.0005 0.000925292 0.000632668 70.5213 1.7528e-16 -1.62922e-15
0.0005 0.000932616 0.000632668 68.3914 1.36368e-16 -1.57443e-15
0.0005 0.000939274 0.000632668 66.1786 7.2097e-17 -1.51932e-15
0.0005 0.000945326 0.000632668 63.873 9.09045e-18 -1.46424e-15
0.0005 0.000950829 0.000632668 61.4643 -3.86519e-17 -1.40806e-15
0.0005 0.000955831 0.000632668 58.9421 -7.33029e-17 -1.34866e-15
0.0005 0.000960378 0.000632668 56.2971 -1.10971e-16 -1.28636e-15
0.0005 0.000964512 0.000632668 53.5215 -1.44047e-16 -1.22221e-15
0.0005 0.00096827 0.000632668 50.6113 -1.53549e-16 -1.15573e-15
0.0005 0.000971687 0.000632668 47.5672 -1.44705e-16 -1.08658e-15
0.0005 0.000974793 0.000632668 44.395 -1.27132e-16 -1.01484e-15
0.0005 0.000977616 0.000632668 41.0947 -1.0583e-16 -9.40137e-16
0.0005 0.000980183 0.000632668 37.6719 -8.14463e-17 -8.62597e-16
0.0005 0.000982517 0.000632668 34.163 -5.65014e-17 -7.8312e-16
0.0005 0.000984638 0.000632668 30.6318 -3.33388e-17 -7.0275e-16
0.0005 0.000986567 0.000632668 27.158 -1.27734e-17 -6.23198e-16
0.0005 0.00098832 0.000632668 23.8198 2.08071e-18 -5.46376e-16
0.0005 0.000989914 0.000632668 20.6759 1.07706e-17 -4.73831e-16
0.0005 0.000991363 0.000632668 17.7585 1.41766e-17 -4.06417e-16
0.0005 0.00099268 0.000632668 15.0765 1.39532e-17 -3.44544e-16
0.0005 0.000993878 0.000632668 12.624 1.06737e-17 -2.88144e-16
0.0005 0.000994966 0.000632668 10.3873 5.66246e-18 -2.36964e-16
0.0005 0.000995956 0.000632668 8.35016 1.4064e-18 -1.90598e-16
0.0005 0.000996856 0.000632668 6.49584 3.52873e-19 -1.48556e-16
0.0005 0.000997673 0.000632668 4.80841 -4.60916e-20 -1.10324e-16
0.0005 0.000998417 0.000632668 3.27307 -7.88404e-19 -7.53384e-17
0.0005 0.000999093 0.000632668 1.87623 -7.46118e-19 -4.30267e-17
0.0005 0.000999707 0.000632668 0.605495 -6.94719e-19 -1.35572e-17
0.0005 4.57206e-05 0.000706369 108.201 -7.7608e-17 -1.4996e-15
0.0005 0.000133005 0.000706369 107.89 2.80841e-16 -1.07252e-15
0.0005 0.000212355 0.000706369 107.335 1.97189e-16 -1.26025e-15
0.0005 0.000284491 0.000706369 106.584 -6.41389e-16 -1.31166e-15
0.0005 0.000350069 0.000706369 105.672 -1.03017e-15 -1.38979e-15
0.0005 0.000409686 0.000706369 104.63 -8.14524e-16 -1.53487e-15
0.0005 0.000463883 0.000706369 103.48 -5.21772e-16 -1.60607e-15
0.0005 0.000513153 0.000706369 102.241 -2.62411e-16 -1.66674e-15
0.0005 0.000557944 0.000706369 100.929 -6.3819e-17 -1.70648e-15
0.0005 0.000598663 0.000706369 99.5563 -3.22959e-17 -1.7295e-15
0.0005 0.00063568 0.000706369 98.1318 -7.29647e-17 -1.76057e-15
0.0005 0.000669332 0.000706369 96.6635 -1.31697e-16 -1.80379e-15
0.0005 0.000699925 0.000706369 95.1541 -1.67251e-16 -1.84664e-15
0.0005 0.000727736 0.000706369 93.6041 -1.65478e-16 -1.89003e-15
0.0005 0.00075302 0.000706369 92.0166 -1.29382e-16 -1.93131e-15
0.0005 0.000776004 0.000706369 90.3966 -6.67168e-17 -1.96874e-15
0.0005 0.0007969 0.000706369 88.7477 1.06527e-17 -2.00716e-15
0.0005 0.000815895 0.000706369 87.0717 5.58399e-17 -2.04852e-15
0.0005 0.000833164 0.000706369 85.3685 1.43737e-16 -2.08653e-15
0.0005 0.000848863 0.000706369 83.6368 2.41927e-16 -2.1274e-15
0.0005 0.000863135 0.000706369 81.8737 2.83794e-16 -2.16255e-15
0.0005 0.000876109 0.000706369 80.0758 3.12042e-16 -2.17816e-15
0.0005 0.000887904 0.000706369 78.2386 3.3247e-16 -2.17637e-15
0.0005 0.000898627 0.000706369 76.357 3.33826e-16 -2.16014e-15
0.0005 0.000908374 0.000706369 74.4249 3.12172e-16 -2.13402e-15
0.0005 0.000917236 0.000706369 72.4354 2.98184e-16 -2.10795e-15
0.0005 0.000925292 0.000706369 70.3811 3.05638e-16 -2.07696e-15
0.0005 0.000932616 0.000706369 68.2532 2.90796e-16 -2.04563e-15
0.0005 0.000939274 0.000706369 66.0425 2.36635e-16 -2.01225e-15
0.0005 0.000945326 0.000706369 63.7391 1.84807e-16 -1.97579e-15
0.0005 0.000950829 0.000706369 61.3325 1.58933e-16 -1.93521e-15
0.0005 0.000955831 0.000706369 58.8127 1.45493e-16 -1.89028e-15
0.0005 0.000960378 0.000706369 56.1701 1.12903e-16 -1.83997e-15
0.0005 0.000964512 0.000706369 53.3973 7.57284e-17 -1.78324e-15