# V  FACE_DATA 8748
#  x  y  z  V
0.0005 4.57206e-05 4.66216e-05 8.52627e-12
0.0005 0.000133005 4.66216e-05 7.75115e-12
0.0005 0.000212355 4.66216e-05 7.0465e-12
0.0005 0.000284491 4.66216e-05 6.40591e-12
0.0005 0.000350069 4.66216e-05 5.82355e-12
0.0005 0.000409686 4.66216e-05 5.29414e-12
0.0005 0.000463883 4.66216e-05 4.81285e-12
0.0005 0.000513153 4.66216e-05 4.37532e-12
0.0005 0.000557944 4.66216e-05 3.97757e-12
0.0005 0.000598663 4.66216e-05 3.61597e-12
0.0005 0.00063568 4.66216e-05 3.28724e-12
0.0005 0.000669332 4.66216e-05 2.9884e-12
0.0005 0.000699925 4.66216e-05 2.71673e-12
0.0005 0.000727736 4.66216e-05 2.46976e-12
0.0005 0.00075302 4.66216e-05 2.24523e-12
0.0005 0.000776004 4.66216e-05 2.04112e-12
0.0005 0.0007969 4.66216e-05 1.85556e-12
0.0005 0.000815895 4.66216e-05 1.68688e-12
0.0005 0.000833164 4.66216e-05 1.53352e-12
0.0005 0.000848863 4.66216e-05 1.39411e-12
0.0005 0.000863135 4.66216e-05 1.26738e-12
0.0005 0.000876109 4.66216e-05 1.15216e-12
0.0005 0.000887904 4.66216e-05 1.04742e-12
0.0005 0.000898627 4.66216e-05 9.52198e-13
0.0005 0.000908374 4.66216e-05 8.65634e-13
0.0005 0.000917236 4.66216e-05 7.8694e-13
0.0005 0.000925292 4.66216e-05 7.154e-13
0.0005 0.000932616 4.66216e-05 6.50364e-13
0.0005 0.000939274 4.66216e-05 5.9124e-13
0.0005 0.000945326 4.66216e-05 5.37491e-13
0.0005 0.000950829 4.66216e-05 4.88628e-13
0.0005 0.000955831 4.66216e-05 4.44207e-13
0.0005 0.000960378 4.66216e-05 4.03825e-13
0.0005 0.000964512 4.66216e-05 3.67113e-13
0.0005 0.00096827 4.66216e-05 3.33739e-13
0.0005 0.000971687 4.66216e-05 3.034e-13
0.0005 0.000974793 4.66216e-05 2.75818e-13
0.0005 0.000977616 4.66216e-05 2.50743e-13
0.0005 0.000980183 4.66216e-05 2.27949e-13
0.0005 0.000982517 4.66216e-05 2.07226e-13
0.0005 0.000984638 4.66216e-05 1.88387e-13
0.0005 0.000986567 4.66216e-05 1.71261e-13
0.0005 0.00098832 4.66216e-05 1.55692e-13
0.0005 0.000989914 4.66216e-05 1.41538e-13
0.0005 0.000991363 4.66216e-05 1.28671e-13
0.0005 0.00099268 4.66216e-05 1.16974e-13
0.0005 0.000993878 4.66216e-05 1.0634e-13
0.0005 0.000994966 4.66216e-05 9.66724e-14
0.0005 0.000995956 4.66216e-05 8.7884e-14
0.0005 0.000996856 4.66216e-05 7.98946e-14
0.0005 0.000997673 4.66216e-05 7.26314e-14
0.0005 0.000998417 4.66216e-05 6.60286e-14
0.0005 0.000999093 4.66216e-05 6.0026e-14
0.0005 0.000999707 4.66216e-05 5.45691e-14
0.0005 4.57206e-05 0.000138425 8.2629e-12
0.0005 0.000133005 0.000138425 7.51173e-12
0.0005 0.000212355 0.000138425 6.82885e-12
0.0005 0.000284491 0.000138425 6.20804e-12
0.0005 0.000350069 0.000138425 5.64367e-12
0.0005 0.000409686 0.000138425 5.13061e-12
0.0005 0.000463883 0.000138425 4.66419e-12
0.0005 0.000513153 0.000138425 4.24018e-12
0.0005 0.000557944 0.000138425 3.85471e-12
0.0005 0.000598663 0.000138425 3.50428e-12
0.0005 0.00063568 0.000138425 3.18571e-12
0.0005 0.000669332 0.000138425 2.8961e-12
0.0005 0.000699925 0.000138425 2.63282e-12
0.0005 0.000727736 0.000138425 2.39347e-12
0.0005 0.00075302 0.000138425 2.17588e-12
0.0005 0.000776004 0.000138425 1.97807e-12
0.0005 0.0007969 0.000138425 1.79825e-12
0.0005 0.000815895 0.000138425 1.63477e-12
0.0005 0.000833164 0.000138425 1.48616e-12
0.0005 0.000848863 0.000138425 1.35105e-12
0.0005 0.000863135 0.000138425 1.22823e-12
0.0005 0.000876109 0.000138425 1.11657e-12
0.0005 0.000887904 0.000138425 1.01506e-12
0.0005 0.000898627 0.000138425 9.22786e-13
0.0005 0.000908374 0.000138425 8.38896e-13
0.0005 0.000917236 0.000138425 7.62633e-13
0.0005 0.000925292 0.000138425 6.93303e-13
0.0005 0.000932616 0.000138425 6.30275e-13
0.0005 0.000939274 0.000138425 5.72977e-13
0.0005 0.000945326 0.000138425 5.20889e-13
0.0005 0.000950829 0.000138425 4.73535e-13
0.0005 0.000955831 0.000138425 4.30486e-13
0.0005 0.000960378 0.000138425 3.91351e-13
0.0005 0.000964512 0.000138425 3.55774e-13
0.0005 0.00096827 0.000138425 3.23431e-13
0.0005 0.000971687 0.000138425 2.94028e-13
0.0005 0.000974793 0.000138425 2.67298e-13
0.0005 0.000977616 0.000138425 2.42998e-13
0.0005 0.000980183 0.000138425 2.20908e-13
0.0005 0.000982517 0.000138425 2.00825e-13
0.0005 0.000984638 0.000138425 1.82568e-13
0.0005 0.000986567 0.000138425 1.65971e-13
0.0005 0.00098832 0.000138425 1.50883e-13
0.0005 0.000989914 0.000138425 1.37166e-13
0.0005 0.000991363 0.000138425 1.24697e-13
0.0005 0.00099268 0.000138425 1.13361e-13
0.0005 0.000993878 0.000138425 1.03055e-13
0.0005 0.000994966 0.000138425 9.36864e-14
0.0005 0.000995956 0.000138425 8.51694e-14
0.0005 0.000996856 0.000138425 7.74268e-14
0.0005 0.000997673 0.000138425 7.0388e-14
0.0005 0.000998417 0.000138425 6.39891e-14
0.0005 0.000999093 0.000138425 5.81719e-14
0.0005 0.000999707 0.000138425 5.28835e-14
0.0005 4.57206e-05 0.000227392 8.00768e-12
0.0005 0.000133005 0.000227392 7.27971e-12
0.0005 0.000212355 0.000227392 6.61791e-12
0.0005 0.000284491 0.000227392 6.01629e-12
0.0005 0.000350069 0.000227392 5.46935e-12
0.0005 0.000409686 0.000227392 4.97214e-12
0.0005 0.000463883 0.000227392 4.52012e-12
0.0005 0.000513153 0.000227392 4.1092e-12
0.0005 0.000557944 0.000227392 3.73564e-12
0.0005 0.000598663 0.000227392 3.39604e-12
0.0005 0.00063568 0.000227392 3.08731e-12
0.0005 0.000669332 0.000227392 2.80664e-12
0.0005 0.000699925 0.000227392 2.55149e-12
0.0005 0.000727736 0.000227392 2.31954e-12
0.0005 0.00075302 0.000227392 2.10867e-12
0.0005 0.000776004 0.000227392 1.91697e-12
0.0005 0.0007969 0.000227392 1.7427e-12
0.0005 0.000815895 0.000227392 1.58428e-12
0.0005 0.000833164 0.000227392 1.44025e-12
0.0005 0.000848863 0.000227392 1.30932e-12
0.0005 0.000863135 0.000227392 1.19029e-12
0.0005 0.000876109 0.000227392 1.08208e-12
0.0005 0.000887904 0.000227392 9.83711e-13
0.0005 0.000898627 0.000227392 8.94283e-13
0.0005 0.000908374 0.000227392 8.12984e-13
0.0005 0.000917236 0.000227392 7.39077e-13
0.0005 0.000925292 0.000227392 6.71888e-13
0.0005 0.000932616 0.000227392 6.10807e-13
0.0005 0.000939274 0.000227392 5.55279e-13
0.0005 0.000945326 0.000227392 5.04799e-13
0.0005 0.000950829 0.000227392 4.58908e-13
0.0005 0.000955831 0.000227392 4.17189e-13
0.0005 0.000960378 0.000227392 3.79263e-13
0.0005 0.000964512 0.000227392 3.44785e-13
0.0005 0.00096827 0.000227392 3.13441e-13
0.0005 0.000971687 0.000227392 2.84946e-13
0.0005 0.000974793 0.000227392 2.59042e-13
0.0005 0.000977616 0.000227392 2.35493e-13
0.0005 0.000980183 0.000227392 2.14084e-13
0.0005 0.000982517 0.000227392 1.94622e-13
0.0005 0.000984638 0.000227392 1.76929e-13
0.0005 0.000986567 0.000227392 1.60845e-13
0.0005 0.00098832 0.000227392 1.46222e-13
0.0005 0.000989914 0.000227392 1.32929e-13
0.0005 0.000991363 0.000227392 1.20845e-13
0.0005 0.00099268 0.000227392 1.09859e-13
0.0005 0.000993878 0.000227392 9.98718e-14
0.0005 0.000994966 0.000227392 9.07926e-14
0.0005 0.000995956 0.000227392 8.25387e-14
0.0005 0.000996856 0.000227392 7.50352e-14
0.0005 0.000997673 0.000227392 6.82138e-14
0.0005 0.000998417 0.000227392 6.20126e-14
0.0005 0.000999093 0.000227392 5.6375e-14
0.0005 0.000999707 0.000227392 5.125e-14
0.0005 4.57206e-05 0.000313612 7.76033e-12
0.0005 0.000133005 0.000313612 7.05485e-12
0.0005 0.000212355 0.000313612 6.4135e-12
0.0005 0.000284491 0.000313612 5.83045e-12
0.0005 0.000350069 0.000313612 5.30041e-12
0.0005 0.000409686 0.000313612 4.81856e-12
0.0005 0.000463883 0.000313612 4.38051e-12
0.0005 0.000513153 0.000313612 3.98228e-12
0.0005 0.000557944 0.000313612 3.62025e-12
0.0005 0.000598663 0.000313612 3.29114e-12
0.0005 0.00063568 0.000313612 2.99194e-12
0.0005 0.000669332 0.000313612 2.71995e-12
0.0005 0.000699925 0.000313612 2.47268e-12
0.0005 0.000727736 0.000313612 2.24789e-12
0.0005 0.00075302 0.000313612 2.04354e-12
0.0005 0.000776004 0.000313612 1.85776e-12
0.0005 0.0007969 0.000313612 1.68887e-12
0.0005 0.000815895 0.000313612 1.53534e-12
0.0005 0.000833164 0.000313612 1.39576e-12
0.0005 0.000848863 0.000313612 1.26888e-12
0.0005 0.000863135 0.000313612 1.15352e-12
0.0005 0.000876109 0.000313612 1.04866e-12
0.0005 0.000887904 0.000313612 9.53326e-13
0.0005 0.000898627 0.000313612 8.6666e-13
0.0005 0.000908374 0.000313612 7.87873e-13
0.0005 0.000917236 0.000313612 7.16248e-13
0.0005 0.000925292 0.000313612 6.51134e-13
0.0005 0.000932616 0.000313612 5.9194e-13
0.0005 0.000939274 0.000313612 5.38128e-13
0.0005 0.000945326 0.000313612 4.89207e-13
0.0005 0.000950829 0.000313612 4.44733e-13
0.0005 0.000955831 0.000313612 4.04303e-13
0.0005 0.000960378 0.000313612 3.67548e-13
0.0005 0.000964512 0.000313612 3.34135e-13
0.0005 0.00096827 0.000313612 3.03759e-13
0.0005 0.000971687 0.000313612 2.76145e-13
0.0005 0.000974793 0.000313612 2.5104e-13
0.0005 0.000977616 0.000313612 2.28219e-13
0.0005 0.000980183 0.000313612 2.07471e-13
0.0005 0.000982517 0.000313612 1.8861e-13
0.0005 0.000984638 0.000313612 1.71464e-13
0.0005 0.000986567 0.000313612 1.55876e-13
0.0005 0.00098832 0.000313612 1.41706e-13
0.0005 0.000989914 0.000313612 1.28823e-13
0.0005 0.000991363 0.000313612 1.17112e-13
0.0005 0.00099268 0.000313612 1.06466e-13
0.0005 0.000993878 0.000313612 9.6787e-14
0.0005 0.000994966 0.000313612 8.79882e-14
0.0005 0.000995956 0.000313612 7.99892e-14
0.0005 0.000996856 0.000313612 7.27175e-14
0.0005 0.000997673 0.000313612 6.61068e-14
0.0005 0.000998417 0.000313612 6.00971e-14
0.0005 0.000999093 0.000313612 5.46337e-14
0.0005 0.000999707 0.000313612 4.9667e-14
0.0005 4.57206e-05 0.000397168 7.52063e-12
0.0005 0.000133005 0.000397168 6.83694e-12
0.0005 0.000212355 0.000397168 6.2154e-12
0.0005 0.000284491 0.000397168 5.65036e-12
0.0005 0.000350069 0.000397168 5.13669e-12
0.0005 0.000409686 0.000397168 4.66972e-12
0.0005 0.000463883 0.000397168 4.2452e-12
0.0005 0.000513153 0.000397168 3.85927e-12
0.0005 0.000557944 0.000397168 3.50843e-12
0.0005 0.000598663 0.000397168 3.18948e-12
0.0005 0.00063568 0.000397168 2.89953e-12
0.0005 0.000669332 0.000397168 2.63593e-12
0.0005 0.000699925 0.000397168 2.3963e-12
0.0005 0.000727736 0.000397168 2.17846e-12
0.0005 0.00075302 0.000397168 1.98042e-12
0.0005 0.000776004 0.000397168 1.80038e-12
0.0005 0.0007969 0.000397168 1.63671e-12
0.0005 0.000815895 0.000397168 1.48792e-12
0.0005 0.000833164 0.000397168 1.35265e-12
0.0005 0.000848863 0.000397168 1.22968e-12
0.0005 0.000863135 0.000397168 1.11789e-12
0.0005 0.000876109 0.000397168 1.01627e-12
0.0005 0.000887904 0.000397168 9.23879e-13
0.0005 0.000898627 0.000397168 8.3989e-13
0.0005 0.000908374 0.000397168 7.63536e-13
0.0005 0.000917236 0.000397168 6.94124e-13
0.0005 0.000925292 0.000397168 6.31022e-13
0.0005 0.000932616 0.000397168 5.73656e-13
0.0005 0.000939274 0.000397168 5.21506e-13
0.0005 0.000945326 0.000397168 4.74096e-13
0.0005 0.000950829 0.000397168 4.30996e-13
0.0005 0.000955831 0.000397168 3.91815e-13
0.0005 0.000960378 0.000397168 3.56195e-13
0.0005 0.000964512 0.000397168 3.23814e-13
0.0005 0.00096827 0.000397168 2.94376e-13
0.0005 0.000971687 0.000397168 2.67615e-13
0.0005 0.000974793 0.000397168 2.43286e-13
0.0005 0.000977616 0.000397168 2.21169e-13
0.0005 0.000980183 0.000397168 2.01063e-13
0.0005 0.000982517 0.000397168 1.82785e-13
0.0005 0.000984638 0.000397168 1.66168e-13
0.0005 0.000986567 0.000397168 1.51062e-13
0.0005 0.00098832 0.000397168 1.37329e-13
0.0005 0.000989914 0.000397168 1.24844e-13
0.0005 0.000991363 0.000397168 1.13495e-13
0.0005 0.00099268 0.000397168 1.03177e-13
0.0005 0.000993878 0.000397168 9.37974e-14
0.0005 0.000994966 0.000397168 8.52703e-14
0.0005 0.000995956 0.000397168 7.75185e-14
0.0005 0.000996856 0.000397168 7.04714e-14
0.0005 0.000997673 0.000397168 6.40649e-14
0.0005 0.000998417 0.000397168 5.82408e-14
0.0005 0.000999093 0.000397168 5.29462e-14
0.0005 0.000999707 0.000397168 4.81329e-14
0.0005 4.57206e-05 0.000478143 7.28833e-12
0.0005 0.000133005 0.000478143 6.62576e-12
0.0005 0.000212355 0.000478143 6.02341e-12
0.0005 0.000284491 0.000478143 5.47583e-12
0.0005 0.000350069 0.000478143 4.97803e-12
0.0005 0.000409686 0.000478143 4.52548e-12
0.0005 0.000463883 0.000478143 4.11407e-12
0.0005 0.000513153 0.000478143 3.74007e-12
0.0005 0.000557944 0.000478143 3.40006e-12
0.0005 0.000598663 0.000478143 3.09096e-12
0.0005 0.00063568 0.000478143 2.80997e-12
0.0005 0.000669332 0.000478143 2.55452e-12
0.0005 0.000699925 0.000478143 2.32229e-12
0.0005 0.000727736 0.000478143 2.11117e-12
0.0005 0.00075302 0.000478143 1.91925e-12
0.0005 0.000776004 0.000478143 1.74477e-12
0.0005 0.0007969 0.000478143 1.58615e-12
0.0005 0.000815895 0.000478143 1.44196e-12
0.0005 0.000833164 0.000478143 1.31087e-12
0.0005 0.000848863 0.000478143 1.1917e-12
0.0005 0.000863135 0.000478143 1.08336e-12
0.0005 0.000876109 0.000478143 9.84876e-13
0.0005 0.000887904 0.000478143 8.95342e-13
0.0005 0.000898627 0.000478143 8.13947e-13
0.0005 0.000908374 0.000478143 7.39952e-13
0.0005 0.000917236 0.000478143 6.72684e-13
0.0005 0.000925292 0.000478143 6.11531e-13
0.0005 0.000932616 0.000478143 5.55937e-13
0.0005 0.000939274 0.000478143 5.05397e-13
0.0005 0.000945326 0.000478143 4.59452e-13
0.0005 0.000950829 0.000478143 4.17684e-13
0.0005 0.000955831 0.000478143 3.79712e-13
0.0005 0.000960378 0.000478143 3.45193e-13
0.0005 0.000964512 0.000478143 3.13812e-13
0.0005 0.00096827 0.000478143 2.85284e-13
0.0005 0.000971687 0.000478143 2.59349e-13
0.0005 0.000974793 0.000478143 2.35772e-13
0.0005 0.000977616 0.000478143 2.14338e-13
0.0005 0.000980183 0.000478143 1.94853e-13
0.0005 0.000982517 0.000478143 1.77139e-13
0.0005 0.000984638 0.000478143 1.61035e-13
0.0005 0.000986567 0.000478143 1.46396e-13
0.0005 0.00098832 0.000478143 1.33087e-13
0.0005 0.000989914 0.000478143 1.20988e-13
0.0005 0.000991363 0.000478143 1.09989e-13
0.0005 0.00099268 0.000478143 9.99902e-14
0.0005 0.000993878 0.000478143 9.09001e-14
0.0005 0.000994966 0.000478143 8.26365e-14
0.0005 0.000995956 0.000478143 7.51241e-14
0.0005 0.000996856 0.000478143 6.82946e-14
0.0005 0.000997673 0.000478143 6.2086e-14
0.0005 0.000998417 0.000478143 5.64418e-14
0.0005 0.000999093 0.000478143 5.13108e-14
0.0005 0.000999707 0.000478143 4.66461e-14
0.0005 4.57206e-05 0.000556618 7.06321e-12
0.0005 0.000133005 0.000556618 6.4211e-12
0.0005 0.000212355 0.000556618 5.83736e-12
0.0005 0.000284491 0.000556618 5.30669e-12
0.0005 0.000350069 0.000556618 4.82427e-12
0.0005 0.000409686 0.000556618 4.3857e-12
0.0005 0.000463883 0.000556618 3.987e-12
0.0005 0.000513153 0.000556618 3.62454e-12
0.0005 0.000557944 0.000556618 3.29504e-12
0.0005 0.000598663 0.000556618 2.99549e-12
0.0005 0.00063568 0.000556618 2.72317e-12
0.0005 0.000669332 0.000556618 2.47561e-12
0.0005 0.000699925 0.000556618 2.25056e-12
0.0005 0.000727736 0.000556618 2.04596e-12
0.0005 0.00075302 0.000556618 1.85996e-12
0.0005 0.000776004 0.000556618 1.69088e-12
0.0005 0.0007969 0.000556618 1.53716e-12
0.0005 0.000815895 0.000556618 1.39742e-12
0.0005 0.000833164 0.000556618 1.27038e-12
0.0005 0.000848863 0.000556618 1.15489e-12
0.0005 0.000863135 0.000556618 1.0499e-12
0.0005 0.000876109 0.000556618 9.54455e-13
0.0005 0.000887904 0.000556618 8.67686e-13
0.0005 0.000898627 0.000556618 7.88806e-13
0.0005 0.000908374 0.000556618 7.17096e-13
0.0005 0.000917236 0.000556618 6.51906e-13
0.0005 0.000925292 0.000556618 5.92642e-13
0.0005 0.000932616 0.000556618 5.38765e-13
0.0005 0.000939274 0.000556618 4.89786e-13
0.0005 0.000945326 0.000556618 4.4526e-13
0.0005 0.000950829 0.000556618 4.04782e-13
0.0005 0.000955831 0.000556618 3.67984e-13
0.0005 0.000960378 0.000556618 3.34531e-13
0.0005 0.000964512 0.000556618 3.04119e-13
0.0005 0.00096827 0.000556618 2.76472e-13
0.0005 0.000971687 0.000556618 2.51338e-13
0.0005 0.000974793 0.000556618 2.28489e-13
0.0005 0.000977616 0.000556618 2.07717e-13
0.0005 0.000980183 0.000556618 1.88834e-13
0.0005 0.000982517 0.000556618 1.71667e-13
0.0005 0.000984638 0.000556618 1.56061e-13
0.0005 0.000986567 0.000556618 1.41874e-13
0.0005 0.00098832 0.000556618 1.28976e-13
0.0005 0.000989914 0.000556618 1.17251e-13
0.0005 0.000991363 0.000556618 1.06592e-13
0.0005 0.00099268 0.000556618 9.69016e-14
0.0005 0.000993878 0.000556618 8.80924e-14
0.0005 0.000994966 0.000556618 8.0084e-14
0.0005 0.000995956 0.000556618 7.28036e-14
0.0005 0.000996856 0.000556618 6.61851e-14
0.0005 0.000997673 0.000556618 6.01683e-14
0.0005 0.000998417 0.000556618 5.46984e-14
0.0005 0.000999093 0.000556618 4.97259e-14
0.0005 0.000999707 0.000556618 4.52053e-14
0.0005 4.57206e-05 0.000632668 6.84504e-12
0.0005 0.000133005 0.000632668 6.22276e-12
0.0005 0.000212355 0.000632668 5.65705e-12
0.0005 0.000284491 0.000632668 5.14278e-12
0.0005 0.000350069 0.000632668 4.67525e-12
0.0005 0.000409686 0.000632668 4.25023e-12
0.0005 0.000463883 0.000632668 3.86384e-12
0.0005 0.000513153 0.000632668 3.51259e-12
0.0005 0.000557944 0.000632668 3.19326e-12
0.0005 0.000598663 0.000632668 2.90296e-12
0.0005 0.00063568 0.000632668 2.63906e-12
0.0005 0.000669332 0.000632668 2.39914e-12
0.0005 0.000699925 0.000632668 2.18104e-12
0.0005 0.000727736 0.000632668 1.98276e-12
0.0005 0.00075302 0.000632668 1.80251e-12
0.0005 0.000776004 0.000632668 1.63865e-12
0.0005 0.0007969 0.000632668 1.48968e-12
0.0005 0.000815895 0.000632668 1.35425e-12
0.0005 0.000833164 0.000632668 1.23114e-12
0.0005 0.000848863 0.000632668 1.11922e-12
0.0005 0.000863135 0.000632668 1.01747e-12
0.0005 0.000876109 0.000632668 9.24974e-13
0.0005 0.000887904 0.000632668 8.40885e-13
0.0005 0.000898627 0.000632668 7.64441e-13
0.0005 0.000908374 0.000632668 6.94946e-13
0.0005 0.000917236 0.000632668 6.31769e-13
0.0005 0.000925292 0.000632668 5.74336e-13
0.0005 0.000932616 0.000632668 5.22123e-13
0.0005 0.000939274 0.000632668 4.74658e-13
0.0005 0.000945326 0.000632668 4.31507e-13
0.0005 0.000950829 0.000632668 3.92279e-13
0.0005 0.000955831 0.000632668 3.56617e-13
0.0005 0.000960378 0.000632668 3.24198e-13
0.0005 0.000964512 0.000632668 2.94725e-13
0.0005 0.00096827 0.000632668 2.67932e-13
0.0005 0.000971687 0.000632668 2.43574e-13
0.0005 0.000974793 0.000632668 2.21431e-13
0.0005 0.000977616 0.000632668 2.01301e-13
0.0005 0.000980183 0.000632668 1.83001e-13
0.0005 0.000982517 0.000632668 1.66365e-13
0.0005 0.000984638 0.000632668 1.51241e-13
0.0005 0.000986567 0.000632668 1.37491e-13
0.0005 0.00098832 0.000632668 1.24992e-13
0.0005 0.000989914 0.000632668 1.13629e-13
0.0005 0.000991363 0.000632668 1.03299e-13
0.0005 0.00099268 0.000632668 9.39085e-14
0.0005 0.000993878 0.000632668 8.53714e-14
0.0005 0.000994966 0.000632668 7.76103e-14
0.0005 0.000995956 0.000632668 7.05548e-14
0.0005 0.000996856 0.000632668 6.41408e-14
0.0005 0.000997673 0.000632668 5.83098e-14
0.0005 0.000998417 0.000632668 5.30089e-14
0.0005 0.000999093 0.000632668 4.81899e-14
0.0005 0.000999707 0.000632668 4.3809e-14
0.0005 4.57206e-05 0.000706369 6.6336e-12
0.0005 0.000133005 0.000706369 6.03055e-12
0.0005 0.000212355 0.000706369 5.48232e-12
0.0005 0.000284491 0.000706369 4.98393e-12
0.0005 0.000350069 0.000706369 4.53084e-12
0.0005 0.000409686 0.000706369 4.11895e-12
0.0005 0.000463883 0.000706369 3.7445e-12
0.0005 0.000513153 0.000706369 3.40409e-12
0.0005 0.000557944 0.000706369 3.09463e-12
0.0005 0.000598663 0.000706369 2.8133e-12
0.0005 0.00063568 0.000706369 2.55754e-12
0.0005 0.000669332 0.000706369 2.32504e-12
0.0005 0.000699925 0.000706369 2.11367e-12
0.0005 0.000727736 0.000706369 1.92152e-12
0.0005 0.00075302 0.000706369 1.74684e-12
0.0005 0.000776004 0.000706369 1.58803e-12
0.0005 0.0007969 0.000706369 1.44367e-12
0.0005 0.000815895 0.000706369 1.31242e-12
0.0005 0.000833164 0.000706369 1.19311e-12
0.0005 0.000848863 0.000706369 1.08465e-12
0.0005 0.000863135 0.000706369 9.86043e-13
0.0005 0.000876109 0.000706369 8.96403e-13
0.0005 0.000887904 0.000706369 8.14912e-13
0.0005 0.000898627 0.000706369 7.40829e-13
0.0005 0.000908374 0.000706369 6.73481e-13
0.0005 0.000917236 0.000706369 6.12255e-13
0.0005 0.000925292 0.000706369 5.56596e-13
0.0005 0.000932616 0.000706369 5.05996e-13
0.0005 0.000939274 0.000706369 4.59996e-13
0.0005 0.000945326 0.000706369 4.18179e-13
0.0005 0.000950829 0.000706369 3.80162e-13
0.0005 0.000955831 0.000706369 3.45602e-13
0.0005 0.000960378 0.000706369 3.14184e-13
0.0005 0.000964512 0.000706369 2.85622e-13
0.0005 0.00096827 0.000706369 2.59656e-13
0.0005 0.000971687 0.000706369 2.36051e-13
0.0005 0.000974793 0.000706369 2.14592e-13
0.0005 0.000977616 0.000706369 1.95083e-13
0.0005 0.000980183 0.000706369 1.77349e-13
0.0005 0.000982517 0.000706369 1.61226e-13
0.0005 0.000984638 0.000706369 1.46569e-13
0.0005 0.000986567 0.000706369 1.33245e-13
0.0005 0.00098832 0.000706369 1.21131e-13
0.0005 0.000989914 0.000706369 1.10119e-13
0.0005 0.000991363 0.000706369 1.00109e-13
0.0005 0.00099268 0.000706369 9.10078e-14
0.0005 0.000993878 0.000706369 8.27344e-14
0.0005 0.000994966 0.000706369 7.52131e-14
0.0005 0.000995956 0.000706369 6.83755e-14
0.0005 0.000996856 0.000706369 6.21596e-14
0.0005 0.000997673 0.000706369 5.65087e-14
0.0005 0.000998417 0.000706369 5.13715e-14
0.0005 0.000999093 0.000706369 4.67014e-14
0.0005 0.000999707 0.000706369 4.24558e-14
0.0005 4.57206e-05 0.000777794 6.4287e-12
0.0005 0.000133005 0.000777794 5.84428e-12
0.0005 0.000212355 0.000777794 5.31298e-12
0.0005 0.000284491 0.000777794 4.82998e-12
0.0005 0.000350069 0.000777794 4.39089e-12
0.0005 0.000409686 0.000777794 3.99172e-12
0.0005 0.000463883 0.000777794 3.62884e-12
0.0005 0.000513153 0.000777794 3.29894e-12
0.0005 0.000557944 0.000777794 2.99904e-12
0.0005 0.000598663 0.000777794 2.7264e-12
0.0005 0.00063568 0.000777794 2.47854e-12
0.0005 0.000669332 0.000777794 2.25322e-12
0.0005 0.000699925 0.000777794 2.04838e-12
0.0005 0.000727736 0.000777794 1.86217e-12
0.0005 0.00075302 0.000777794 1.69288e-12
0.0005 0.000776004 0.000777794 1.53898e-12
0.0005 0.0007969 0.000777794 1.39907e-12
0.0005 0.000815895 0.000777794 1.27188e-12
0.0005 0.000833164 0.000777794 1.15626e-12
0.0005 0.000848863 0.000777794 1.05114e-12
0.0005 0.000863135 0.000777794 9.55586e-13
0.0005 0.000876109 0.000777794 8.68714e-13
0.0005 0.000887904 0.000777794 7.8974e-13
0.0005 0.000898627 0.000777794 7.17946e-13
0.0005 0.000908374 0.000777794 6.52678e-13
0.0005 0.000917236 0.000777794 5.93344e-13
0.0005 0.000925292 0.000777794 5.39403e-13
0.0005 0.000932616 0.000777794 4.90367e-13
0.0005 0.000939274 0.000777794 4.45788e-13
0.0005 0.000945326 0.000777794 4.05262e-13
0.0005 0.000950829 0.000777794 3.6842e-13
0.0005 0.000955831 0.000777794 3.34927e-13
0.0005 0.000960378 0.000777794 3.04479e-13
0.0005 0.000964512 0.000777794 2.76799e-13
0.0005 0.00096827 0.000777794 2.51636e-13
0.0005 0.000971687 0.000777794 2.2876e-13
0.0005 0.000974793 0.000777794 2.07963e-13
0.0005 0.000977616 0.000777794 1.89058e-13
0.0005 0.000980183 0.000777794 1.71871e-13
0.0005 0.000982517 0.000777794 1.56246e-13
0.0005 0.000984638 0.000777794 1.42042e-13
0.0005 0.000986567 0.000777794 1.29129e-13
0.0005 0.00098832 0.000777794 1.1739e-13
0.0005 0.000989914 0.000777794 1.06718e-13
0.0005 0.000991363 0.000777794 9.70164e-14
0.0005 0.00099268 0.000777794 8.81968e-14
0.0005 0.000993878 0.000777794 8.01789e-14
0.0005 0.000994966 0.000777794 7.28899e-14
0.0005 0.000995956 0.000777794 6.62635e-14
0.0005 0.000996856 0.000777794 6.02396e-14
0.0005 0.000997673 0.000777794 5.47632e-14
0.0005 0.000998417 0.000777794 4.97848e-14
0.0005 0.000999093 0.000777794 4.52589e-14
0.0005 0.000999707 0.000777794 4.11444e-14
0.0005 4.57206e-05 0.000847012 6.23013e-12
0.0005 0.000133005 0.000847012 5.66376e-12
0.0005 0.000212355 0.000847012 5.14887e-12
0.0005 0.000284491 0.000847012 4.68079e-12
0.0005 0.000350069 0.000847012 4.25526e-12
0.0005 0.000409686 0.000847012 3.86842e-12
0.0005 0.000463883 0.000847012 3.51675e-12
0.0005 0.000513153 0.000847012 3.19704e-12
0.0005 0.000557944 0.000847012 2.9064e-12
0.0005 0.000598663 0.000847012 2.64218e-12
0.0005 0.00063568 0.000847012 2.40199e-12
0.0005 0.000669332 0.000847012 2.18362e-12
0.0005 0.000699925 0.000847012 1.98511e-12
0.0005 0.000727736 0.000847012 1.80465e-12
0.0005 0.00075302 0.000847012 1.64059e-12
0.0005 0.000776004 0.000847012 1.49144e-12
0.0005 0.0007969 0.000847012 1.35586e-12
0.0005 0.000815895 0.000847012 1.2326e-12
0.0005 0.000833164 0.000847012 1.12054e-12
0.0005 0.000848863 0.000847012 1.01868e-12
0.0005 0.000863135 0.000847012 9.26069e-13
0.0005 0.000876109 0.000847012 8.41881e-13
0.0005 0.000887904 0.000847012 7.65347e-13
0.0005 0.000898627 0.000847012 6.9577e-13
0.0005 0.000908374 0.000847012 6.32518e-13
0.0005 0.000917236 0.000847012 5.75016e-13
0.0005 0.000925292 0.000847012 5.22742e-13
0.0005 0.000932616 0.000847012 4.7522e-13
0.0005 0.000939274 0.000847012 4.32018e-13
0.0005 0.000945326 0.000847012 3.92744e-13
0.0005 0.000950829 0.000847012 3.5704e-13
0.0005 0.000955831 0.000847012 3.24582e-13
0.0005 0.000960378 0.000847012 2.95074e-13
0.0005 0.000964512 0.000847012 2.68249e-13
0.0005 0.00096827 0.000847012 2.43863e-13
0.0005 0.000971687 0.000847012 2.21694e-13
0.0005 0.000974793 0.000847012 2.0154e-13
0.0005 0.000977616 0.000847012 1.83218e-13
0.0005 0.000980183 0.000847012 1.66562e-13
0.0005 0.000982517 0.000847012 1.5142e-13
0.0005 0.000984638 0.000847012 1.37654e-13
0.0005 0.000986567 0.000847012 1.2514e-13
0.0005 0.00098832 0.000847012 1.13764e-13
0.0005 0.000989914 0.000847012 1.03422e-13
0.0005 0.000991363 0.000847012 9.40197e-14
0.0005 0.00099268 0.000847012 8.54725e-14
0.0005 0.000993878 0.000847012 7.77023e-14
0.0005 0.000994966 0.000847012 7.06384e-14
0.0005 0.000995956 0.000847012 6.42168e-14
0.0005 0.000996856 0.000847012 5.83789e-14
0.0005 0.000997673 0.000847012 5.30717e-14
0.0005 0.000998417 0.000847012 4.8247e-14
0.0005 0.000999093 0.000847012 4.38609e-14
0.0005 0.000999707 0.000847012 3.98736e-14
0.0005 4.57206e-05 0.000914093 6.03769e-12
0.0005 0.000133005 0.000914093 5.48881e-12
0.0005 0.000212355 0.000914093 4.98983e-12
0.0005 0.000284491 0.000914093 4.53621e-12
0.0005 0.000350069 0.000914093 4.12383e-12
0.0005 0.000409686 0.000914093 3.74893e-12
0.0005 0.000463883 0.000914093 3.40812e-12
0.0005 0.000513153 0.000914093 3.09829e-12
0.0005 0.000557944 0.000914093 2.81663e-12
0.0005 0.000598663 0.000914093 2.56057e-12
0.0005 0.00063568 0.000914093 2.32779e-12
0.0005 0.000669332 0.000914093 2.11617e-12
0.0005 0.000699925 0.000914093 1.9238e-12
0.0005 0.000727736 0.000914093 1.7489e-12
0.0005 0.00075302 0.000914093 1.58991e-12
0.0005 0.000776004 0.000914093 1.44538e-12
0.0005 0.0007969 0.000914093 1.31398e-12
0.0005 0.000815895 0.000914093 1.19453e-12
0.0005 0.000833164 0.000914093 1.08593e-12
0.0005 0.000848863 0.000914093 9.87211e-13
0.0005 0.000863135 0.000914093 8.97465e-13
0.0005 0.000876109 0.000914093 8.15877e-13
0.0005 0.000887904 0.000914093 7.41706e-13
0.0005 0.000898627 0.000914093 6.74279e-13
0.0005 0.000908374 0.000914093 6.1298e-13
0.0005 0.000917236 0.000914093 5.57255e-13
0.0005 0.000925292 0.000914093 5.06595e-13
0.0005 0.000932616 0.000914093 4.60541e-13
0.0005 0.000939274 0.000914093 4.18674e-13
0.0005 0.000945326 0.000914093 3.80613e-13
0.0005 0.000950829 0.000914093 3.46011e-13
0.0005 0.000955831 0.000914093 3.14556e-13
0.0005 0.000960378 0.000914093 2.8596e-13
0.0005 0.000964512 0.000914093 2.59964e-13
0.0005 0.00096827 0.000914093 2.36331e-13
0.0005 0.000971687 0.000914093 2.14846e-13
0.0005 0.000974793 0.000914093 1.95314e-13
0.0005 0.000977616 0.000914093 1.77559e-13
0.0005 0.000980183 0.000914093 1.61417e-13
0.0005 0.000982517 0.000914093 1.46743e-13
0.0005 0.000984638 0.000914093 1.33402e-13
0.0005 0.000986567 0.000914093 1.21275e-13
0.0005 0.00098832 0.000914093 1.1025e-13
0.0005 0.000989914 0.000914093 1.00227e-13
0.0005 0.000991363 0.000914093 9.11156e-14
0.0005 0.00099268 0.000914093 8.28324e-14
0.0005 0.000993878 0.000914093 7.53022e-14
0.0005 0.000994966 0.000914093 6.84565e-14
0.0005 0.000995956 0.000914093 6.22332e-14
0.0005 0.000996856 0.000914093 5.65756e-14
0.0005 0.000997673 0.000914093 5.14324e-14
0.0005 0.000998417 0.000914093 4.67567e-14
0.0005 0.000999093 0.000914093 4.25061e-14
0.0005 0.000999707 0.000914093 3.86419e-14
0.0005 4.57206e-05 0.000979101 5.8512e-12
0.0005 0.000133005 0.000979101 5.31927e-12
0.0005 0.000212355 0.000979101 4.8357e-12
0.0005 0.000284491 0.000979101 4.39609e-12
0.0005 0.000350069 0.000979101 3.99645e-12
0.0005 0.000409686 0.000979101 3.63313e-12
0.0005 0.000463883 0.000979101 3.30285e-12
0.0005 0.000513153 0.000979101 3.00259e-12
0.0005 0.000557944 0.000979101 2.72963e-12
0.0005 0.000598663 0.000979101 2.48148e-12
0.0005 0.00063568 0.000979101 2.25589e-12
0.0005 0.000669332 0.000979101 2.05081e-12
0.0005 0.000699925 0.000979101 1.86437e-12
0.0005 0.000727736 0.000979101 1.69488e-12
0.0005 0.00075302 0.000979101 1.5408e-12
0.0005 0.000776004 0.000979101 1.40073e-12
0.0005 0.0007969 0.000979101 1.27339e-12
0.0005 0.000815895 0.000979101 1.15763e-12
0.0005 0.000833164 0.000979101 1.05239e-12
0.0005 0.000848863 0.000979101 9.56718e-13
0.0005 0.000863135 0.000979101 8.69744e-13
0.0005 0.000876109 0.000979101 7.90676e-13
0.0005 0.000887904 0.000979101 7.18796e-13
0.0005 0.000898627 0.000979101 6.53451e-13
0.0005 0.000908374 0.000979101 5.94047e-13
0.0005 0.000917236 0.000979101 5.40042e-13
0.0005 0.000925292 0.000979101 4.90948e-13
0.0005 0.000932616 0.000979101 4.46316e-13
0.0005 0.000939274 0.000979101 4.05742e-13
0.0005 0.000945326 0.000979101 3.68856e-13
0.0005 0.000950829 0.000979101 3.35324e-13
0.0005 0.000955831 0.000979101 3.0484e-13
0.0005 0.000960378 0.000979101 2.77127e-13
0.0005 0.000964512 0.000979101 2.51934e-13
0.0005 0.00096827 0.000979101 2.29031e-13
0.0005 0.000971687 0.000979101 2.0821e-13
0.0005 0.000974793 0.000979101 1.89282e-13
0.0005 0.000977616 0.000979101 1.72074e-13
0.0005 0.000980183 0.000979101 1.56431e-13
0.0005 0.000982517 0.000979101 1.4221e-13
0.0005 0.000984638 0.000979101 1.29282e-13
0.0005 0.000986567 0.000979101 1.17529e-13
0.0005 0.00098832 0.000979101 1.06844e-13
0.0005 0.000989914 0.000979101 9.71314e-14
0.0005 0.000991363 0.000979101 8.83012e-14
0.0005 0.00099268 0.000979101 8.02739e-14
0.0005 0.000993878 0.000979101 7.29762e-14
0.0005 0.000994966 0.000979101 6.6342e-14
0.0005 0.000995956 0.000979101 6.03109e-14
0.0005 0.000996856 0.000979101 5.48281e-14
0.0005 0.000997673 0.000979101 4.98437e-14
0.0005 0.000998417 0.000979101 4.53125e-14