/*--------------------------------*- C++ -*----------------------------------*\
  =========                 |
  \\      /  F ield         | OpenFOAM: The Open Source CFD Toolbox
   \\    /   O peration     | Website:  https://openfoam.org
    \\  /    A nd           | Version:  7
     \\/     M anipulation  |
\*---------------------------------------------------------------------------*/
FoamFile
{
    version     2.0;
    format      ascii;
    class       volVectorField;
    location    "0";
    object      C;
}
// * * * * * * * * * * * * * * * * * * * * * * * * * * * * * * * * * * * * * //

dimensions      [0 1 0 0 0 0 0];

internalField   nonuniform List<vector> 
15600
(
(0.027533067843108 1.00078217893261 0)
(0.0825992071503881 1.00078161526609 0)
(0.137660125282601 0.999617865200604 0)
(0.192554459849542 0.995353021751943 9.57708525571882e-20)
(0.246877147522095 0.98654418488442 -2.14106635381073e-18)
(0.299934252111671 0.972055210523574 0)
(0.350949411108725 0.951507701659829 -2.1679786485729e-18)
(0.399606331910972 0.92580889276968 0)
(0.446164130238463 0.896449061319315 -9.34019932857791e-20)
(0.491044454833042 0.864587045780762 -5.84468168348257e-18)
(0.534664253573971 0.831029378707938 -7.44559006035633e-18)
(0.577389810444618 0.796340930202039 0)
(0.619533686179194 0.760952087741016 3.33600568089322e-18)
(0.661385555591744 0.725224654820552 4.70919709376799e-18)
(0.703225975494922 0.689487058751485 4.32668065086381e-18)
(0.745285133606327 0.654008857219978 8.30057656963662e-18)
(0.787651095382803 0.618895948299615 5.21729018739143e-18)
(0.830304127164975 0.584127568403139 0)
(0.873210392549001 0.549666554470441 2.25275083582398e-18)
(0.916333061094618 0.515473844111775 2.14375882362816e-18)
(0.959635091000497 0.481506672197391 -2.14090576352036e-18)
(1.00307978907738 0.447718855740249 0)
(1.04662858891098 0.414063120382491 -3.94859028413897e-18)
(1.09025312588331 0.380504028793349 0)
(1.13398770242278 0.347087322117193 -1.10852521750279e-17)
(1.17793412021703 0.313952586915082 1.66815659280475e-18)
(1.2222167944132 0.281267871922818 9.50634235006601e-20)
(1.26696115098698 0.249219984391634 -3.45213087776885e-18)
(1.31229932945499 0.218019143166657 -1.56756337290002e-18)
(1.35836742175372 0.187909798471929 4.61578868036364e-18)
(1.40530450995054 0.159182117049946 2.89666884806988e-18)
(1.45324368104535 0.132160576563494 2.97765443533551e-18)
(1.50224992643231 0.107128566522645 0)
(1.55231874835179 0.0843007540917895 -1.91404392194774e-19)
(1.60341568646696 0.0638830652657381 -5.24521155589803e-18)
(1.65548293972262 0.0460864677951046 9.58916055529335e-20)
(1.70843370546421 0.0311207910559032 0)
(1.76214613420311 0.0191864625475239 0)
(1.81647034687992 0.0104618369602463 -3.33660937419087e-16)
(1.8712272961566 0.00509258598210463 -3.38731974683288e-16)
(1.92621503362063 0.00300018183558031 0)
(1.981276489805 0.00273762626411498 2.3410150742997e-18)
(2.03634262549122 0.00273762626411509 -7.21579227648069e-18)
(2.09140876117743 0.00273762626411501 0)
(2.14647489686365 0.00273762626411495 0)
(2.20154103254986 0.0027376262641149 -3.53822669463805e-16)
(2.25660716823608 0.00273762626411503 -3.49825509182198e-16)
(2.3116733039223 0.00273762626411492 2.34101507429975e-18)
(2.36673943960851 0.00273762626411495 0)
(2.42180557529473 0.00273762626411489 -4.97115072897259e-18)
(2.47687171098095 0.00273762626411481 7.21579227648165e-18)
(2.53193784666716 0.00273762626411489 2.53376212788203e-18)
(2.58700398235338 0.00273762626411481 -9.63735267911324e-20)
(2.64207011803959 0.00273762626411489 0)
(2.69713625372581 0.00273762626411503 2.43738860109117e-18)
(2.75220238941202 0.00273762626411501 7.11941874969045e-18)
(2.80726852509824 0.00273762626411498 -2.43738860109071e-18)
(2.86233466078446 0.00273762626411484 -4.77840367539076e-18)
(2.91740079647067 0.0027376262641149 9.63735267911274e-20)
(2.97246693215689 0.00273762626411497 -9.63735267911263e-20)
(3.0275330678431 0.00273762626411498 -3.48851518734863e-16)
(3.08259920352932 0.00273762626411489 -3.49127449578414e-16)
(3.13766533921553 0.00273762626411484 0)
(3.19273147490175 0.00273762626411498 9.63735267911251e-20)
(3.24779761058797 0.00273762626411501 -2.43738860109082e-18)
(3.30286374627418 0.00273762626411495 0)
(3.3579298819604 0.00273762626411495 0)
(3.41299601764662 0.00273762626411501 0)
(3.46806215333283 0.00273762626411495 0)
(3.52312828901905 0.00273762626411492 -9.63735267911271e-20)
(3.57819442470526 0.00273762626411484 0)
(3.63326056039148 0.00273762626411496 0)
(3.68832669607769 0.00273762626411495 3.51192533809127e-16)
(3.74339283176391 0.00273762626411495 3.47518134269927e-16)
(3.79845896745013 0.00273762626411481 7.31216580327292e-18)
(3.85352510313635 0.00273762626411498 0)
(3.90859123882256 0.00273762626411501 0)
(3.96365737450878 0.00273762626411509 0)
(4.018723510195 0.00273762626411498 0)
(4.07378496637937 0.00300018183558009 3.48627456141449e-16)
(4.1287727038434 0.00509258598210438 3.4682656993048e-16)
(4.18352965312008 0.0104618369602459 7.24409649758867e-18)
(4.23785386579688 0.0191864625475228 0)
(4.29156629453578 0.0311207910559027 -2.41324930543775e-18)
(4.34451706027738 0.0460864677951037 -5.02464294867894e-18)
(4.39658431353304 0.0638830652657361 0)
(4.44768125164821 0.0843007540917892 -2.60150086635538e-18)
(4.49775007356769 0.107128566522645 -2.78522701124141e-18)
(4.54675631895465 0.132160576563492 0)
(4.59469549004945 0.159182117049944 2.79933342690714e-18)
(4.64163257824627 0.187909798471923 -1.5068246560437e-18)
(4.68770067054501 0.218019143166655 0)
(4.73303884901301 0.249219984391632 9.76001951885912e-20)
(4.77778320558679 0.281267871922815 0)
(4.82206587978296 0.313952586915079 5.38718904040011e-18)
(4.86601229757721 0.347087322117191 -5.49516658544288e-18)
(4.90974687411668 0.380504028793342 -9.78861500385253e-20)
(4.95337141108902 0.414063120382492 -2.07224278387776e-18)
(4.99692021092262 0.447718855740244 -1.24179826936603e-17)
(5.0403649089995 0.481506672197389 0)
(5.08366693890537 0.51547384411177 -6.91130636619957e-18)
(5.12678960745101 0.549666554470448 4.69440623094282e-18)
(5.16969587283501 0.58412756840313 1.96800956002593e-19)
(5.2123489046172 0.618895948299619 -1.32402940297867e-17)
(5.25471486639367 0.654008857219975 2.86554757694932e-18)
(5.29677402450506 0.689487058751474 0)
(5.33861444440825 0.725224654820548 0)
(5.38046631382081 0.760952087741018 0)
(5.42261018955539 0.796340930202045 0)
(5.46533574642602 0.831029378707925 -1.10689939218523e-17)
(5.50895554516695 0.864587045780756 0)
(5.55383586976154 0.896449061319319 0)
(5.60039366808903 0.925808892769681 0)
(5.64905058889126 0.951507701659823 0)
(5.70006574788832 0.972055210523572 9.80837859595084e-20)
(5.75312285247791 0.986544184884421 9.74799723003467e-20)
(5.80744554015045 0.995353021751943 -2.14138669352398e-18)
(5.8623398747174 0.999617865200603 0)
(5.91740079284961 1.00078161526609 -6.33790737937484e-18)
(5.97246693215689 1.00078217893261 -6.33791162360005e-18)
(0.0275229594781567 1.00237528250517 9.63895402309052e-20)
(0.0825688820880805 1.00237472108803 0)
(0.13760970079963 1.001215614763 0)
(0.192484662244389 0.996967788797982 -3.94561325833921e-18)
(0.24679030373615 0.988194101422667 0)
(0.299835431368084 0.973762948667617 0)
(0.350846727971244 0.953297457423169 -4.19118538166457e-18)
(0.399509112060182 0.927701240674842 0)
(0.446080687531484 0.898458614011167 -1.18643459093338e-17)
(0.490981445361932 0.86672377994096 6.01394510455202e-18)
(0.534626686113292 0.833300047413408 1.9840493724011e-18)
(0.577381241365952 0.798750033014675 1.04053902405869e-17)
(0.619556429143009 0.763502408557891 -1.89889136648679e-19)
(0.661440770913889 0.727917536087145 -4.34955334751749e-18)
(0.703313705224761 0.692322534794385 3.22148807694852e-18)
(0.745404504179892 0.656985891446948 -8.19299554706314e-18)
(0.787800887004963 0.622013086845015 1.90557788274853e-19)
(0.830483198886238 0.587383439859475 -2.57209271657617e-18)
(0.873417737888584 0.553059934972045 0)
(0.916567820086549 0.519003665106323 0)
(0.959896551151078 0.485172035318523 0)
(1.00336738396915 0.451519046602955 0)
(1.0469419057079 0.417997613033853 1.71275887564426e-18)
(1.09059186425202 0.384572438209342 2.0252758673345e-18)
(1.13435142270554 0.351289079378911 0)
(1.17832197578772 0.318286565882898 -7.37570880721136e-18)
(1.22262744224139 0.285732275978948 -8.56116449980249e-18)
(1.26739274723832 0.253812271857988 -3.52907364393039e-18)
(1.31274950293416 0.222735933542333 0)
(1.35883325764397 0.192746736223509 4.36048529735171e-18)
(1.40578253809137 0.164133688840017 1.5889497583946e-18)
(1.45372989999224 0.137219974684583 -2.68837041005977e-18)
(1.50274007698621 0.112287852882177 1.91986403419458e-19)
(1.55280858954732 0.0895511338609267 2.96917443662884e-16)
(1.60390111463375 0.0692149216756968 2.99996792407793e-16)
(1.65596008169824 0.0514893419901841 4.94733050030378e-18)
(1.70889903435844 0.036583386665034 -2.71348819809416e-18)
(1.76259660936144 0.0246966831890033 0)
(1.81690352586041 0.016006874305329 6.14825801131835e-16)
(1.87164145118854 0.0106590502733143 6.19450279266169e-16)
(1.92660924742473 0.00857499651741616 -1.92748538732159e-19)
(1.9816504993082 0.00831348876808933 2.25911679749232e-18)
(2.03669641826451 0.00831348876808928 1.9276306704825e-19)
(2.09174233722083 0.00831348876808936 0)
(2.14678825617714 0.0083134887680893 0)
(2.20183417513345 0.0083134887680893 9.22506856521819e-16)
(2.25688009408977 0.00831348876808919 9.17296825646869e-16)
(2.31192601304608 0.00831348876808928 0)
(2.36697193200239 0.00831348876808922 -7.162876526574e-18)
(2.4220178509587 0.00831348876808911 0)
(2.47706376991502 0.00831348876808919 -1.92763067048243e-19)
(2.53210968887133 0.00831348876808925 -2.45187986454049e-18)
(2.58715560782764 0.00831348876808916 2.25911679749218e-18)
(2.64220152678396 0.00831348876808908 0)
(2.69724744574027 0.00831348876808925 2.25911679749223e-18)
(2.75229336469658 0.0083134887680893 0)
(2.8073392836529 0.00831348876808916 2.45187986454029e-18)
(2.86238520260921 0.00831348876808919 1.92763067048243e-19)
(2.91743112156553 0.00831348876808925 -1.92763067048245e-19)
(2.97247704052184 0.00831348876808916 0)
(3.02752295947815 0.00831348876808921 3.44180202448337e-16)
(3.08256887843446 0.0083134887680893 3.37665663243787e-16)
(3.13761479739078 0.00831348876808919 1.92763067048239e-19)
(3.19266071634709 0.00831348876808917 -4.9037597290806e-18)
(3.24770663530341 0.00831348876808936 0)
(3.30275255425972 0.0083134887680893 -4.71099666203281e-18)
(3.35779847321603 0.00831348876808914 0)
(3.41284439217235 0.00831348876808928 2.25911679749227e-18)
(3.46789031112866 0.00831348876808931 0)
(3.52293623008498 0.00831348876808911 0)
(3.57798214904129 0.0083134887680892 2.25911679749221e-18)
(3.6330280679976 0.00831348876808931 0)
(3.68807398695391 0.00831348876808931 -3.30047212462221e-16)
(3.74311990591023 0.0083134887680891 -3.39821502855628e-16)
(3.79816582486654 0.0083134887680893 0)
(3.85321174382286 0.00831348876808917 0)
(3.90825766277917 0.00831348876808936 0)
(3.96330358173549 0.00831348876808928 -1.92763067048249e-19)
(4.0183495006918 0.00831348876808933 0)
(4.07339075257527 0.00857499651741614 -3.33989488073636e-16)
(4.12835854881146 0.0106590502733139 -3.3771514766129e-16)
(4.18309647413959 0.0160068743053285 -2.46106845279747e-18)
(4.23740339063856 0.0246966831890029 2.48531399775177e-18)
(4.29110096564156 0.0365833866650332 0)
(4.34403991830176 0.0514893419901835 4.94829395021583e-18)
(4.39609888536625 0.0692149216756964 -2.96012306230302e-16)
(4.44719141045267 0.0895511338609236 -2.85984089620808e-16)
(4.49725992301378 0.112287852882174 -1.93519990330312e-19)
(4.54627010000775 0.13721997468458 5.76397079166514e-18)
(4.59421746190862 0.164133688840018 1.93710713860673e-19)
(4.64116674235603 0.192746736223506 3.10079195154411e-18)
(4.68725049706583 0.222735933542327 0)
(4.73260725276168 0.253812271857989 -4.91304560953893e-18)
(4.7773725577586 0.285732275978941 0)
(4.82167802421228 0.318286565882895 6.99576263062802e-18)
(4.86564857729447 0.351289079378913 1.96067988676613e-18)
(4.90940813574798 0.38457243820934 -5.69642211306049e-18)
(4.9530580942921 0.41799761303385 7.80996898041761e-18)
(4.99663261603085 0.451519046602954 -1.98009138072567e-18)
(5.04010344884892 0.48517203531852 4.32344529825355e-18)
(5.08343217991345 0.519003665106321 -6.66963050476926e-18)
(5.1265822621114 0.553059934972037 -6.78984617996281e-18)
(5.16951680111377 0.587383439859479 2.38139829782977e-18)
(5.21219911299504 0.622013086845013 0)
(5.2545954958201 0.656985891446941 0)
(5.29668629477524 0.692322534794386 0)
(5.33855922908611 0.727917536087144 2.83100906814956e-18)
(5.38044357085699 0.763502408557887 3.02022435281431e-18)
(5.42261875863404 0.798750033014672 -8.70868531134228e-18)
(5.4653733138867 0.833300047413404 7.17744707033404e-18)
(5.50901855463807 0.866723779940957 -2.07395992937251e-18)
(5.55391931246851 0.898458614011163 -1.95682050501909e-19)
(5.60049088793981 0.927701240674842 -1.95461445049674e-19)
(5.64915327202876 0.95329745742317 8.00151935910289e-18)
(5.70016456863192 0.973762948667617 -4.35920197346291e-18)
(5.75320969626384 0.988194101422666 -6.30969304360838e-18)
(5.80751533775561 0.996967788797983 -3.94561325833931e-18)
(5.86239029920037 1.001215614763 0)
(5.91743111791192 1.00237472108803 2.1694889337947e-18)
(5.97247704052184 1.00237528250517 -2.16949026486146e-18)
(0.0275124808150585 1.0040267459909 -2.00398926519639e-18)
(0.0825374461324382 1.00402618690553 -4.39348612334888e-18)
(0.137557429124291 1.0028718944405 0)
(0.192412307753064 0.998641709386169 1.71157332306777e-18)
(0.246700278610399 0.989904459190102 0)
(0.299732990530796 0.975533246268986 -1.91516122879864e-18)
(0.35074028325358 0.955152777114333 1.17670053053634e-17)
(0.399408330777852 0.929662910508153 0)
(0.445994188100078 0.90054178186996 3.94178925802269e-18)
(0.490916127695862 0.868938788032415 -2.00032123198387e-18)
(0.534587742463893 0.835653896312796 -5.37877894268691e-18)
(0.577372358380706 0.801247387232902 4.92357589998181e-18)
(0.619580005239092 0.766146154075015 3.2896682619825e-18)
(0.661498008916942 0.730709064600674 0)
(0.703404648729994 0.695261881932812 2.54859209597188e-18)
(0.74552824762657 0.660071982642736 -1.90400487338354e-19)
(0.787956165914964 0.625244414930538 0)
(0.8306688305143 0.590758583153585 -2.10542360848579e-18)
(0.873632678883595 0.55657762474955 -1.32847783486295e-17)
(0.916811178979248 0.522662793651683 -6.05279504480597e-18)
(0.96016758934673 0.488971671341627 0)
(1.00366551430044 0.455458449538441 -2.10053003260613e-18)
(1.04726670021511 0.422076237653992 0)
(1.09094301159952 0.388789885380687 1.95990490296619e-18)
(1.13472846712964 0.355644759339953 -3.21585892633317e-18)
(1.17872403964781 0.322779311237223 1.63989417890797e-18)
(1.22305313330743 0.290360224287295 3.15502318197658e-18)
(1.26784015413006 0.258572788324487 1.51717455105893e-18)
(1.31321616759135 0.227625513816322 -9.13354370729671e-18)
(1.35931615847015 0.197760865201816 1.91687476316693e-19)
(1.40627807780226 0.169266651198773 2.6956098402246e-18)
(1.45423393055714 0.142464713313781 -2.78546080741661e-18)
(1.50324818317834 0.11763613888385 -2.69416369842198e-18)
(1.55331637504208 0.0949938502208027 -2.8473987187288e-16)
(1.60440432543159 0.0747420993336647 -2.79112576316288e-16)
(1.65645470275221 0.0570901389550534 1.92278536088906e-19)
(1.70938140957921 0.0422460927543944 -2.2472183112356e-18)
(1.76306358670793 0.0304087589076697 -2.40454304968351e-18)
(1.81735257341852 0.0217550421335186 -2.87434077669163e-16)
(1.87207077789602 0.0164294299672384 -2.83405282919765e-16)
(1.92701790240106 0.0143540325079716 0)
(1.98203820984283 0.0140936109681351 0)
(2.03706317147295 0.0140936109681351 0)
(2.09208813310307 0.014093610968135 0)
(2.14711309473318 0.0140936109681351 2.18011329374632e-18)
(2.2021380563633 0.0140936109681352 -5.65002406485423e-16)
(2.25716301799342 0.0140936109681351 -5.57689223660962e-16)
(2.31218797962353 0.0140936109681351 -2.37287695376295e-18)
(2.36721294125365 0.0140936109681352 2.18011329374651e-18)
(2.42223790288377 0.014093610968135 0)
(2.47726286451388 0.0140936109681351 -2.37287695376295e-18)
(2.532287826144 0.014093610968135 0)
(2.58731278777412 0.0140936109681351 2.37287695376293e-18)
(2.64233774940424 0.0140936109681351 2.18011329374632e-18)
(2.69736271103435 0.014093610968135 -2.5656406137798e-18)
(2.75238767266447 0.0140936109681352 -2.37287695376289e-18)
(2.80741263429459 0.0140936109681353 0)
(2.8624375959247 0.0140936109681352 0)
(2.91746255755482 0.0140936109681353 0)
(2.97248751918494 0.0140936109681353 0)
(3.02751248081505 0.0140936109681353 -2.56564061377992e-18)
(3.08253744244517 0.0140936109681353 0)
(3.13756240407529 0.0140936109681352 0)
(3.1925873657054 0.0140936109681352 0)
(3.24761232733552 0.0140936109681351 6.92586720127222e-18)
(3.30263728896564 0.014093610968135 4.74575390752632e-18)
(3.35766225059575 0.0140936109681351 0)
(3.41268721222587 0.0140936109681351 -4.93851756754256e-18)
(3.46771217385599 0.014093610968135 7.11863086128944e-18)
(3.52273713548611 0.0140936109681351 7.11863086128882e-18)
(3.57776209711623 0.0140936109681351 -4.74575390752591e-18)
(3.63278705874634 0.014093610968135 0)
(3.68781202037646 0.0140936109681351 -2.56564061377961e-18)
(3.74283698200658 0.0140936109681353 -2.37287695376317e-18)
(3.79786194363669 0.014093610968135 0)
(3.85288690526681 0.0140936109681351 6.92586720127218e-18)
(3.90791186689693 0.0140936109681351 2.18011329374633e-18)
(3.96293682852705 0.0140936109681351 0)
(4.01796179015717 0.014093610968135 -1.92763660016656e-19)
(4.07298209759894 0.0143540325079715 0)
(4.12792922210398 0.0164294299672381 2.17827992208714e-18)
(4.18264742658147 0.0217550421335181 -1.92961959672034e-19)
(4.23693641329206 0.030408758907669 -2.4051294749682e-18)
(4.29061859042079 0.0422460927543932 4.88073610467165e-18)
(4.34354529724778 0.0570901389550524 0)
(4.3955956745684 0.0747420993336628 2.75664600656159e-16)
(4.44668362495792 0.0949938502208009 2.95344715484275e-16)
(4.49675181682166 0.117636138883849 2.88921783772991e-18)
(4.54576606944286 0.142464713313779 -2.59357491376748e-18)
(4.59372192219774 0.169266651198768 0)
(4.64068384152985 0.197760865201816 1.59585173522002e-18)
(4.68678383240865 0.227625513816319 -1.65227888323624e-18)
(4.73215984586994 0.258572788324485 2.84038115255181e-18)
(4.77694686669257 0.290360224287292 -8.27564693796885e-18)
(4.82127596035219 0.322779311237224 3.47390519459518e-18)
(4.86527153287035 0.35564475933995 -5.49908380725833e-18)
(4.90905698840048 0.388789885380685 -3.73162162387819e-18)
(4.95273329978488 0.422076237653985 0)
(4.99633448569956 0.455458449538441 4.01326368728258e-18)
(5.03983241065326 0.48897167134162 4.17602449282045e-18)
(5.08318882102075 0.522662793651682 -6.24371197137388e-18)
(5.1263673211164 0.556577624749548 -3.89283632604429e-19)
(5.1693311694857 0.590758583153583 4.59223655582857e-18)
(5.21204383408502 0.625244414930527 -2.42494974139185e-18)
(5.25447175237344 0.660071982642742 0)
(5.29659535127 0.695261881932806 5.47762598346958e-18)
(5.33850199108306 0.730709064600675 3.30810230261212e-18)
(5.3804199947609 0.766146154075012 -6.1995562573042e-18)
(5.42262764161929 0.801247387232897 1.95661360993882e-19)
(5.46541225753612 0.835653896312803 -6.91878698223516e-18)
(5.50908387230414 0.868938788032413 -2.00640329259401e-18)
(5.55400581189992 0.900541781869957 1.1451742524009e-17)
(5.60059166922213 0.929662910508144 7.67188870908311e-18)
(5.64925971674641 0.955152777114331 5.983346309568e-18)
(5.7002670094692 0.975533246268985 7.85511086741705e-18)
(5.7532997213896 0.989904459190102 -4.00328495280557e-18)
(5.80758769224693 0.998641709386169 1.93364299237143e-19)
(5.86244257087571 1.0028718944405 0)
(5.91746255386756 1.00402618690553 -4.20072301298174e-18)
(5.97248751918494 1.0040267459909 1.90759913202533e-18)
(0.0275016182887733 1.005738707274 3.87461050401631e-18)
(0.0825048585885351 1.00573815060582 0)
(0.137503242588831 1.00458884835274 1.92537290236536e-19)
(0.192337302709616 1.00037695047615 0)
(0.246606955603219 0.991677472322535 3.48410989568721e-18)
(0.299626796985148 0.977368395064407 0)
(0.350629939158316 0.957076062527033 -7.63437519408257e-18)
(0.399303857599515 0.931696441711533 7.39806234498051e-18)
(0.44590451996939 0.902701261588693 0)
(0.490848417280818 0.871234937393311 0)
(0.534547372213206 0.838093972464286 0)
(0.577363149989832 0.803836225685829 -1.96148750001328e-18)
(0.619604444986869 0.768886746639148 0)
(0.661557343696316 0.733602854035102 8.62640459710893e-18)
(0.703498923739076 0.698308905218783 -3.80443159502784e-19)
(0.745656524136009 0.663271125846205 5.14897990805502e-18)
(0.788117133126927 0.62859411562624 -7.20438939794967e-18)
(0.830861262356675 0.594257367542575 -2.40454796679044e-18)
(0.873855493784289 0.560224177601922 2.29504818646877e-18)
(0.91706345281163 0.526455966652651 6.21143191094364e-18)
(0.960448556458858 0.492910499070226 -5.56803545362689e-18)
(1.00397456601498 0.459542164289154 -1.91086604107837e-19)
(1.04760339289465 0.426304274217588 1.91155833605071e-19)
(1.09130702250306 0.393161829997136 -1.89684440104202e-18)
(1.1351193237976 0.360160000641465 3.28574485776653e-18)
(1.17914083228884 0.327436639059068 -1.91354511885968e-19)
(1.22349441868953 0.295157707957046 1.71284787208284e-18)
(1.26830395085271 0.263507696516636 6.04469961905422e-18)
(1.31369992754706 0.232694213792621 2.81336418409268e-18)
(1.35981674937107 0.202958676442776 5.60138006824777e-18)
(1.40679177058325 0.174587648993454 1.4409190802956e-15)
(1.45475642523133 0.147901582012072 1.47510104021408e-15)
(1.50377490277537 0.123180348128591 0)
(1.5538427621869 0.100635949009259 4.86564780091383e-18)
(1.60492597028851 0.0804717534088465 -4.01788172190045e-16)
(1.65696744319214 0.0628961091551289 -4.09866768783703e-16)
(1.70988145558083 0.0481162399270685 6.69810777386663e-18)
(1.76354767076333 0.0363300842126714 0)
(1.81781807086394 0.0277137816733762 4.60973387443002e-18)
(1.87251583205921 0.0224111950454124 2.29481664493972e-18)
(1.92744152756949 0.0203447709955378 0)
(1.98244012331538 0.0200854754589821 2.29666656512681e-18)
(2.03744335989293 0.0200854754589822 -2.10390228994241e-18)
(2.09244659647048 0.0200854754589823 -4.40056885506945e-18)
(2.14744983304802 0.0200854754589821 -4.78609740543789e-18)
(2.20245306962557 0.0200854754589822 -2.29666656512665e-18)
(2.25745630620312 0.0200854754589823 2.29666656512684e-18)
(2.31245954278066 0.0200854754589821 -4.40056885506945e-18)
(2.36746277935821 0.0200854754589822 -4.40056885506904e-18)
(2.42246601593576 0.0200854754589823 0)
(2.4774692525133 0.020085475458982 1.92764275184229e-19)
(2.53247248909085 0.0200854754589823 0)
(2.58747572566839 0.0200854754589822 -2.29666656512662e-18)
(2.64247896224594 0.0200854754589821 -4.78609740543791e-18)
(2.69748219882349 0.0200854754589823 0)
(2.75248543540103 0.0200854754589823 0)
(2.80748867197859 0.0200854754589824 -2.29666656512674e-18)
(2.86249190855613 0.0200854754589824 0)
(2.91749514513368 0.0200854754589824 -2.29666656512675e-18)
(2.97249838171122 0.0200854754589823 0)
(3.02750161828877 0.0200854754589823 4.59333313025431e-18)
(3.08250485486631 0.0200854754589824 -2.10390228994253e-18)
(3.13750809144386 0.0200854754589825 -2.29666656512693e-18)
(3.19251132802141 0.0200854754589822 0)
(3.24751456459895 0.0200854754589822 0)
(3.3025178011765 0.0200854754589823 0)
(3.35752103775405 0.0200854754589821 -2.10390228994262e-18)
(3.4125242743316 0.0200854754589822 -4.59333313025331e-18)
(3.46752751090914 0.0200854754589823 -4.4005688550694e-18)
(3.52253074748669 0.0200854754589821 -2.10390228994262e-18)
(3.57753398406424 0.0200854754589822 -4.40056885506903e-18)
(3.63253722064178 0.0200854754589823 -4.40056885506943e-18)
(3.68754045721933 0.0200854754589821 -4.78609740543791e-18)
(3.74254369379687 0.0200854754589822 -4.5933331302533e-18)
(3.79754693037442 0.0200854754589823 -4.40056885506943e-18)
(3.85255016695197 0.0200854754589822 2.29666656512663e-18)
(3.90755340352952 0.0200854754589822 0)
(3.96255664010707 0.0200854754589821 0)
(4.01755987668461 0.0200854754589823 -4.59333313025372e-18)
(4.07255847243051 0.0203447709955378 4.39904032774379e-18)
(4.12748416794079 0.0224111950454121 0)
(4.18218192913606 0.0277137816733757 -2.30526317767854e-18)
(4.23645232923667 0.0363300842126707 0)
(4.29011854441916 0.048116239927068 4.72345621982693e-18)
(4.34303255680786 0.062896109155128 -1.93242927817776e-19)
(4.39507402971149 0.0804717534088463 0)
(4.44615723781309 0.100635949009257 -2.72363620541229e-18)
(4.49622509722462 0.123180348128589 0)
(4.54524357476867 0.147901582012069 -5.0042587409148e-18)
(4.59320822941675 0.174587648993452 1.93710762788446e-19)
(4.64018325062893 0.202958676442775 -2.89864775902221e-18)
(4.68630007245293 0.232694213792616 4.02615945745525e-18)
(4.73169604914729 0.263507696516637 -1.46329715794211e-18)
(4.77650558131046 0.295157707957039 0)
(4.82085916771115 0.327436639059061 1.77563195216894e-18)
(4.8648806762024 0.360160000641462 -1.44868839781635e-18)
(4.90869297749694 0.393161829997138 -1.70562614918594e-18)
(4.95239660710534 0.42630427421759 1.94308175365694e-19)
(4.996025433985 0.459542164289146 0)
(5.03955144354114 0.492910499070225 3.83936195694976e-18)
(5.08293654718837 0.526455966652651 -4.2082166459788e-18)
(5.1261445062157 0.560224177601917 -6.50734406791743e-18)
(5.16913873764332 0.594257367542573 -2.01909811970303e-18)
(5.21188286687308 0.628594115626241 2.33794363167474e-18)
(5.25434347586398 0.663271125846198 -2.86936693341111e-18)
(5.29650107626093 0.698308905218788 -2.64019368716045e-18)
(5.33844265630367 0.733602854035093 1.00378017314806e-17)
(5.38039555501313 0.76888674663915 2.9878930698909e-18)
(5.42263685001017 0.803836225685827 4.55019797196992e-18)
(5.46545262778679 0.838093972464282 -8.53233242074337e-18)
(5.50915158271918 0.87123493739331 -6.98191509852272e-18)
(5.5540954800306 0.902701261588689 0)
(5.60069614240048 0.931696441711532 0)
(5.64937006084168 0.957076062527031 -7.44394927804034e-18)
(5.70037320301485 0.977368395064406 0)
(5.75339304439678 0.991677472322535 0)
(5.80766269729038 1.00037695047615 -2.03046490075143e-18)
(5.86249675741117 1.00458884835274 0)
(5.91749514141146 1.00573815060582 1.84091315220315e-18)
(5.97249838171122 1.005738707274 -1.92764275184224e-19)
(0.0274903578373389 1.00751338255485 9.63913864917435e-20)
(0.082471077270434 1.00751282839242 0)
(0.137447071046655 1.00636869916399 5.51940502157416e-18)
(0.192259550016981 1.00217575840905 -3.54564461636164e-18)
(0.246510213903745 0.993515436065796 -3.93012316115187e-18)
(0.299516713258398 0.979270770743687 0)
(0.350515552840141 0.959069803439345 1.98538947579948e-18)
(0.399195557281495 0.933804466752406 -1.08908760822119e-17)
(0.445811567062739 0.904939848644797 0)
(0.490778226465456 0.873615200396179 6.73047342000217e-18)
(0.534505523101989 0.840623434543345 0)
(0.577353604273072 0.806519899625001 3.23938365858299e-18)
(0.619629780023726 0.771727733962425 0)
(0.661618852061682 0.736602650439321 1.39332447038332e-17)
(0.703596652293068 0.701467549090938 0)
(0.745789499765975 0.66658746244351 2.19972887231878e-18)
(0.788283997018608 0.632066525238339 2.25401367544153e-18)
(0.83106074352397 0.59788432234082 4.26899215850683e-18)
(0.874086471033984 0.564004314146117 -4.05780464947825e-18)
(0.917324968163375 0.530388094540025 -5.99612455807851e-18)
(0.960739816212279 0.49699361749758 5.55326961823445e-18)
(1.00429493919477 0.463775477415759 0)
(1.04795241961128 0.430687196120211 -5.31320587929187e-18)
(1.09168436819238 0.397693931752891 0)
(1.13552449869252 0.364840648484691 1.91283653794945e-19)
(1.17957289326953 0.332264578489751 1.9135447038842e-19)
(1.22395186965361 0.300130937569543 0)
(1.26878473781424 0.268623384918974 0)
(1.31420140905256 0.237948595154775 0)
(1.36033567838623 0.208346898768149 -5.02651228475519e-18)
(1.40732428143442 0.18010357051222 -1.44580800624976e-15)
(1.45529806040874 0.153537619061605 -1.36831500485602e-15)
(1.5043209176399 0.128927657848373 -2.32917451757492e-18)
(1.55438843241323 0.106484734172697 2.06261804109941e-18)
(1.6054667244961 0.0864113011837307 3.96467914087367e-16)
(1.65749896678179 0.0689147686596853 3.81722276028457e-16)
(1.71039981969303 0.0542014273253252 4.76255879977187e-18)
(1.76404948819354 0.0424683244931254 1.92470989059221e-19)
(1.81830062080118 0.0338908067447094 -2.03850291156214e-18)
(1.87297718981791 0.0286120891338525 2.22138208073847e-18)
(1.92788067132923 0.0265549672234644 1.92750377996769e-19)
(1.98285676001846 0.0262968389419562 1.92764913400371e-19)
(2.03783747569313 0.0262968389419563 -2.22315004144387e-18)
(2.09281819136781 0.0262968389419562 0)
(2.14779890704249 0.0262968389419563 -2.03038512804383e-18)
(2.20277962271717 0.0262968389419561 0)
(2.25776033839185 0.0262968389419562 0)
(2.31274105406652 0.0262968389419562 0)
(2.3677217697412 0.0262968389419561 0)
(2.42270248541588 0.0262968389419561 0)
(2.47768320109055 0.0262968389419562 6.47668521093215e-18)
(2.53266391676523 0.0262968389419562 0)
(2.58764463243991 0.026296838941956 0)
(2.64262534811459 0.0262968389419562 1.92764913400367e-19)
(2.69760606378926 0.0262968389419562 0)
(2.75258677946394 0.0262968389419562 0)
(2.80756749513863 0.0262968389419561 0)
(2.8625482108133 0.0262968389419562 -4.25353516948817e-18)
(2.91752892648798 0.0262968389419561 0)
(2.97250964216266 0.0262968389419561 -1.92764913400373e-19)
(3.02749035783734 0.0262968389419561 1.92764913400371e-19)
(3.08247107351201 0.0262968389419561 6.4766852109319e-18)
(3.13745178918669 0.0262968389419561 0)
(3.19243250486137 0.0262968389419562 1.92764913400371e-19)
(3.24741322053604 0.0262968389419563 0)
(3.30239393621072 0.0262968389419562 0)
(3.3573746518854 0.0262968389419562 1.92764913400374e-19)
(3.41235536756008 0.0262968389419561 0)
(3.46733608323476 0.0262968389419561 0)
(3.52231679890943 0.0262968389419562 0)
(3.57729751458411 0.0262968389419561 -2.0303851280437e-18)
(3.63227823025879 0.0262968389419561 6.4766852109319e-18)
(3.68725894593347 0.0262968389419562 0)