/*--------------------------------*- C++ -*----------------------------------*\
  =========                 |
  \\      /  F ield         | OpenFOAM: The Open Source CFD Toolbox
   \\    /   O peration     | Website:  https://openfoam.org
    \\  /    A nd           | Version:  7
     \\/     M anipulation  |
\*---------------------------------------------------------------------------*/
FoamFile
{
    version     2.0;
    format      ascii;
    class       volScalarField;
    location    "0";
    object      Cy;
}
// * * * * * * * * * * * * * * * * * * * * * * * * * * * * * * * * * * * * * //

dimensions      [0 1 0 0 0 0 0];

internalField   nonuniform List<scalar> 
15600
(
1.00078217893261
1.00078161526609
0.999617865200604
0.995353021751943
0.98654418488442
0.972055210523574
0.951507701659829
0.92580889276968
0.896449061319315
0.864587045780762
0.831029378707938
0.796340930202039
0.760952087741016
0.725224654820552
0.689487058751485
0.654008857219978
0.618895948299615
0.584127568403139
0.549666554470441
0.515473844111775
0.481506672197391
0.447718855740249
0.414063120382491
0.380504028793349
0.347087322117193
0.313952586915082
0.281267871922818
0.249219984391634
0.218019143166657
0.187909798471929
0.159182117049946
0.132160576563494
0.107128566522645
0.0843007540917895
0.0638830652657381
0.0460864677951046
0.0311207910559032
0.0191864625475239
0.0104618369602463
0.00509258598210463
0.00300018183558031
0.00273762626411498
0.00273762626411509
0.00273762626411501
0.00273762626411495
0.0027376262641149
0.00273762626411503
0.00273762626411492
0.00273762626411495
0.00273762626411489
0.00273762626411481
0.00273762626411489
0.00273762626411481
0.00273762626411489
0.00273762626411503
0.00273762626411501
0.00273762626411498
0.00273762626411484
0.0027376262641149
0.00273762626411497
0.00273762626411498
0.00273762626411489
0.00273762626411484
0.00273762626411498
0.00273762626411501
0.00273762626411495
0.00273762626411495
0.00273762626411501
0.00273762626411495
0.00273762626411492
0.00273762626411484
0.00273762626411496
0.00273762626411495
0.00273762626411495
0.00273762626411481
0.00273762626411498
0.00273762626411501
0.00273762626411509
0.00273762626411498
0.00300018183558009
0.00509258598210438
0.0104618369602459
0.0191864625475228
0.0311207910559027
0.0460864677951037
0.0638830652657361
0.0843007540917892
0.107128566522645
0.132160576563492
0.159182117049944
0.187909798471923
0.218019143166655
0.249219984391632
0.281267871922815
0.313952586915079
0.347087322117191
0.380504028793342
0.414063120382492
0.447718855740244
0.481506672197389
0.51547384411177
0.549666554470448
0.58412756840313
0.618895948299619
0.654008857219975
0.689487058751474
0.725224654820548
0.760952087741018
0.796340930202045
0.831029378707925
0.864587045780756
0.896449061319319
0.925808892769681
0.951507701659823
0.972055210523572
0.986544184884421
0.995353021751943
0.999617865200603
1.00078161526609
1.00078217893261
1.00237528250517
1.00237472108803
1.001215614763
0.996967788797982
0.988194101422667
0.973762948667617
0.953297457423169
0.927701240674842
0.898458614011167
0.86672377994096
0.833300047413408
0.798750033014675
0.763502408557891
0.727917536087145
0.692322534794385
0.656985891446948
0.622013086845015
0.587383439859475
0.553059934972045
0.519003665106323
0.485172035318523
0.451519046602955
0.417997613033853
0.384572438209342
0.351289079378911
0.318286565882898
0.285732275978948
0.253812271857988
0.222735933542333
0.192746736223509
0.164133688840017
0.137219974684583
0.112287852882177
0.0895511338609267
0.0692149216756968
0.0514893419901841
0.036583386665034
0.0246966831890033
0.016006874305329
0.0106590502733143
0.00857499651741616
0.00831348876808933
0.00831348876808928
0.00831348876808936
0.0083134887680893
0.0083134887680893
0.00831348876808919
0.00831348876808928
0.00831348876808922
0.00831348876808911
0.00831348876808919
0.00831348876808925
0.00831348876808916
0.00831348876808908
0.00831348876808925
0.0083134887680893
0.00831348876808916
0.00831348876808919
0.00831348876808925
0.00831348876808916
0.00831348876808921
0.0083134887680893
0.00831348876808919
0.00831348876808917
0.00831348876808936
0.0083134887680893
0.00831348876808914
0.00831348876808928
0.00831348876808931
0.00831348876808911
0.0083134887680892
0.00831348876808931
0.00831348876808931
0.0083134887680891
0.0083134887680893
0.00831348876808917
0.00831348876808936
0.00831348876808928
0.00831348876808933
0.00857499651741614
0.0106590502733139
0.0160068743053285
0.0246966831890029
0.0365833866650332
0.0514893419901835
0.0692149216756964
0.0895511338609236
0.112287852882174
0.13721997468458
0.164133688840018
0.192746736223506
0.222735933542327
0.253812271857989
0.285732275978941
0.318286565882895
0.351289079378913
0.38457243820934
0.41799761303385
0.451519046602954
0.48517203531852
0.519003665106321
0.553059934972037
0.587383439859479
0.622013086845013
0.656985891446941
0.692322534794386
0.727917536087144
0.763502408557887
0.798750033014672
0.833300047413404
0.866723779940957
0.898458614011163
0.927701240674842
0.95329745742317
0.973762948667617
0.988194101422666
0.996967788797983
1.001215614763
1.00237472108803
1.00237528250517
1.0040267459909
1.00402618690553
1.0028718944405
0.998641709386169
0.989904459190102
0.975533246268986
0.955152777114333
0.929662910508153
0.90054178186996
0.868938788032415
0.835653896312796
0.801247387232902
0.766146154075015
0.730709064600674
0.695261881932812
0.660071982642736
0.625244414930538
0.590758583153585
0.55657762474955
0.522662793651683
0.488971671341627
0.455458449538441
0.422076237653992
0.388789885380687
0.355644759339953
0.322779311237223
0.290360224287295
0.258572788324487
0.227625513816322
0.197760865201816
0.169266651198773
0.142464713313781
0.11763613888385
0.0949938502208027
0.0747420993336647
0.0570901389550534
0.0422460927543944
0.0304087589076697
0.0217550421335186
0.0164294299672384
0.0143540325079716
0.0140936109681351
0.0140936109681351
0.014093610968135
0.0140936109681351
0.0140936109681352
0.0140936109681351
0.0140936109681351
0.0140936109681352
0.014093610968135
0.0140936109681351
0.014093610968135
0.0140936109681351
0.0140936109681351
0.014093610968135
0.0140936109681352
0.0140936109681353
0.0140936109681352
0.0140936109681353
0.0140936109681353
0.0140936109681353
0.0140936109681353
0.0140936109681352
0.0140936109681352
0.0140936109681351
0.014093610968135
0.0140936109681351
0.0140936109681351
0.014093610968135
0.0140936109681351
0.0140936109681351
0.014093610968135
0.0140936109681351
0.0140936109681353
0.014093610968135
0.0140936109681351
0.0140936109681351
0.0140936109681351
0.014093610968135
0.0143540325079715
0.0164294299672381
0.0217550421335181
0.030408758907669
0.0422460927543932
0.0570901389550524
0.0747420993336628
0.0949938502208009
0.117636138883849
0.142464713313779
0.169266651198768
0.197760865201816
0.227625513816319
0.258572788324485
0.290360224287292
0.322779311237224
0.35564475933995
0.388789885380685
0.422076237653985
0.455458449538441
0.48897167134162
0.522662793651682
0.556577624749548
0.590758583153583
0.625244414930527
0.660071982642742
0.695261881932806
0.730709064600675
0.766146154075012
0.801247387232897
0.835653896312803
0.868938788032413
0.900541781869957
0.929662910508144
0.955152777114331
0.975533246268985
0.989904459190102
0.998641709386169
1.0028718944405
1.00402618690553
1.0040267459909
1.005738707274
1.00573815060582
1.00458884835274
1.00037695047615
0.991677472322535
0.977368395064407
0.957076062527033
0.931696441711533
0.902701261588693
0.871234937393311
0.838093972464286
0.803836225685829
0.768886746639148
0.733602854035102
0.698308905218783
0.663271125846205
0.62859411562624
0.594257367542575
0.560224177601922
0.526455966652651
0.492910499070226
0.459542164289154
0.426304274217588
0.393161829997136
0.360160000641465
0.327436639059068
0.295157707957046
0.263507696516636
0.232694213792621
0.202958676442776
0.174587648993454
0.147901582012072
0.123180348128591
0.100635949009259
0.0804717534088465
0.0628961091551289
0.0481162399270685
0.0363300842126714
0.0277137816733762
0.0224111950454124
0.0203447709955378
0.0200854754589821
0.0200854754589822
0.0200854754589823
0.0200854754589821
0.0200854754589822
0.0200854754589823
0.0200854754589821
0.0200854754589822
0.0200854754589823
0.020085475458982
0.0200854754589823
0.0200854754589822
0.0200854754589821
0.0200854754589823
0.0200854754589823
0.0200854754589824
0.0200854754589824
0.0200854754589824
0.0200854754589823
0.0200854754589823
0.0200854754589824
0.0200854754589825
0.0200854754589822
0.0200854754589822
0.0200854754589823
0.0200854754589821
0.0200854754589822
0.0200854754589823
0.0200854754589821
0.0200854754589822
0.0200854754589823
0.0200854754589821
0.0200854754589822
0.0200854754589823
0.0200854754589822
0.0200854754589822
0.0200854754589821
0.0200854754589823
0.0203447709955378
0.0224111950454121
0.0277137816733757
0.0363300842126707
0.048116239927068
0.062896109155128
0.0804717534088463
0.100635949009257
0.123180348128589
0.147901582012069
0.174587648993452
0.202958676442775
0.232694213792616
0.263507696516637
0.295157707957039
0.327436639059061
0.360160000641462
0.393161829997138
0.42630427421759
0.459542164289146
0.492910499070225
0.526455966652651
0.560224177601917
0.594257367542573
0.628594115626241
0.663271125846198
0.698308905218788
0.733602854035093
0.76888674663915
0.803836225685827
0.838093972464282
0.87123493739331
0.902701261588689
0.931696441711532
0.957076062527031
0.977368395064406
0.991677472322535
1.00037695047615
1.00458884835274
1.00573815060582
1.005738707274
1.00751338255485
1.00751282839242
1.00636869916399
1.00217575840905
0.993515436065796
0.979270770743687
0.959069803439345
0.933804466752406
0.904939848644797
0.873615200396179
0.840623434543345
0.806519899625001
0.771727733962425
0.736602650439321
0.701467549090938
0.66658746244351
0.632066525238339
0.59788432234082
0.564004314146117
0.530388094540025
0.49699361749758
0.463775477415759
0.430687196120211
0.397693931752891
0.364840648484691
0.332264578489751
0.300130937569543
0.268623384918974
0.237948595154775
0.208346898768149
0.18010357051222
0.153537619061605
0.128927657848373
0.106484734172697
0.0864113011837307
0.0689147686596853
0.0542014273253252
0.0424683244931254
0.0338908067447094
0.0286120891338525
0.0265549672234644
0.0262968389419562
0.0262968389419563
0.0262968389419562
0.0262968389419563
0.0262968389419561
0.0262968389419562
0.0262968389419562
0.0262968389419561
0.0262968389419561
0.0262968389419562
0.0262968389419562
0.026296838941956
0.0262968389419562
0.0262968389419562
0.0262968389419562
0.0262968389419561
0.0262968389419562
0.0262968389419561
0.0262968389419561
0.0262968389419561
0.0262968389419561
0.0262968389419561
0.0262968389419562
0.0262968389419563
0.0262968389419562
0.0262968389419562
0.0262968389419561
0.0262968389419561
0.0262968389419562
0.0262968389419561
0.0262968389419561
0.0262968389419562
0.026296838941956
0.0262968389419561
0.0262968389419563
0.0262968389419562
0.0262968389419562
0.0262968389419562
0.0265549672234643
0.0286120891338523
0.033890806744709
0.0424683244931248
0.054201427325324
0.0689147686596845
0.0864113011837287
0.106484734172697
0.128927657848371
0.153537619061604
0.180103570512215
0.208346898768147
0.237948595154772
0.268623384918971
0.30013093756954
0.332264578489752
0.364840648484689
0.397693931752879
0.430687196120208
0.463775477415757
0.496993617497581
0.53038809454002
0.564004314146117
0.597884322340819
0.632066525238335
0.666587462443512
0.701467549090932
0.736602650439322
0.771727733962419
0.806519899625001
0.840623434543335
0.873615200396179
0.904939848644795
0.933804466752407
0.959069803439342
0.979270770743687
0.993515436065796
1.00217575840905
1.00636869916399
1.00751282839242
1.00751338255485
1.00935306921888
1.00935251765399
1.00821375096041
1.00404046181541
0.995420729747003
0.981242836025151
0.961136580836814
0.935989714531367
0.90726044091867
0.876082658295291
0.843245556931195
0.809301883062191
0.774672793714494
0.739712337086152
0.7047419024804
0.670025285529061
0.635666138922547
0.601644142783228
0.567922927928041
0.534464267627336
0.501226312407523
0.468163869140887
0.435230677263776
0.402392057673318
0.369692762197871
0.337269379535977
0.305286351218265
0.273926476045307
0.243395459960322
0.213932507496331
0.185821556381353
0.159380120577046
0.134885508197443
0.112547777221265
0.0925684316559377
0.0751539088715564
0.0605095324678146
0.0488314259410462
0.0402941137441768
0.0350401395272367
0.0329926605293845
0.0327357422660923
0.0327357422660923
0.0327357422660926
0.0327357422660925
0.0327357422660925
0.0327357422660923
0.0327357422660924
0.0327357422660924
0.0327357422660926
0.0327357422660925
0.0327357422660923
0.0327357422660923
0.0327357422660925
0.0327357422660925
0.0327357422660923
0.0327357422660924
0.0327357422660924
0.0327357422660923
0.0327357422660922
0.0327357422660923
0.0327357422660923
0.0327357422660924
0.0327357422660924
0.0327357422660923
0.0327357422660926
0.0327357422660924
0.0327357422660922
0.0327357422660924
0.0327357422660924
0.0327357422660925
0.0327357422660924
0.0327357422660922
0.0327357422660923
0.0327357422660925
0.0327357422660924
0.0327357422660924
0.0327357422660924
0.0327357422660922
0.0329926605293844
0.0350401395272363
0.0402941137441762
0.0488314259410455
0.0605095324678143
0.075153908871555
0.0925684316559362
0.112547777221264
0.134885508197441
0.159380120577041
0.185821556381353
0.213932507496327
0.243395459960322
0.273926476045303
0.305286351218268
0.337269379535967
0.369692762197868
0.402392057673323
0.435230677263769
0.468163869140885
0.501226312407521
0.534464267627334
0.567922927928041
0.601644142783223
0.635666138922547
0.670025285529057
0.704741902480396
0.739712337086152
0.774672793714487
0.80930188306219
0.843245556931198
0.876082658295284
0.907260440918667
0.935989714531367
0.96113658083681
0.98124283602515
0.995420729747004
1.00404046181541
1.00821375096041
1.00935251765399
1.00935306921888
1.01126014881059
1.01125959993839
1.01012639223271
1.0059734746296
0.997395819854707
0.983287143843765
0.963279070253623
0.938255013914677
0.909666042444753
0.878640505214959
0.84596373395308
0.812185777266061
0.777725738282842
0.742935939498903
0.708136204103709
0.673589045462822
0.639397616503061
0.60554169610329
0.571985091757363
0.538689762700416
0.505614063217126
0.47271302044345
0.439940599401743
0.407262289710194
0.374722623080327
0.342457521160747
0.310630622843287
0.279423835011881
0.249041859446451
0.219722733472256
0.191749008809162
0.165436649950699
0.141061611883857
0.118832927030408
0.0989511154918237
0.0816216066132499
0.0670487214471273
0.0554276258377625
0.0469319919966745
0.0417036675802822
0.0396661847521878
0.0394105208370682
0.0394105208370682
0.0394105208370682
0.0394105208370684
0.0394105208370684
0.0394105208370683
0.0394105208370682
0.0394105208370682
0.0394105208370682
0.0394105208370684
0.0394105208370684
0.0394105208370684
0.0394105208370683
0.0394105208370683
0.0394105208370683
0.0394105208370681
0.0394105208370683
0.0394105208370683
0.0394105208370683
0.0394105208370682
0.0394105208370684
0.0394105208370683
0.0394105208370682
0.0394105208370682
0.0394105208370683
0.0394105208370685
0.0394105208370685
0.0394105208370684
0.0394105208370684
0.0394105208370682
0.0394105208370683
0.0394105208370683
0.0394105208370684
0.0394105208370683
0.0394105208370683
0.0394105208370682
0.0394105208370681
0.0394105208370682
0.0396661847521878
0.0417036675802818
0.046931991996674
0.055427625837762
0.0670487214471262
0.0816216066132496
0.0989511154918236
0.118832927030405
0.141061611883856
0.165436649950697
0.191749008809158
0.219722733472256
0.249041859446448
0.279423835011879
0.310630622843279
0.342457521160748
0.374722623080328
0.407262289710183
0.439940599401744
0.472713020443445
0.505614063217127
0.538689762700413
0.571985091757362
0.605541696103289
0.639397616503057
0.673589045462818
0.708136204103713
0.742935939498894
0.777725738282848
0.812185777266055
0.845963733953074
0.878640505214957
0.909666042444756
0.93825501391467
0.963279070253627
0.983287143843762
0.997395819854707
1.0059734746296
1.01012639223271
1.01125959993839
1.01126014881059
1.01323709011641
1.01323654403555
1.01210909896804
1.00797729921478
0.999443263231822
0.985406340656031
0.965500045236151
0.94060329739616
0.912159767299982
0.881292052283943
0.848781484271731
0.81517531542351
0.780890519707527
0.746277630662073
0.711654847949617
0.677283355631213
0.643265788504678
0.609582027833774
0.576196064274402
0.543070049848363
0.510162550070009
0.477428820412965
0.444823059753313
0.412310932614958
0.379936742533963
0.347835719670798
0.316170670870992
0.285122578424701
0.25489510315816
0.225725072428127
0.197893601168454
0.171715047643666
0.147463964153866
0.125348320001477
0.105567615344694
0.0883262345825343
0.073827459500892
0.0622654632171432
0.053813034485908
0.0486112994797718
0.0465841790202135
0.0463298154074261
0.046329815407426
0.0463298154074261
0.0463298154074262
0.0463298154074262
0.0463298154074261
0.046329815407426
0.046329815407426
0.0463298154074261
0.0463298154074261
0.0463298154074261
0.0463298154074262
0.0463298154074262
0.0463298154074261
0.046329815407426
0.0463298154074261
0.0463298154074259
0.0463298154074261
0.0463298154074262
0.0463298154074261
0.0463298154074262
0.0463298154074262
0.046329815407426
0.0463298154074259
0.0463298154074262
0.0463298154074262
0.0463298154074262
0.046329815407426
0.0463298154074261
0.0463298154074263
0.0463298154074261
0.046329815407426
0.0463298154074263
0.0463298154074262
0.0463298154074262
0.0463298154074261
0.0463298154074259
0.0463298154074261
0.0465841790202133
0.0486112994797716
0.0538130344859075
0.0622654632171426
0.0738274595008913
0.0883262345825329
0.105567615344692
0.125348320001476
0.147463964153862
0.171715047643664
0.197893601168453
0.225725072428125
0.254895103158155
0.2851225784247
0.316170670870992
0.347835719670795
0.379936742533953
0.41231093261496
0.444823059753309
0.477428820412962
0.510162550070007
0.543070049848361
0.576196064274399
0.609582027833771
0.643265788504676
0.677283355631215
0.711654847949613
0.746277630662076
0.780890519707518
0.815175315423509
0.848781484271734
0.881292052283935
0.912159767299978
0.940603297396162
0.965500045236147
0.985406340656032
0.999443263231821
1.00797729921478
1.01210909896804
1.01323654403555
1.01323709011641
1.01528645236059
1.01528590917332
1.01416443785522
1.01005452960215
1.00156571038558
0.987603169865967
0.967802380933415
0.943037604893236
0.914744843634701
0.884040731921257
0.851702455441761
0.818274367471778
0.784171234796592
0.749741736422917
0.715302388966849
0.681112998419007
0.6472756624059
0.613770368338238
0.580561296757542
0.547610799544763
0.514877661189499
0.482317373873197
0.44988437889653
0.41754452210064
0.38534187049257
0.353410937411126
0.321913667170455
0.29103008359233
0.260962768410894
0.231947294686973
0.204263287930135
0.178223441335629
0.15410085314205
0.132102390594541
0.112426496550987
0.0952764721910283
0.0808545219701192
0.0693537899194273
0.0609461489780363
0.0557719774111703
0.0537555989346261
0.0535025832620543
0.0535025832620542
0.0535025832620543
0.0535025832620542
0.0535025832620544
0.0535025832620542
0.0535025832620542
0.0535025832620544
0.0535025832620543
0.0535025832620543
0.0535025832620542
0.0535025832620544
0.0535025832620543
0.0535025832620542
0.0535025832620544
0.0535025832620542
0.0535025832620543
0.0535025832620542
0.0535025832620543
0.0535025832620543
0.0535025832620542
0.0535025832620544
0.0535025832620542
0.0535025832620544
0.0535025832620541
0.0535025832620544
0.0535025832620543
0.0535025832620543
0.0535025832620543
0.0535025832620542
0.0535025832620544
0.0535025832620543
0.0535025832620542
0.0535025832620542
0.0535025832620544
0.0535025832620542
0.0535025832620543
0.0535025832620542
0.0537555989346261
0.0557719774111699
0.0609461489780358
0.0693537899194267
0.0808545219701179
0.095276472191028
0.112426496550986
0.132102390594538
0.154100853142049
0.178223441335626
0.204263287930132
0.231947294686968
0.260962768410896
0.291030083592322
0.321913667170451
0.353410937411127
0.385341870492567
0.417544522100641
0.449884378896528
0.482317373873191
0.514877661189494
0.547610799544763
0.580561296757539
0.613770368338234
0.647275662405902
0.681112998418999
0.715302388966851
0.749741736422913
0.78417123479659
0.818274367471774
0.851702455441757
0.884040731921261
0.914744843634699
0.943037604893234
0.967802380933415
0.987603169865965
1.00156571038558
1.01005452960215
1.01416443785522
1.01528590917332
1.01528645236059
1.01741088851812
1.01741034833044
1.01629506960729
1.01220785484904
1.00376590891864
0.989880475376579
0.970189057819037
0.945561087682007
0.917424617851175
0.886890102278985
0.854730428630876
0.821486945107507
0.7875721304289
0.753332741090848
0.719083548960228
0.685082931399995
0.651432429121086
0.618112139581773
0.585086440180057
0.552317889988278
0.519765500501166
0.487385009285132
0.455131108950578
0.422969833302601
0.390945004159995
0.359190391778197
0.327867046337726
0.297153998076211
0.267252710099788
0.238397455221793
0.210866314960594
0.184970256446488
0.160980870600611
0.139103882247028
0.119536638218297
0.102481316799833
0.0881390056589548
0.0767017820499688
0.0683405695527862
0.0631949711342854
0.0611897281624515
0.0609381098134044
0.0609381098134045
0.0609381098134044
0.0609381098134044
0.0609381098134045
0.0609381098134045
0.0609381098134045
0.0609381098134044
0.0609381098134046
0.0609381098134044
0.0609381098134045
0.0609381098134043
0.0609381098134046
0.0609381098134046
0.0609381098134044
0.0609381098134044
0.0609381098134044
0.0609381098134045
0.0609381098134043
0.0609381098134044
0.0609381098134045
0.0609381098134044
0.0609381098134044
0.0609381098134044
0.0609381098134045
0.0609381098134044
0.0609381098134045
0.0609381098134044
0.0609381098134044
0.0609381098134046
0.0609381098134044
0.0609381098134043
0.0609381098134043
0.0609381098134045
0.0609381098134044
0.0609381098134045
0.0609381098134044
0.0609381098134044
0.0611897281624514
0.063194971134285
0.0683405695527856
0.076701782049968
0.0881390056589542
0.102481316799833
0.119536638218295
0.139103882247026
0.160980870600609
0.184970256446487
0.210866314960589
0.23839745522179
0.267252710099782
0.297153998076212
0.327867046337726
0.359190391778191
0.390945004159995
0.422969833302593
0.455131108950575
0.487385009285134
0.519765500501166
0.552317889988274
0.585086440180054
0.618112139581773
0.65143242912108
0.685082931399996
0.719083548960223
0.75333274109084
0.787572130428906
0.821486945107508
0.854730428630871
0.886890102278982
0.917424617851173
0.945561087682005
0.970189057819036
0.989880475376576
1.00376590891864
1.01220785484904
1.01629506960729
1.01741034833044
1.01741088851812
1.01961314874899
1.01961261167079
1.01850375240582
1.01444006251986
1.00604670708603
0.992241205271438
0.972663165549552
0.948177012476469
0.920202558935203
0.88984385184778
0.857869323514009
0.824817206979281
0.791097609051179
0.757055293241938
0.723003222702748
0.689198293754419
0.655741469720054
0.62261296214981
0.589777352525397
0.55719741471217
0.524832395534575
0.492638286939442
0.460570042057811
0.428593889549257
0.39675339706837
0.36518156456319
0.334038515320378
0.303502249590911
0.273773070868214
0.245083904083093
0.217711230196418
0.191964227043416
0.168112923021689
0.146361858692354
0.126907244719549
0.109950095366733
0.0956903406105623
0.0843189518577283
0.0760058685569618
0.070889889982955
0.0688961904542735
0.0686460206214515
0.0686460206214514
0.0686460206214513
0.0686460206214515
0.0686460206214514
0.0686460206214514
0.0686460206214513
0.0686460206214516
0.0686460206214515
0.0686460206214513
0.0686460206214514
0.0686460206214515
0.0686460206214513
0.0686460206214514
0.0686460206214514
0.0686460206214516
0.0686460206214514
0.0686460206214514
0.0686460206214514
0.0686460206214514
0.0686460206214514
0.0686460206214514
0.0686460206214514
0.0686460206214515
0.0686460206214514
0.0686460206214514
0.0686460206214513
0.0686460206214515
0.0686460206214514
0.0686460206214514
0.0686460206214515
0.0686460206214515
0.0686460206214513
0.0686460206214514
0.0686460206214514
0.0686460206214514
0.0686460206214514
0.0686460206214515
0.0688961904542734
0.0708898899829546
0.0760058685569612
0.0843189518577276
0.0956903406105612
0.109950095366732
0.126907244719548
0.146361858692352
0.168112923021688
0.191964227043411
0.217711230196417
0.245083904083092
0.273773070868209
0.303502249590908
0.334038515320376
0.365181564563184
0.39675339706837
0.428593889549253
0.460570042057809
0.492638286939441
0.524832395534571
0.557197414712167
0.589777352525397
0.622612962149805
0.655741469720054
0.689198293754415
0.723003222702741
0.757055293241941
0.791097609051175
0.82481720697928
0.857869323514003
0.889843851847778
0.9202025589352
0.94817701247647
0.972663165549546
0.992241205271439
1.00604670708603
1.01444006251986
1.01850375240582
1.01961261167079
1.01961314874899
1.02189608395827
1.02189555010347
1.02079334547137
1.01675404229467
1.00841105748225
0.994688415631127
0.975227906964062
0.950888765657159
0.923082262946341
0.892905804231103
0.861123203346684
0.828269464070365
0.794752234376383
0.76091421173604
0.727066484271549
0.693464412921465
0.660208362393821
0.627278662524001
0.594640106370493
0.562255690472552
0.530084905614514
0.498084007449026
0.466208219176475
0.434423971454185
0.40277456846817
0.371392211637617
0.340436063394558
0.310083056266919
0.280532291648926
0.252015297208484
0.224806894710084
0.199214407147469
0.17550624316712
0.153885715693171
0.134547857608249
0.117692476520055
0.103518302314364
0.0922151600488853
0.083951968995822
0.0788666953042925
0.0768849621021514
0.0766362938539552
0.0766362938539551
0.0766362938539552
0.076636293853955
0.076636293853955
0.0766362938539552
0.0766362938539555
0.0766362938539552
0.0766362938539551
0.0766362938539552
0.0766362938539551
0.0766362938539552
0.0766362938539553
0.0766362938539551
0.0766362938539551
0.0766362938539551
0.0766362938539553
0.0766362938539551
0.0766362938539552
0.0766362938539553
0.0766362938539551
0.0766362938539551
0.0766362938539552
0.0766362938539551
0.0766362938539552
0.0766362938539552
0.0766362938539552
0.0766362938539551
0.0766362938539552
0.0766362938539553
0.0766362938539552
0.0766362938539552
0.0766362938539553
0.0766362938539551
0.0766362938539551
0.0766362938539551
0.0766362938539552
0.0766362938539553
0.0768849621021513
0.078866695304292
0.0839519689958215
0.0922151600488845
0.103518302314364
0.117692476520054
0.134547857608248
0.15388571569317
0.175506243167118
0.199214407147469
0.22480689471008
0.252015297208479
0.280532291648925
0.310083056266918
0.34043606339455
0.371392211637617
0.402774568468165
0.434423971454186
0.466208219176472
0.498084007449023
0.530084905614512
0.562255690472549
0.594640106370492
0.627278662523998
0.660208362393818
0.693464412921462
0.727066484271548
0.760914211736037
0.794752234376379
0.828269464070364
0.861123203346683
0.892905804231103
0.923082262946338
0.950888765657159
0.975227906964058
0.994688415631127
1.00841105748225
1.01675404229467
1.02079334547137
1.02189555010347
1.02189608395827
1.02426264948661
1.02426211897328
1.02316681276476
1.01915278970991
1.0108620208635
0.997225274489485
0.977886602230393
0.953699857654707
0.926067457672636
0.89607992309427
0.86449628022423
0.831848185278554
0.798540737290814
0.764914491954291
0.731278593615955
0.69788681149545
0.664838889675525
0.632115280624644
0.599680996746816
0.567499265425625
0.535529830352276
0.503729220552729
0.47205293919556
0.440467626341183
0.409016313062284
0.377830372993705
0.347067972507525
0.316904937289535
0.28753912259128
0.259200607628229
0.232162494181028
0.206730182454404
0.183170402020571
0.161685193204424
0.142468367970193
0.125718483074811
0.111633024360454
0.100400628551509
0.0921891573783628
0.0871357133535912
0.0851663848538791
0.0849192732031516
0.0849192732031516
0.0849192732031515
0.0849192732031515
0.0849192732031514
0.0849192732031515
0.0849192732031514
0.0849192732031515
0.0849192732031514
0.0849192732031515
0.0849192732031515
0.0849192732031516
0.0849192732031516
0.0849192732031516
0.0849192732031516
0.0849192732031515
0.0849192732031513
0.0849192732031515
0.0849192732031516
0.0849192732031516
0.0849192732031515
0.0849192732031514
0.0849192732031515
0.0849192732031514
0.0849192732031517
0.0849192732031515
0.0849192732031515
0.0849192732031514
0.0849192732031515
0.0849192732031516
0.0849192732031515
0.0849192732031516
0.0849192732031516
0.0849192732031515
0.0849192732031515
0.0849192732031516
0.0849192732031515
0.0849192732031516
0.0851663848538788
0.0871357133535909
0.0921891573783623
0.100400628551508
0.111633024360453
0.12571848307481
0.142468367970191
0.161685193204422
0.18317040202057
0.2067301824544
0.232162494181027
0.259200607628229
0.287539122591277
0.316904937289528
0.347067972507524
0.377830372993702
0.409016313062282
0.440467626341183
0.472052939195558
0.50372922055272
0.535529830352275
0.567499265425626
0.599680996746812
0.632115280624642
0.664838889675524
0.69788681149545
0.731278593615948
0.764914491954291
0.798540737290812
0.831848185278553
0.864496280224227
0.896079923094266
0.926067457672641
0.9536998576547
0.977886602230396
0.997225274489483
1.0108620208635
1.01915278970991
1.02316681276476
1.02426211897328
1.02426264948661
1.02671590893588
1.02671538188643
1.02562722682387
1.02163941003608
1.01340277010996
0.999855065934807
0.980642693143148
0.956613927493927
0.929162007455816
0.899370317294797
0.867992920533601
0.835558003200438
0.802468021977566
0.769061312265093
0.735645003366103
0.702471214374618
0.669639045925828
0.637129077629406
0.604906549289418
0.572934927604458
0.541174218448004
0.509581234241491
0.47811176838354
0.446732678014673
0.415486711096665
0.384504383152587
0.353942827999143
0.323976723927368
0.294802634388797
0.266649137081314
0.239787550786969
0.214521282484824
0.191115321177496
0.16977038798197
0.150679029227641
0.134038505007325
0.120045011557547
0.108885953747808
0.100728097033131
0.0957076486615759
0.0937511793003011