/*--------------------------------*- C++ -*----------------------------------*\
  =========                 |
  \\      /  F ield         | OpenFOAM: The Open Source CFD Toolbox
   \\    /   O peration     | Website:  https://openfoam.org
    \\  /    A nd           | Version:  7
     \\/     M anipulation  |
\*---------------------------------------------------------------------------*/
FoamFile
{
    version     2.0;
    format      ascii;
    class       volScalarField;
    location    "0";
    object      k_LES;
}
// * * * * * * * * * * * * * * * * * * * * * * * * * * * * * * * * * * * * * //

dimensions      [0 2 -2 0 0 0 0];

internalField   nonuniform List<scalar>
15600
(
0.01774157
0.02010495
0.01699530
0.00500924
0.00252721
0.00523867
0.00164607
0.00481607
0.00354196
0.00628467
0.00613222
0.00500192
0.00126358
0.00397801
0.00078436
0.00265803
0.00121743
0.00197196
0.00021144
0.00126996
0.00009203
0.00082180
0.00124043
0.00037036
0.00043908
0.00092553
0.00143646
0.00063877
0.00128803
0.00046483
0.00258519
0.00061214
0.00175029
0.00260969
0.00220001
0.00208286
0.00125713
0.00234146
0.00262499
0.00302995
0.00207919
0.00223002
0.00253615
0.00285645
0.00310338
0.00332645
0.00353256
0.00385633
0.00400749
0.00423572
0.00441986
0.00457043
0.00473875
0.00491034
0.00494488
0.00501389
0.00512427
0.00517960
0.00520547
0.00534497
0.00538493
0.00546087
0.00548135
0.00539268
0.00538230
0.00539071
0.00533262
0.00531997
0.00528213
0.00529840
0.00529987
0.00527237
0.00518093
0.00515683
0.00515628
0.00510702
0.00518852
0.00514443
0.00525437
0.00593791
0.00940239
0.00482140
0.00442597
0.00338739
0.00010668
0.00053290
-0.00070856
-0.00000113
-0.00141086
0.00054417
-0.00072559
-0.00039127
-0.00056875
-0.00017956
-0.00024484
-0.00188866
-0.00059478
0.00008271
-0.00064066
-0.00164336
-0.00033086
-0.00229394
-0.00016869
-0.00058919
-0.00021659
-0.00111080
0.00074421
-0.00396635
-0.00094137
0.00005218
-0.00084821
-0.00205752
-0.00129125
-0.00578587
-0.00062092
0.00575456
0.00480543
0.00959522
0.01286090
0.01528654
0.02468270
0.02754381
0.02397911
0.01049655
0.00533269
0.00719655
0.00293304
0.00701403
0.00552145
0.00966779
0.00951633
0.00708706
0.00291648
0.00542369
0.00223922
0.00486243
0.00250947
0.00440267
0.00259643
0.00333126
0.00128576
0.00279125
0.00338659
0.00183081
0.00266762
0.00361696
0.00375955
0.00310911
0.00485471
0.00354576
0.00638419
0.00405274
0.00664418
0.00657825
0.00700662
0.00752432
0.00671686
0.00797283
0.00856683
0.00806097
0.00736447
0.00808844
0.00892895
0.00992156
0.01065679
0.01138826
0.01216891
0.01289233
0.01352483
0.01428889
0.01492986
0.01529804
0.01573625
0.01631292
0.01638017
0.01659379
0.01692858
0.01704586
0.01730339
0.01756069
0.01777870
0.01805417
0.01810316
0.01808519
0.01799958
0.01792421
0.01790138
0.01775177
0.01775187
0.01779207
0.01774666
0.01770002
0.01757024
0.01753555
0.01741629
0.01736433
0.01758547
0.01746516
0.01777701
0.01900282
0.02288720
0.01913309
0.01770764
0.01688677
0.01036803
0.01034101
0.00656481
0.00652358
0.00363023
0.00642951
0.00129177
0.00494690
0.00075721
0.00078499
0.00374636
0.00126011
-0.00047417
0.00072988
0.00215201
-0.00164183
0.00276903
-0.00118965
0.00270581
0.00027342
0.00250156
-0.00096238
0.00151502
-0.00364303
0.00157425
0.00439334
0.00318017
-0.00191667
0.00003771
-0.00682024
0.00188115
0.01057708
0.01032854
0.01545714
0.01911563
0.02165043
0.03375526
0.03658171
0.03236349
0.01671567
0.00931430
0.00978732
0.00479586
0.00987024
0.00827780
0.01373584
0.01352112
0.00975408
0.00538576
0.00708191
0.00489691
0.00680357
0.00437662
0.00731312
0.00542202
0.00619052
0.00457475
0.00583127
0.00588206
0.00538468
0.00649357
0.00723376
0.00746999
0.00806135
0.00931423
0.00892025
0.01058365
0.01019427
0.01146339
0.01188356
0.01204462
0.01274323
0.01332154
0.01371396
0.01425822
0.01385007
0.01415696
0.01559270
0.01698128
0.01844033
0.01969885
0.02094705
0.02217911
0.02329331
0.02437528
0.02552626
0.02653652
0.02733873
0.02800427
0.02883541
0.02915091
0.02948364
0.02987565
0.03027527
0.03074159
0.03106388
0.03147532
0.03193546
0.03212404
0.03213181
0.03211803
0.03198128
0.03190844
0.03186384
0.03196700
0.03200741
0.03199960
0.03188616
0.03171686
0.03166464
0.03171486
0.03159155
0.03184361
0.03192867
0.03252209
0.03359863
0.03592030
0.03532708
0.03318990
0.03464708
0.03102803
0.03146224
0.02901007
0.02513186
0.02123162
0.02040863
0.01345356
0.02262403
0.01067649
0.01087878
0.01630047
0.01112486
0.00562010
0.00694348
0.01113481
0.00284737
0.01183433
0.00219857
0.01093257
0.00453168
0.00683018
0.00149155
0.00665018
0.00081409
0.00842988
0.01205346
0.01020877
0.00036849
0.00375211
-0.00519492
0.00840668
0.01698959
0.01681702
0.02277437
0.02741030
0.03013030
0.04415992
0.04696292
0.04229912
0.02457189
0.01471416
0.01326670
0.00746175
0.01349114
0.01189552
0.01790781
0.01742388
0.01285670
0.00941799
0.00966318
0.00864304
0.00929574
0.00792595
0.00997217
0.00815023
0.00946460
0.00866284
0.00867868
0.00942147
0.00994801
0.01030320
0.01076961
0.01177477
0.01290932
0.01303353
0.01333907
0.01399484
0.01491609
0.01531145
0.01598996
0.01618575
0.01696816
0.01743444
0.01789947
0.01842295
0.01852003
0.01958600
0.02141763
0.02312628
0.02481330
0.02637921
0.02789382
0.02936222
0.03076014
0.03211593
0.03348350
0.03470929
0.03579271
0.03675314
0.03763454
0.03817872
0.03854996
0.03900184
0.03957102
0.04018887
0.04069610
0.04123536
0.04174749
0.04211987
0.04218612
0.04218905
0.04218032
0.04212506
0.04217787
0.04218402
0.04225412
0.04231575
0.04222896
0.04216623
0.04219081
0.04228931
0.04228129
0.04242439
0.04281050
0.04343798
0.04439807
0.04540775
0.04578703
0.04571979
0.04591233
0.04794935
0.04780463
0.04862107
0.04691372
0.04670171
0.04188478
0.04057740
0.04785913
0.03257546
0.02953248
0.03787995
0.03669019
0.02302234
0.02192901
0.03149291
0.01426504
0.03093338
0.01293332
0.02797518
0.01664265
0.01236752
0.00781873
0.01651322
0.00774904
0.02206286
0.02556184
0.02083952
0.00629568
0.01026161
0.00120145
0.01984995
0.02543501
0.02464080
0.03295098
0.03754892
0.04021741
0.05483555
0.05808896
0.05337914
0.03405531
0.02179721
0.01754764
0.01110096
0.01768053
0.01626321
0.02149023
0.02123586
0.01713437
0.01385299
0.01247667
0.01255436
0.01200282
0.01194628
0.01235487
0.01112353
0.01197184
0.01198758
0.01189652
0.01292224
0.01331307
0.01357864
0.01415759
0.01538580
0.01624703
0.01643317
0.01717628
0.01724006
0.01828893
0.01879240
0.01923442
0.01971414
0.02015996
0.02078002
0.02124461
0.02180133
0.02232001
0.02383495
0.02582873
0.02769434
0.02945624
0.03120735
0.03287183
0.03449504
0.03612177
0.03760176
0.03916678
0.04059990
0.04183812
0.04291909
0.04389467
0.04453369
0.04496182
0.04550114
0.04624272
0.04694161
0.04756380
0.04813510
0.04872887
0.04919649
0.04931058
0.04939409
0.04944287
0.04948905
0.04947879
0.04957952
0.04969448
0.04979603
0.04980232
0.04983093
0.04997093
0.05012541
0.05011776
0.05027608
0.05077970
0.05150346
0.05219532
0.05298714
0.05390622
0.05474145
0.05587734
0.05654615
0.05829784
0.05936487
0.05906334
0.06049538
0.06014042
0.06016271
0.06308351
0.06066967
0.05005278
0.05800648
0.06056748
0.05063509
0.04211635
0.05584752
0.03945727
0.05612799
0.03492705
0.05105565
0.02939906
0.02618012
0.01948649
0.02340924
0.01865339
0.03515291
0.04631834
0.03578113
0.01585243
0.01966752
0.01274733
0.03337285
0.03642894
0.03450814
0.04381970
0.04897206
0.05074722
0.06660610
0.06927285
0.06485684
0.04511393
0.03072142
0.02263040
0.01544447
0.02197221
0.02085473
0.02388105
0.02347268
0.02134257
0.01756647
0.01573793
0.01559307
0.01443555
0.01475893
0.01449072
0.01438557
0.01435005
0.01465274
0.01469611
0.01582180
0.01620158
0.01665458
0.01716248
0.01825482
0.01911915
0.01944753
0.02001405
0.02006943
0.02068004
0.02103388
0.02165136
0.02213679
0.02250614
0.02301640
0.02367351
0.02436807
0.02528747
0.02702866
0.02910612
0.03106560
0.03292136
0.03474221
0.03653700
0.03829534
0.04001326
0.04164381
0.04331995
0.04487203
0.04622630
0.04742740
0.04850642
0.04918857
0.04965167
0.05028015
0.05111152
0.05189790
0.05249313
0.05317189
0.05388446
0.05437583
0.05453706
0.05471389
0.05486093
0.05494142
0.05498262
0.05507365
0.05524608
0.05534264
0.05545968
0.05560770
0.05588483
0.05605264
0.05610940
0.05631548
0.05686185
0.05759734
0.05813816
0.05877512
0.06010399
0.06149410
0.06288075
0.06504057
0.06650089
0.06799123
0.06954478
0.07066358
0.07200946
0.07205997
0.07484214
0.07413131
0.07539880
0.07586513
0.07600072
0.07598087
0.06483718
0.07252256
0.06967742
0.07666186
0.06135613
0.07312901
0.04670706
0.04473963
0.03895897
0.03631504
0.03366818
0.05199641
0.06572727
0.05720025
0.02884389
0.03228292
0.02744414
0.04657798
0.05010982
0.04717533
0.05661483
0.06096907
0.06261048
0.07760990
0.07966463
0.07537573
0.05713072
0.04105187
0.02873956
0.02025965
0.02568477
0.02500626
0.02549497
0.02528662
0.02363351
0.02009982
0.01973952
0.01786023
0.01677016
0.01681161
0.01649614
0.01678057
0.01648967
0.01724865
0.01731530
0.01817765
0.01879712
0.01940960
0.01990813
0.02063217
0.02123697
0.02160532
0.02188122
0.02213347
0.02250474
0.02276117
0.02331672
0.02379123
0.02421800
0.02486825
0.02559433
0.02645181
0.02760252
0.02949374
0.03161518
0.03366047
0.03556583
0.03747458
0.03937074
0.04122841
0.04307610
0.04475090
0.04650139
0.04812811
0.04957524
0.05087582
0.05202076
0.05274932
0.05326457
0.05397250
0.05488074
0.05571475
0.05631605
0.05704169
0.05784796
0.05836086
0.05857285
0.05883252
0.05905145
0.05915784
0.05921372
0.05934520
0.05953246
0.05967194
0.05986714
0.06015099
0.06052560
0.06068200
0.06078215
0.06102506
0.06162832
0.06235208
0.06284456
0.06351368
0.06494961
0.06665267
0.06842331
0.07040524
0.07278110
0.07473531
0.07662706
0.07921754
0.08009746
0.08298687
0.08397026
0.08522952
0.08560023
0.08749992
0.08720023
0.08928403
0.09050911
0.08969777
0.08832463
0.09113637
0.07845773
0.09109845
0.07380067
0.06850164
0.06659895
0.05791472
0.05716424
0.06868189
0.08225864
0.08067689
0.04499072
0.04836598
0.04409292
0.06134317
0.06536585
0.06204754
0.07030654
0.07265261
0.07444988
0.08640540
0.08833953
0.08532530
0.06878948
0.05217576
0.03556152
0.02520944
0.02841683
0.02808811
0.02709997
0.02744287
0.02487156
0.02200388
0.02209445
0.01979326
0.01978328
0.01900169
0.01848611
0.01903875
0.01864428
0.01952724
0.01961164
0.02022379
0.02083699
0.02150310
0.02195555
0.02244010
0.02272247
0.02289358
0.02340689
0.02358315
0.02398841
0.02406776
0.02456873
0.02505043
0.02557826
0.02623618
0.02706971
0.02809781
0.02947938
0.03145949
0.03364186
0.03574073
0.03770808
0.03968225
0.04166776
0.04360522
0.04553897
0.04729081
0.04905264
0.05071980
0.05225710
0.05362084
0.05482595
0.05557700
0.05616323
0.05697101
0.05793314
0.05875442
0.05937125
0.06011446
0.06101176
0.06153749
0.06181266
0.06213032
0.06240640
0.06254076
0.06255246
0.06271961
0.06296430
0.06311848
0.06343461
0.06380650
0.06424724
0.06439048
0.06457320
0.06485998
0.06547043
0.06617531
0.06666570
0.06735484
0.06889466
0.07077096
0.07277295
0.07510516
0.07754406
0.07967048
0.08202815
0.08340370
0.08691896
0.08936219
0.09171951
0.09385283
0.09433448
0.09611469
0.09723109
0.09938630
0.10019224
0.09921936
0.09900327
0.10311949
0.09910888
0.10450255
0.09837014
0.08750806
0.09208611
0.07525050
0.08424011
0.09226342
0.09434953
0.10175115
0.06482663
0.06708230
0.06050620
0.07605732
0.08105612
0.07661837
0.08299395
0.08298859
0.08429830
0.09301708
0.09469658
0.09236932
0.08078763
0.06332838
0.04306799
0.03032122
0.03046388
0.03034178
0.02921210
0.02939261
0.02649719
0.02424494
0.02441841
0.02182256
0.02163270
0.02090635
0.02052353
0.02071153
0.02056839
0.02122378
0.02146534
0.02200466
0.02248217
0.02294954
0.02353565
0.02380625
0.02398849
0.02399656
0.02447232
0.02458311
0.02485676
0.02506732
0.02552743
0.02605736
0.02664866
0.02737809
0.02832660
0.02947171
0.03102173
0.03309273
0.03531780
0.03748193
0.03952263
0.04156711
0.04362130
0.04563785
0.04763821
0.04944926
0.05119829
0.05288989
0.05448505
0.05589609
0.05712727
0.05794065
0.05859767
0.05947914
0.06047801
0.06128208
0.06190113
0.06267821
0.06362224
0.06416327
0.06449129
0.06484446
0.06516120
0.06533116
0.06531814
0.06552147
0.06575120
0.06597679
0.06639093
0.06685485
0.06732835
0.06743336
0.06770925
0.06802414
0.06861752
0.06932547
0.06984750
0.07059246
0.07213966
0.07412438
0.07624512
0.07867898
0.08133226
0.08373847
0.08644694
0.08919906
0.09198101
0.09488566
0.09779633
0.09958591
0.10174408
0.10378447
0.10575808
0.10714002
0.10858746
0.10791175
0.10939499
0.11060626
0.10909800
0.11138988
0.10907332
0.10018982
0.10790262
0.10183791
0.10645960
0.11389946
0.10533077
0.11780909
0.08869165
0.08742365
0.07900163
0.08990079
0.09577316
0.09000198
0.09289882
0.09163812
0.09193502
0.09841296
0.09913623
0.09681076
0.09082363
0.07359090
0.05109939
0.03554082
0.03248321
0.03215341
0.03118734
0.03057729
0.02832210
0.02637455
0.02573929
0.02376634
0.02333155
0.02265742
0.02230272
0.02227183
0.02229972
0.02262005
0.02285742
0.02341433
0.02366379
0.02411390
0.02464932
0.02487839
0.02491669
0.02488830
0.02520699
0.02533054
0.02551882
0.02579163
0.02627902
0.02689059
0.02748891
0.02834651
0.02939094
0.03065526
0.03234740
0.03450260
0.03677672
0.03899804
0.04112319
0.04324200
0.04535024
0.04743446
0.04948502
0.05134125
0.05308705
0.05477602
0.05640802
0.05784901
0.05910635
0.05997450
0.06070083
0.06166991
0.06267268
0.06346162
0.06408646
0.06486139
0.06584642
0.06640945
0.06677521
0.06715018
0.06747927
0.06768796
0.06766156
0.06786457
0.06812991
0.06841551
0.06890828
0.06943487
0.06989188
0.06998310
0.07032289
0.07068495
0.07124542
0.07197775
0.07253564
0.07333680
0.07488088
0.07691201
0.07909913
0.08162781
0.08434022
0.08693204
0.08994916
0.09275703
0.09611257
0.09906804
0.10186359
0.10424309
0.10646922
0.10899903
0.11211508
0.11396075
0.11510419
0.11643813
0.11724107
0.11625039
0.11811938
0.11600527
0.11866712
0.11809176
0.11694775
0.11978707
0.11813338
0.12384093
0.12303391
0.12556041
0.11240688
0.10689869
0.09663643
0.10296145
0.10779228
0.10240896
0.10088615
0.09868806
0.09806173
0.10283608
0.10229777
0.10003123
0.09688425
0.08252698
0.05968829
0.04112069
0.03519405
0.03400884
0.03325123
0.03223951
0.03023079
0.02829677
0.02688101
0.02536583
0.02465217
0.02402170
0.02374381
0.02358696
0.02366312
0.02386579
0.02403194
0.02452874
0.02468708
0.02504560
0.02546662
0.02563260
0.02567208
0.02559818
0.02579092
0.02590688
0.02608438
0.02641235
0.02691185
0.02755062
0.02825841
0.02922684
0.03034527
0.03171798
0.03352683
0.03576077
0.03807646
0.04036776
0.04258327
0.04477390
0.04692235
0.04905955
0.05115227
0.05305163
0.05481085
0.05648463
0.05812880
0.05957209
0.06084740
0.06178042
0.06257071
0.06363073
0.06463046
0.06539140
0.06601648
0.06679193
0.06778899
0.06838906
0.06875664
0.06915572
0.06947627
0.06971346
0.06970307
0.06991340
0.07019707
0.07053905
0.07106665
0.07163986
0.07207011
0.07216225
0.07256849
0.07294171
0.07347335
0.07423230
0.07482171
0.07567903
0.07722237
0.07925498
0.08145852
0.08407911
0.08687424
0.08961549
0.09282885
0.09593243
0.09934324
0.10226994
0.10525462
0.10782288
0.11088951
0.11327509
0.11657102
0.11838783
0.11949727
0.12208931
0.12223974
0.12279271
0.12437511
0.12247178
0.12354932
0.12541073
0.12289609
0.12956968
0.12429819
0.12720056
0.13523342
0.12904581
0.13082582
0.12261261
0.11254594
0.11551548
0.11623919
0.11101944
0.10677293
0.10429583
0.10329372
0.10617352
0.10499074
0.10253257
0.10123146
0.09008205
0.06868492
0.04727992
0.03839497
0.03623922
0.03531904
0.03372665
0.03178246
0.02973959
0.02828370
0.02678507
0.02590195
0.02522630
0.02499628
0.02468459
0.02475444
0.02492160
0.02498985
0.02539359
0.02557589
0.02576163
0.02605397
0.02618325
0.02615419
0.02608879
0.02624102
0.02634408
0.02657586
0.02694450
0.02746675
0.02814490
0.02894429
0.03001106
0.03122624
0.03270882
0.03461637
0.03692418
0.03927919
0.04164025
0.04394237
0.04620073
0.04839029
0.05057048
0.05268994
0.05463068
0.05641563
0.05807883
0.05971296
0.06115181
0.06244927
0.06343387
0.06428712
0.06540982
0.06640392
0.06714578
0.06779048
0.06854816
0.06952697
0.07017520
0.07053562
0.07094141
0.07125089
0.07150705
0.07154155
0.07175178
0.07204425
0.07241547
0.07295646
0.07354631
0.07396821
0.07407323
0.07450899
0.07489312
0.07541009
0.07618329
0.07679240
0.07768152
0.07926273
0.08124682
0.08344900
0.08616662
0.08898843
0.09187959
0.09516798
0.09840418
0.10199844
0.10505275
0.10806794
0.11100494
0.11386794
0.11689657
0.11959449
0.12147592
0.12366078
0.12639605
0.12615041
0.12760499
0.12895921
0.12845733
0.12941548
0.13087164
0.12757292
0.13662657
0.13167570
0.13429545
0.14206316
0.13376527
0.14337326
0.13403265
0.12519269
0.12473721
0.12181135
0.11645744
0.11120980
0.10869076
0.10726036
0.10937120
0.10776097
0.10492487
0.10308009
0.09618486
0.07783327
0.05408605
0.04211387
0.03885665
0.03729600
0.03524861
0.03314478
0.03099502
0.02955192
0.02791884
0.02710478
0.02626272
0.02604175
0.02566787
0.02564688
0.02579736
0.02576794
0.02608058
0.02626367
0.02636063
0.02655173
0.02655590
0.02652267
0.02645366
0.02658801
0.02670541
0.02696338
0.02737710
0.02794599
0.02868459
0.02959222
0.03076861
0.03206496
0.03365755
0.03565276
0.03802612
0.04042286
0.04285517
0.04523931
0.04754809
0.04978212
0.05200105
0.05413975
0.05611960
0.05793516
0.05959588
0.06121337
0.06263565
0.06396192
0.06499333
0.06590724
0.06706696
0.06803644
0.06877565
0.06944480
0.07019285
0.07110408
0.07180560
0.07217569
0.07255948
0.07285621
0.07311969
0.07322247
0.07344485
0.07370543
0.07410951
0.07463457
0.07523272
0.07565832
0.07579435
0.07623742
0.07659615
0.07710578
0.07786985
0.07849039
0.07942101
0.08103762
0.08295963
0.08514860
0.08796011
0.09081851
0.09377545
0.09717115
0.10051318
0.10407256
0.10721717
0.11042973
0.11350972
0.11650337
0.11909573
0.12238927
0.12431966
0.12723932
0.12926187
0.12948395
0.13245895
0.13263458
0.13430207
0.13404103
0.13590345
0.13332906
0.13719213
0.13967729
0.13943593
0.14187602
0.14139606
0.15081665
0.14233953
0.13336005
0.13039081
0.12551476
0.12042181
0.11473111
0.11220198
0.11061492
0.11221029
0.11046370
0.10734610
0.10434986
0.10081075
0.08655213
0.06146858
0.04657774
0.04181415
0.03936568
0.03702977
0.03450149
0.03231940
0.03071633
0.02883461
0.02818831
0.02708840
0.02691079
0.02648471
0.02640779
0.02643633
0.02649034
0.02662493
0.02670493
0.02683120
0.02692483
0.02692386
0.02681613
0.02671424
0.02683998
0.02700877
0.02730786
0.02780744
0.02842795
0.02922597
0.03022098
0.03149788
0.03289117
0.03458782
0.03666168
0.03909383
0.04154489
0.04404447
0.04648805
0.04884242
0.05111640
0.05337560
0.05552851
0.05753746
0.05938665
0.06105038
0.06265541
0.06405748
0.06542360
0.06651113
0.06748784
0.06864820
0.06957805
0.07032374
0.07101523
0.07175461
0.07257544
0.07333690
0.07370705
0.07406496
0.07436308
0.07462105
0.07478256
0.07502095
0.07523797
0.07567296
0.07616407
0.07675739
0.07719713
0.07738305
0.07780074
0.07811267
0.07861025
0.07936876
0.07997234
0.08095120
0.08258898
0.08446785
0.08666868
0.08953281
0.09237499
0.09543353
0.09880208
0.10226448
0.10579486
0.10896874
0.11231622
0.11549408
0.11847325
0.12128045
0.12439166
0.12706942
0.12921290
0.13158864
0.13352135
0.13543073
0.13591796
0.13828734
0.14035568
0.13993742
0.14243212
0.14262470
0.14405318
0.14536570
0.14804501
0.14862767
0.15317792
0.14896214
0.13933807
0.13519073
0.12848588
0.12243363
0.11742612
0.11493063
0.11342167
0.11460046
0.11282598
0.10995381
0.10663834
0.10396485
0.09461943
0.06926039
0.05191240
0.04528299
0.04168777
0.03888065
0.03604647
0.03373867
0.03197551
0.02989400
0.02917647
0.02806942
0.02767730
0.02723102
0.02705935
0.02701920
0.02705903
0.02704711
0.02707359
0.02714143
0.02724230
0.02721459
0.02708913
0.02695049
0.02705920
0.02727801
0.02764016
0.02822176
0.02892405
0.02977142
0.03086212
0.03221781
0.03371326
0.03550380
0.03767609
0.04015267
0.04267385
0.04521487
0.04770223
0.05011585
0.05242350
0.05471146
0.05686935
0.05891433
0.06078397
0.06246804
0.06406562
0.06545676
0.06685790
0.06801795
0.06906390
0.07019737
0.07108143
0.07182994
0.07252749
0.07324725
0.07400303
0.07479747
0.07515686
0.07550756
0.07582024
0.07605620
0.07625291
0.07649792
0.07670392
0.07713463
0.07759549
0.07815632
0.07863039
0.07887781
0.07924355
0.07949688
0.07996896
0.08071499
0.08131095
0.08232371
0.08397210
0.08582820
0.08807024
0.09088478
0.09371999
0.09682454
0.10027868
0.10367728
0.10713250
0.11040012
0.11379576
0.11706806
0.12014648
0.12307273
0.12638383
0.12904116
0.13130151
0.13345838
0.13573520
0.13774950
0.13943364
0.14078015
0.14193237
0.14298558
0.14772474
0.14519203
0.14566839
0.14798195
0.14934015
0.15170784
0.15075642
0.15299240
0.14331370
0.13785281
0.13063696
0.12441211
0.11959419
0.11694949
0.11561738
0.11620013
0.11453060
0.11205868
0.10900382
0.10604571
0.10105968
0.07764538
0.05792879
0.04925785
0.04435725
0.04094142
0.03780573
0.03518334
0.03319301
0.03109222
0.03012979
0.02898994
0.02842149
0.02790329
0.02768581
0.02753677
0.02750341
0.02743891
0.02734600
0.02738002
0.02743367
0.02743029
0.02732047
0.02719188
0.02729787
0.02755582
0.02796426
0.02864253
0.02941355
0.03032742
0.03150199
0.03294694
0.03453890
0.03642326
0.03870291
0.04122523
0.04382438
0.04637317
0.04889832
0.05138086
0.05374652
0.05601487
0.05818685
0.06025345
0.06215095
0.06386572
0.06546894
0.06686679
0.06830079
0.06952654
0.07064620
0.07173677
0.07259441
0.07332365
0.07400354
0.07468437
0.07542025
0.07621155
0.07656156
0.07691323
0.07725587
0.07746405
0.07767698
0.07792074
0.07814633
0.07853814
0.07896576
0.07947342
0.07999071
0.08029733
0.08060099
0.08079967
0.08122540
0.08195807
0.08255054
0.08356216
0.08523389
0.08707506
0.08938772
0.09208366
0.09493015
0.09808799
0.10151796
0.10485718
0.10824955
0.11151825
0.11505407
0.11835838
0.12150209
0.12456303
0.12772772
0.13054450
0.13273999
0.13517358
0.13750285
0.13943852
0.14158159
0.14350796
0.14365411
0.14497144
0.14719125
0.14696247
0.14737786
0.14848373
0.15137368
0.15483718
0.14718581
0.15444044
0.14638035
0.13946364
0.13220421
0.12622762
0.12117768
0.11836177
0.11711618
0.11696857
0.11548598
0.11324009
0.11116992
0.10770988
0.10613564
0.08637249
0.06443037
0.05358876
0.04742774
0.04328163
0.03969703
0.03662248
0.03444016
0.03227144
0.03103765
0.02984670
0.02914877
0.02850314
0.02825880
0.02800378
0.02789467
0.02776126
0.02761088
0.02755713
0.02758579
0.02758337
0.02747978
0.02740495
0.02751859
0.02781506
0.02830574
0.02906239
0.02992286
0.03090379
0.03216755
0.03369656
0.03539038
0.03736295
0.03974391
0.04231764
0.04499328
0.04753258
0.05009323
0.05264148
0.05508516
0.05730938
0.05950868
0.06157419
0.06351143
0.06525745
0.06687452
0.06830096
0.06977321
0.07105299
0.07223913
0.07330012
0.07414101
0.07481967
0.07545558
0.07610636
0.07684016
0.07761376
0.07797050
0.07833631
0.07870419
0.07888442
0.07907672
0.07932272
0.07957684
0.07992839
0.08031352
0.08075435
0.08128388
0.08164914
0.08191582
0.08205281
0.08242540
0.08313952
0.08370831
0.08472204
0.08641268
0.08827234
0.09062313
0.09313543
0.09604377
0.09917531
0.10258997
0.10593201
0.10916512
0.11250136
0.11600892
0.11937149
0.12255459
0.12565729
0.12871521
0.13171719
0.13415439
0.13660188
0.13838374
0.14084524
0.14295552
0.14520564
0.14482298
0.14808921
0.14746258
0.15010663
0.15054755
0.15028262
0.15354977
0.15572667
0.14665153
0.15471497
0.14954790
0.14062055
0.13351213
0.12776828
0.12233420
0.11928911
0.11792866
0.11735225
0.11585150
0.11379740
0.11242605
0.10966397
0.10987146
0.09508121
0.07136189
0.05838732
0.05090999
0.04585376
0.04168404
0.03821236
0.03576151
0.03343250
0.03197943
0.03071419
0.02987780
0.02912015
0.02878918
0.02848966
0.02822456
0.02801010
0.02785781
0.02775513
0.02773939
0.02771310
0.02764897
0.02760471
0.02775297
0.02809924
0.02866931
0.02950432
0.03046279
0.03151079
0.03285731
0.03447988
0.03627565
0.03834224
0.04080705
0.04343852
0.04617973
0.04871245
0.05130020
0.05389835
0.05641813
0.05863669
0.06085797
0.06291975
0.06490198
0.06666629
0.06829906
0.06977159
0.07128939
0.07263312
0.07385093
0.07490943
0.07571944
0.07636016
0.07690803
0.07754924
0.07828343
0.07901400
0.07942276
0.07978814
0.08018755
0.08031414
0.08046979
0.08072373
0.08097886
0.08131403
0.08167634
0.08202193
0.08254938
0.08296998
0.08318878
0.08331523
0.08363107
0.08427362
0.08480816
0.08585967
0.08753723
0.08945407
0.09180023
0.09409083
0.09700743
0.10013606
0.10353925
0.10682623
0.10992801
0.11328233
0.11678500
0.12008909
0.12331100
0.12644266
0.12941924
0.13256808
0.13536290
0.13762410
0.13935573
0.14197364
0.14377738
0.14579231
0.14704075
0.14976880
0.14828484
0.15156758
0.15312656
0.15279160
0.15346646
0.15273569
0.14678099
0.15330935
0.15099578
0.14200285
0.13468104
0.12888656
0.12318665
0.11985007
0.11840860
0.11732365
0.11584310
0.11397912
0.11296675
0.11150306
0.11244396
0.10320224
0.07873692
0.06373368
0.05480655
0.04877647
0.04390021
0.04001944
0.03721256
0.03470069
0.03299584
0.03155023
0.03061575
0.02978632
0.02930579
0.02892443
0.02857223
0.02829209
0.02810099
0.02795471
0.02790789
0.02787969
0.02782319
0.02784552
0.02803101
0.02844910
0.02907167
0.02998837
0.03103007
0.03215555
0.03358311
0.03529718
0.03720474
0.03937598
0.04190032
0.04459522
0.04738901
0.04991973
0.05253668
0.05518511
0.05774935
0.06002023
0.06225604
0.06432057
0.06635749
0.06812915
0.06976307
0.07129711
0.07286938
0.07427614
0.07552370
0.07657978
0.07734058
0.07795564
0.07841137
0.07904810
0.07977695
0.08045647
0.08091632
0.08127549
0.08172092
0.08179129
0.08188822
0.08214557
0.08239401
0.08271407
0.08305095
0.08331759
0.08382574
0.08427371
0.08443664
0.08460698
0.08486230
0.08537919
0.08589831
0.08699557
0.08865721
0.09062126
0.09292955
0.09503272
0.09784865
0.10099084
0.10435246
0.10762220
0.11056641
0.11392920
0.11734496
0.12062807
0.12379465
0.12698548
0.13009479
0.13324384
0.13600568
0.13839510
0.14038692
0.14286258
0.14413060
0.14696943
0.14873386
0.15019047
0.14954492
0.15381008
0.15380407
0.15499214
0.15519005
0.14947882
0.14841308
0.15070342
0.15264961
0.14295941
0.13579089
0.12959343
0.12384910
0.12019419
0.11853551
0.11717388
0.11566377
0.11382011
0.11285441
0.11275905
0.11409940
0.11010743
0.08662764
0.06976222
0.05919960
0.05202163
0.04645829
0.04201462
0.03878816
0.03611013
0.03408255
0.03244583
0.03138545
0.03043449
0.02985030
0.02936969
0.02894622
0.02857979
0.02835182
0.02816674
0.02810095
0.02805799
0.02805523
0.02812351
0.02836771
0.02882968
0.02952754
0.03051784
0.03164475
0.03284323
0.03436532
0.03616807
0.03818413
0.04046503
0.04303255
0.04578337
0.04861884
0.05116675
0.05380536
0.05650479
0.05911105
0.06145817
0.06370868
0.06579634
0.06785581
0.06967139
0.07128513
0.07290193
0.07452593
0.07598627
0.07726421
0.07832115
0.07902765
0.07961210
0.08001057
0.08063557
0.08133548
0.08198111
0.08248213
0.08283240
0.08329747
0.08333503
0.08336635
0.08362471
0.08386126
0.08417447
0.08445352
0.08467902
0.08513637
0.08556454
0.08570543
0.08590290
0.08608236
0.08652375
0.08703364
0.08814388
0.08979696
0.09175982
0.09401093
0.09598510
0.09866441
0.10178834
0.10506446
0.10828853
0.11115004
0.11442736
0.11778762
0.12099437
0.12422263
0.12737002
0.13055974
0.13362854
0.13640083
0.13890439
0.14099259
0.14336885
0.14488636
0.14808591
0.14988713
0.15126573
0.15067300
0.15482550
0.15419699
0.15497463
0.15617205
0.15243435
0.15206163
0.14939784
0.15195513
0.14377026
0.13666873
0.13014509
0.12438331
0.12044007
0.11852522
0.11691107
0.11533568
0.11352662
0.11251984
0.11315110
0.11526536
0.11571267
0.09492048
0.07639028
0.06410602
0.05573054
0.04932225
0.04424364
0.04054729
0.03750042
0.03528737
0.03344214
0.03220267
0.03113859
0.03042842
0.02984643
0.02932803
0.02894149
0.02864971
0.02840772
0.02831669
0.02826844
0.02830687
0.02844611
0.02874398
0.02926691
0.03003278
0.03111057
0.03230224
0.03357984
0.03519750
0.03710672
0.03922105
0.04159592
0.04421448
0.04700474
0.04987814
0.05247892
0.05513185
0.05786505
0.06053192
0.06295384
0.06521999
0.06735663
0.06941149
0.07128420
0.07290590
0.07459181
0.07624323
0.07774949
0.07905840
0.08011951
0.08080214
0.08133741
0.08172385
0.08231403
0.08296883
0.08357868
0.08410834
0.08446045
0.08491913
0.08493917
0.08493044
0.08517836
0.08540074
0.08571464
0.08591098
0.08608337
0.08650855
0.08687980
0.08699721
0.08720325
0.08729162
0.08771528
0.08820061
0.08929553
0.09092909
0.09285606
0.09502420
0.09691970
0.09949211
0.10254204
0.10571279
0.10884039
0.11161781
0.11482590
0.11811383
0.12127958
0.12447823
0.12759768
0.13086058
0.13382354
0.13653341
0.13927381
0.14132719
0.14368099
0.14549125
0.14859560
0.15064574
0.15196637
0.15332538
0.15501679
0.15520101
0.15537055
0.15572649
0.15780618
0.15800888
0.15009148
0.15101999
0.14433767
0.13721225
0.13066123
0.12485437
0.12061564
0.11841220
0.11653344
0.11484767
0.11307118
0.11210890
0.11274072
0.11591492
0.11990202
0.10322124
0.08346667
0.06954132
0.05992151
0.05259169
0.04679804
0.04254891
0.03912544
0.03664385
0.03457129
0.03309504
0.03189368
0.03104332
0.03039102
0.02978598
0.02933636
0.02899467
0.02870115
0.02859281
0.02852619
0.02861434
0.02880807
0.02917647
0.02977309
0.03061674
0.03177222
0.03301950
0.03438196
0.03608634
0.03811314
0.04031126
0.04277191
0.04544227
0.04828442
0.05117671
0.05385259
0.05653201
0.05928832
0.06201362
0.06451000
0.06680231
0.06898965
0.07105399
0.07296953
0.07462599
0.07636197
0.07802108
0.07953095
0.08090531
0.08195184
0.08264562
0.08316397
0.08356596
0.08407917
0.08469968
0.08525801
0.08581278
0.08616508
0.08661463
0.08659090
0.08659041
0.08680476
0.08702900
0.08731098
0.08743176
0.08754333
0.08796107
0.08825089
0.08831747
0.08852553
0.08853726
0.08889390
0.08940385
0.09046747
0.09199680
0.09390845
0.09601621
0.09786041
0.10030891
0.10323136
0.10631494
0.10931235
0.11201647
0.11515597
0.11833725
0.12141779
0.12460235
0.12767998
0.13099990
0.13396362
0.13665587
0.13911676
0.14148959
0.14416532
0.14597642
0.14882067
0.15057677
0.15279312
0.15394023
0.15538120
0.15566903
0.15567060
0.15648313
0.15788313
0.16138280
0.15099339
0.15053970
0.14476905
0.13755028
0.13117252
0.12526634
0.12075360
0.11821784
0.11603260
0.11422228
0.11244589
0.11158938
0.11204884
0.11622290
0.12270469
0.11113533
0.09091920
0.07554068
0.06467805
0.05627030
0.04968413
0.04482322
0.04097035
0.03811352
0.03583574
0.03414501
0.03273203
0.03176051
0.03099519