/*--------------------------------*- C++ -*----------------------------------*\
  =========                 |
  \\      /  F ield         | OpenFOAM: The Open Source CFD Toolbox
   \\    /   O peration     | Website:  https://openfoam.org
    \\  /    A nd           | Version:  7
     \\/     M anipulation  |
\*---------------------------------------------------------------------------*/
FoamFile
{
    version     2.0;
    format      ascii;
    class       volVectorField;
    location    "0";
    object      U_LES;
}
// * * * * * * * * * * * * * * * * * * * * * * * * * * * * * * * * * * * * * //

dimensions      [0 1 -1 0 0 0 0];

internalField   nonuniform List<vector>
15600
(
(0.12690505 -0.00074069 0.00000000)
(0.15335636 -0.00183987 0.00000000)
(0.14908961 -0.00146539 0.00000000)
(0.05259523 -0.00032081 0.00000000)
(0.01485525 -0.00112189 0.00000000)
(-0.01279485 -0.00118448 0.00000000)
(-0.00756468 0.00580020 0.00000000)
(-0.01393273 0.00985551 0.00000000)
(-0.01516137 0.01184439 0.00000000)
(-0.02418765 0.01873952 0.00000000)
(-0.02361995 0.01823275 0.00000000)
(-0.01675147 0.01282372 0.00000000)
(-0.00892039 0.00683095 0.00000000)
(-0.01209730 0.01036576 0.00000000)
(-0.00527565 0.00393831 0.00000000)
(-0.00940708 0.00765204 0.00000000)
(-0.00512269 0.00369103 0.00000000)
(-0.00945574 0.00698084 0.00000000)
(-0.00533247 0.00274037 0.00000000)
(-0.00940332 0.00659922 0.00000000)
(-0.00417229 0.00243970 0.00000000)
(-0.00981932 0.00667773 0.00000000)
(-0.01207375 0.00899401 0.00000000)
(-0.00656920 0.00486699 0.00000000)
(-0.01256286 0.00825970 0.00000000)
(-0.01642104 0.01057935 0.00000000)
(-0.01827408 0.01342321 0.00000000)
(-0.01200672 0.00921610 0.00000000)
(-0.02390902 0.01452952 0.00000000)
(-0.01528979 0.00906121 0.00000000)
(-0.02834706 0.01759412 0.00000000)
(-0.01653276 0.00949828 0.00000000)
(-0.02813908 0.01519514 0.00000000)
(-0.02830663 0.01395635 0.00000000)
(-0.02648436 0.01014169 0.00000000)
(-0.02714542 0.01311364 0.00000000)
(-0.02124035 0.00356119 0.00000000)
(-0.02851894 0.00148259 0.00000000)
(-0.02666625 0.00324731 0.00000000)
(-0.02962662 0.00056532 0.00000000)
(-0.02478133 0.00011039 0.00000000)
(-0.02808751 0.00012344 0.00000000)
(-0.03292463 0.00011279 0.00000000)
(-0.03685276 0.00010201 0.00000000)
(-0.04033097 0.00008464 0.00000000)
(-0.04341842 0.00006719 0.00000000)
(-0.04619029 0.00005160 0.00000000)
(-0.04747359 0.00005191 0.00000000)
(-0.04951145 0.00003591 0.00000000)
(-0.05047184 0.00001822 0.00000000)
(-0.05090389 0.00000862 0.00000000)
(-0.05132713 0.00000762 0.00000000)
(-0.05118142 -0.00000196 0.00000000)
(-0.05045714 -0.00001624 0.00000000)
(-0.05029424 -0.00000763 0.00000000)
(-0.04973491 -0.00001491 0.00000000)
(-0.04858348 -0.00002499 0.00000000)
(-0.04785195 -0.00002336 0.00000000)
(-0.04718125 -0.00002523 0.00000000)
(-0.04539260 -0.00003202 0.00000000)
(-0.04473696 -0.00003189 0.00000000)
(-0.04332144 -0.00004175 0.00000000)
(-0.04148709 -0.00003817 0.00000000)
(-0.04057819 -0.00002023 0.00000000)
(-0.03906198 -0.00003648 0.00000000)
(-0.03752589 -0.00003121 0.00000000)
(-0.03604946 -0.00003281 0.00000000)
(-0.03503404 -0.00002283 0.00000000)
(-0.03416375 -0.00002020 0.00000000)
(-0.03321636 -0.00002016 0.00000000)
(-0.03233178 -0.00001823 0.00000000)
(-0.03136269 -0.00002326 0.00000000)
(-0.03053358 -0.00002638 0.00000000)
(-0.02946763 -0.00001411 0.00000000)
(-0.02907254 -0.00000801 0.00000000)
(-0.02891677 -0.00000218 0.00000000)
(-0.02861838 0.00001368 0.00000000)
(-0.02955169 0.00002031 0.00000000)
(-0.03067816 0.00004280 0.00000000)
(-0.03451623 -0.00001226 0.00000000)
(-0.04491460 -0.00123502 0.00000000)
(-0.02761121 -0.00093659 0.00000000)
(-0.01844188 -0.00570550 0.00000000)
(-0.01910567 -0.00314167 0.00000000)
(0.00004837 -0.00091480 0.00000000)
(-0.00505046 -0.00352570 0.00000000)
(-0.00328753 -0.00256467 0.00000000)
(-0.00050059 -0.00030804 0.00000000)
(0.00497799 0.00133137 0.00000000)
(-0.00057284 -0.00016192 0.00000000)
(0.00250414 0.00148768 0.00000000)
(0.00072114 0.00043614 0.00000000)
(0.00002698 0.00002448 0.00000000)
(0.00015364 0.00014150 0.00000000)
(-0.00066987 -0.00032701 0.00000000)
(-0.00051760 -0.00028763 0.00000000)
(-0.00067818 -0.00048099 0.00000000)
(0.00075000 0.00036749 0.00000000)
(-0.00090899 -0.00066597 0.00000000)
(-0.00476389 -0.00298047 0.00000000)
(0.00120921 0.00077891 0.00000000)
(-0.00840555 -0.00526297 0.00000000)
(-0.00098597 -0.00080873 0.00000000)
(0.00276170 0.00205580 0.00000000)
(0.00292053 -0.00282418 0.00000000)
(-0.00793018 -0.00565264 0.00000000)
(0.00398233 0.00284917 0.00000000)
(-0.02780706 -0.02100903 0.00000000)
(-0.01118547 -0.00864795 0.00000000)
(-0.00088551 -0.00071556 0.00000000)
(-0.00978837 -0.00760861 0.00000000)
(-0.02159355 -0.01486105 0.00000000)
(-0.01503365 -0.01002654 0.00000000)
(-0.07268708 -0.03032748 0.00000000)
(0.00673200 0.03142641 0.00000000)
(0.08515677 0.01306311 0.00000000)
(0.06682538 0.00327571 0.00000000)
(0.11280127 0.00413484 0.00000000)
(0.11194919 0.00016571 0.00000000)
(0.11209360 -0.00015933 0.00000000)
(0.17050894 -0.00128332 0.00000000)
(0.20260728 -0.00264909 0.00000000)
(0.20452048 -0.00220851 0.00000000)
(0.10497267 -0.00195643 0.00000000)
(0.03220387 -0.00269907 0.00000000)
(-0.01342061 -0.00038518 0.00000000)
(-0.01180443 0.00924946 0.00000000)
(-0.01968723 0.01353443 0.00000000)
(-0.02306358 0.01792832 0.00000000)
(-0.03183735 0.02453102 0.00000000)
(-0.03093200 0.02378081 0.00000000)
(-0.02433452 0.01864113 0.00000000)
(-0.01585524 0.01215714 0.00000000)
(-0.01698592 0.01427624 0.00000000)
(-0.01156585 0.00872988 0.00000000)
(-0.01529352 0.01279257 0.00000000)
(-0.01115556 0.00838234 0.00000000)
(-0.01594572 0.01225483 0.00000000)
(-0.01339452 0.00945649 0.00000000)
(-0.01749307 0.01279681 0.00000000)
(-0.01485129 0.01004549 0.00000000)
(-0.02079113 0.01481893 0.00000000)
(-0.02341661 0.01931961 0.00000000)
(-0.02309365 0.01666880 0.00000000)
(-0.02917761 0.02036033 0.00000000)
(-0.03590744 0.02533161 0.00000000)
(-0.03576172 0.03114719 0.00000000)
(-0.04059479 0.02837007 0.00000000)
(-0.05102066 0.03260808 0.00000000)
(-0.04721305 0.02882734 0.00000000)
(-0.05698920 0.03597234 0.00000000)
(-0.05405180 0.03187216 0.00000000)
(-0.06413329 0.03223045 0.00000000)
(-0.06413746 0.03157219 0.00000000)
(-0.06515495 0.02283241 0.00000000)
(-0.06616626 0.02709220 0.00000000)
(-0.06642536 0.01535377 0.00000000)
(-0.06801080 0.00947846 0.00000000)
(-0.07151720 0.00990394 0.00000000)
(-0.06606383 0.00237767 0.00000000)
(-0.07111811 0.00112316 0.00000000)
(-0.08335217 0.00093112 0.00000000)
(-0.09607009 0.00077629 0.00000000)
(-0.10612775 0.00069438 0.00000000)
(-0.11564530 0.00057369 0.00000000)
(-0.12325435 0.00047048 0.00000000)
(-0.12950318 0.00039765 0.00000000)
(-0.13447519 0.00030549 0.00000000)
(-0.13827810 0.00021858 0.00000000)
(-0.13959615 0.00011495 0.00000000)
(-0.14051780 0.00004168 0.00000000)
(-0.14138497 0.00001010 0.00000000)
(-0.14156442 -0.00004381 0.00000000)
(-0.13872035 -0.00013752 0.00000000)
(-0.13794546 -0.00009230 0.00000000)
(-0.13612406 -0.00012323 0.00000000)
(-0.13320957 -0.00017399 0.00000000)
(-0.13173344 -0.00018107 0.00000000)
(-0.12831494 -0.00019767 0.00000000)
(-0.12507839 -0.00021387 0.00000000)
(-0.12214347 -0.00024846 0.00000000)
(-0.11749281 -0.00031283 0.00000000)
(-0.11275291 -0.00027939 0.00000000)
(-0.10915473 -0.00021903 0.00000000)
(-0.10545835 -0.00027322 0.00000000)
(-0.10166832 -0.00024397 0.00000000)
(-0.09700013 -0.00023972 0.00000000)
(-0.09469767 -0.00018146 0.00000000)
(-0.09165243 -0.00018358 0.00000000)
(-0.08934651 -0.00016231 0.00000000)
(-0.08723016 -0.00015749 0.00000000)
(-0.08412871 -0.00019286 0.00000000)
(-0.08123294 -0.00019898 0.00000000)
(-0.07845710 -0.00010182 0.00000000)
(-0.07774024 -0.00007103 0.00000000)
(-0.07704909 -0.00001830 0.00000000)
(-0.07658911 0.00008489 0.00000000)
(-0.07891171 0.00013715 0.00000000)
(-0.08185559 0.00023090 0.00000000)
(-0.08444559 -0.00015066 0.00000000)
(-0.08003630 -0.00453102 0.00000000)
(-0.07295270 -0.00543148 0.00000000)
(-0.05728701 -0.01559500 0.00000000)
(-0.05651483 -0.01180927 0.00000000)
(-0.03767229 -0.01063366 0.00000000)
(-0.03295765 -0.01566517 0.00000000)
(-0.02638309 -0.01002042 0.00000000)
(-0.02228963 -0.01284544 0.00000000)
(-0.01217328 -0.00337530 0.00000000)
(-0.00680005 -0.00611134 0.00000000)
(-0.00515583 -0.00305606 0.00000000)
(-0.00927736 -0.00559923 0.00000000)
(-0.00111372 -0.00071169 0.00000000)
(0.00090636 0.00047914 0.00000000)
(-0.00023370 -0.00045355 0.00000000)
(0.00036655 0.00014723 0.00000000)
(-0.00044301 -0.00038611 0.00000000)
(0.00149938 0.00134331 0.00000000)
(0.00830188 0.00488153 0.00000000)
(-0.00453177 -0.00284937 0.00000000)
(0.00906180 0.00583722 0.00000000)
(-0.00489251 -0.00262727 0.00000000)
(0.01648352 0.01006814 0.00000000)
(0.00530507 0.00400924 0.00000000)
(0.01439911 0.00635485 0.00000000)
(-0.00761414 -0.00540669 0.00000000)
(0.01155335 0.00683918 0.00000000)
(-0.02463451 -0.01858236 0.00000000)
(0.01206346 0.00912453 0.00000000)
(0.05407432 0.04209249 0.00000000)
(0.04565731 0.03590527 0.00000000)
(-0.02271909 -0.01574045 0.00000000)
(0.00202975 0.00180555 0.00000000)
(-0.08523214 -0.03670321 0.00000000)
(0.04491103 0.05536457 0.00000000)
(0.15667599 0.02651612 0.00000000)
(0.13866520 0.00724919 0.00000000)
(0.16488079 0.00626385 0.00000000)
(0.15601915 0.00065431 0.00000000)
(0.15281969 -0.00020395 0.00000000)
(0.22254217 -0.00198952 0.00000000)
(0.25805292 -0.00369871 0.00000000)
(0.26528083 -0.00337745 0.00000000)
(0.16030897 -0.00326318 0.00000000)
(0.05661999 -0.00500295 0.00000000)
(-0.01064229 0.00038105 0.00000000)
(-0.01620068 0.01303584 0.00000000)
(-0.02635531 0.01734457 0.00000000)
(-0.03183147 0.02445722 0.00000000)
(-0.03968330 0.03040129 0.00000000)
(-0.03873075 0.02966451 0.00000000)
(-0.03219375 0.02464563 0.00000000)
(-0.02324893 0.01782661 0.00000000)
(-0.02211524 0.01889170 0.00000000)
(-0.01932908 0.01481188 0.00000000)
(-0.02132333 0.01790397 0.00000000)
(-0.01875081 0.01433588 0.00000000)
(-0.02367716 0.01852477 0.00000000)
(-0.02340212 0.01761361 0.00000000)
(-0.02730981 0.02059882 0.00000000)
(-0.02875926 0.02094333 0.00000000)
(-0.03393152 0.02504702 0.00000000)
(-0.03610037 0.03295578 0.00000000)
(-0.04327879 0.03192527 0.00000000)
(-0.05033173 0.03647717 0.00000000)
(-0.05720278 0.04208617 0.00000000)
(-0.05894091 0.05113051 0.00000000)
(-0.07181618 0.05056052 0.00000000)
(-0.07867601 0.05099782 0.00000000)
(-0.08203461 0.05112363 0.00000000)
(-0.08630289 0.05180706 0.00000000)
(-0.09373028 0.05528383 0.00000000)
(-0.09702325 0.04810448 0.00000000)
(-0.09998348 0.04626927 0.00000000)
(-0.10065090 0.03471415 0.00000000)
(-0.10210021 0.03729334 0.00000000)
(-0.10696183 0.02686050 0.00000000)
(-0.10427359 0.01792026 0.00000000)
(-0.10421406 0.01524327 0.00000000)
(-0.10501630 0.00531052 0.00000000)
(-0.11659214 0.00318283 0.00000000)
(-0.13435988 0.00269669 0.00000000)
(-0.15101796 0.00229322 0.00000000)
(-0.16513996 0.00193658 0.00000000)
(-0.17686769 0.00164525 0.00000000)
(-0.18629219 0.00133392 0.00000000)
(-0.19408282 0.00110869 0.00000000)
(-0.19950245 0.00083194 0.00000000)
(-0.20345482 0.00056251 0.00000000)
(-0.20570651 0.00026538 0.00000000)
(-0.20598180 0.00006080 0.00000000)
(-0.20510106 -0.00004526 0.00000000)
(-0.20329695 -0.00019518 0.00000000)
(-0.20088046 -0.00042384 0.00000000)
(-0.19758233 -0.00033551 0.00000000)
(-0.19444253 -0.00040000 0.00000000)
(-0.19108564 -0.00052794 0.00000000)
(-0.18664263 -0.00059965 0.00000000)
(-0.18209123 -0.00061457 0.00000000)
(-0.17676188 -0.00068521 0.00000000)
(-0.17142523 -0.00080103 0.00000000)
(-0.16528543 -0.00094250 0.00000000)
(-0.15858066 -0.00085119 0.00000000)
(-0.15287064 -0.00070853 0.00000000)
(-0.14735671 -0.00082542 0.00000000)
(-0.14148887 -0.00076193 0.00000000)
(-0.13658115 -0.00069298 0.00000000)
(-0.13186072 -0.00057105 0.00000000)
(-0.12772670 -0.00056619 0.00000000)
(-0.12396423 -0.00050987 0.00000000)
(-0.12000069 -0.00050625 0.00000000)
(-0.11587192 -0.00059653 0.00000000)
(-0.11169613 -0.00057801 0.00000000)
(-0.10879382 -0.00030015 0.00000000)
(-0.10688046 -0.00023048 0.00000000)
(-0.10557537 -0.00005994 0.00000000)
(-0.10606477 0.00021937 0.00000000)
(-0.10775060 0.00037699 0.00000000)
(-0.11029721 0.00055454 0.00000000)
(-0.11027403 -0.00059191 0.00000000)
(-0.10185088 -0.00788029 0.00000000)
(-0.09724563 -0.01190278 0.00000000)
(-0.08922934 -0.02273109 0.00000000)
(-0.08357509 -0.02175072 0.00000000)
(-0.08025068 -0.02429655 0.00000000)
(-0.07503295 -0.02893284 0.00000000)
(-0.07147433 -0.02522616 0.00000000)
(-0.04874510 -0.02775017 0.00000000)
(-0.05395113 -0.01582879 0.00000000)
(-0.02303698 -0.02028741 0.00000000)
(-0.02530821 -0.01536918 0.00000000)
(-0.02007764 -0.01418638 0.00000000)
(-0.01164796 -0.00751296 0.00000000)
(-0.00164816 -0.00036480 0.00000000)
(0.00341226 0.00036653 0.00000000)
(0.00426782 0.00225014 0.00000000)
(0.00635417 0.00384296 0.00000000)
(0.00706873 0.00812599 0.00000000)
(0.02103272 0.01354874 0.00000000)
(0.01100802 0.00759713 0.00000000)
(0.03288353 0.02149617 0.00000000)
(0.01362997 0.00987575 0.00000000)
(0.04384458 0.02995346 0.00000000)
(0.02046607 0.01514805 0.00000000)
(0.02584922 0.02103746 0.00000000)
(0.01194299 0.00856964 0.00000000)
(0.02824252 0.03116760 0.00000000)
(0.01331237 0.01032367 0.00000000)
(0.06839860 0.05198741 0.00000000)
(0.13809878 0.10714070 0.00000000)
(0.13409762 0.10499098 0.00000000)
(0.00637658 0.00547833 0.00000000)
(0.05131590 0.03657516 0.00000000)
(-0.06409173 -0.03093661 0.00000000)
(0.12299564 0.07994633 0.00000000)
(0.24421671 0.04381099 0.00000000)
(0.21741222 0.01424105 0.00000000)
(0.22747247 0.00868565 0.00000000)
(0.21054839 0.00151798 0.00000000)
(0.20264190 -0.00031012 0.00000000)
(0.28108943 -0.00282518 0.00000000)
(0.31904681 -0.00498545 0.00000000)
(0.32999587 -0.00514010 0.00000000)
(0.22944807 -0.00483919 0.00000000)
(0.08951364 -0.00824605 0.00000000)
(-0.00200652 0.00020511 0.00000000)
(-0.02048083 0.01686715 0.00000000)
(-0.03402099 0.02149099 0.00000000)
(-0.04065857 0.03068907 0.00000000)
(-0.04750579 0.03621682 0.00000000)
(-0.04662030 0.03560914 0.00000000)
(-0.03998504 0.03057047 0.00000000)
(-0.03234305 0.02475769 0.00000000)
(-0.02894766 0.02542094 0.00000000)
(-0.02789062 0.02172010 0.00000000)
(-0.02841161 0.02396073 0.00000000)
(-0.02794747 0.02184387 0.00000000)
(-0.03207592 0.02502718 0.00000000)
(-0.03368050 0.02609829 0.00000000)
(-0.03822345 0.02938205 0.00000000)
(-0.04309400 0.03279836 0.00000000)
(-0.04708739 0.03515325 0.00000000)
(-0.05207472 0.04701501 0.00000000)
(-0.06385859 0.04862554 0.00000000)
(-0.07021758 0.05176916 0.00000000)
(-0.07679256 0.05709614 0.00000000)
(-0.08337558 0.07066405 0.00000000)
(-0.09785063 0.07021634 0.00000000)
(-0.10142493 0.06616069 0.00000000)
(-0.10873045 0.06837240 0.00000000)
(-0.10952667 0.06624782 0.00000000)
(-0.12289164 0.06925816 0.00000000)
(-0.12318357 0.06086383 0.00000000)
(-0.12831855 0.05722505 0.00000000)
(-0.13011442 0.04741924 0.00000000)
(-0.13280661 0.04420395 0.00000000)
(-0.13708327 0.03393051 0.00000000)
(-0.13553188 0.02531838 0.00000000)
(-0.13640856 0.01834850 0.00000000)
(-0.14081001 0.00885403 0.00000000)
(-0.15672902 0.00579418 0.00000000)
(-0.17729985 0.00472206 0.00000000)
(-0.19602390 0.00406137 0.00000000)
(-0.21143380 0.00337036 0.00000000)
(-0.22398407 0.00282908 0.00000000)
(-0.23387987 0.00225908 0.00000000)
(-0.24144750 0.00182534 0.00000000)
(-0.24674784 0.00131943 0.00000000)
(-0.25009581 0.00083573 0.00000000)
(-0.25132596 0.00032524 0.00000000)
(-0.25039327 -0.00003404 0.00000000)
(-0.24864108 -0.00023156 0.00000000)
(-0.24605291 -0.00048770 0.00000000)
(-0.24209660 -0.00084712 0.00000000)
(-0.23781953 -0.00071995 0.00000000)
(-0.23350948 -0.00081579 0.00000000)
(-0.22894007 -0.00102155 0.00000000)
(-0.22323863 -0.00117250 0.00000000)
(-0.21734827 -0.00120082 0.00000000)
(-0.21097181 -0.00132210 0.00000000)
(-0.20419518 -0.00152786 0.00000000)
(-0.19652243 -0.00174832 0.00000000)
(-0.18856297 -0.00157957 0.00000000)
(-0.18152707 -0.00136859 0.00000000)
(-0.17454052 -0.00153878 0.00000000)
(-0.16765288 -0.00140452 0.00000000)
(-0.16160045 -0.00127722 0.00000000)
(-0.15591600 -0.00111672 0.00000000)
(-0.15043203 -0.00105372 0.00000000)
(-0.14566755 -0.00098638 0.00000000)
(-0.14077678 -0.00098234 0.00000000)
(-0.13572485 -0.00110065 0.00000000)
(-0.13088662 -0.00102882 0.00000000)
(-0.12740165 -0.00056802 0.00000000)
(-0.12481127 -0.00044499 0.00000000)
(-0.12335421 -0.00012654 0.00000000)
(-0.12340475 0.00033989 0.00000000)
(-0.12494509 0.00057949 0.00000000)
(-0.12636647 0.00072995 0.00000000)
(-0.12465236 -0.00125169 0.00000000)
(-0.11568545 -0.00972416 0.00000000)
(-0.11183406 -0.01594192 0.00000000)
(-0.10751159 -0.02426238 0.00000000)
(-0.09985491 -0.02703998 0.00000000)
(-0.09894507 -0.03180626 0.00000000)
(-0.09304910 -0.03341736 0.00000000)
(-0.08757654 -0.03301245 0.00000000)
(-0.06935948 -0.03933498 0.00000000)
(-0.06706500 -0.02853604 0.00000000)
(-0.04776542 -0.03151895 0.00000000)
(-0.04092555 -0.02592380 0.00000000)
(-0.02467909 -0.02089523 0.00000000)
(-0.01675526 -0.01199171 0.00000000)
(-0.00691616 -0.00060429 0.00000000)
(0.01052870 0.00301648 0.00000000)
(0.01601439 0.00894456 0.00000000)
(0.02105291 0.01326039 0.00000000)
(0.02296420 0.02302396 0.00000000)
(0.04590232 0.03122564 0.00000000)
(0.04063877 0.02766256 0.00000000)
(0.06507710 0.04659651 0.00000000)
(0.05123005 0.03614778 0.00000000)
(0.07895912 0.06148071 0.00000000)
(0.05911444 0.04384063 0.00000000)
(0.03758791 0.03915128 0.00000000)
(0.05635865 0.04067302 0.00000000)
(0.05854802 0.08088224 0.00000000)
(0.07888089 0.06040143 0.00000000)
(0.13499412 0.10106136 0.00000000)
(0.21732371 0.16605106 0.00000000)
(0.24112538 0.18749727 0.00000000)
(0.08310797 0.06148603 0.00000000)
(0.13723271 0.09670863 0.00000000)
(0.01904701 -0.00255904 0.00000000)
(0.24674869 0.10538082 0.00000000)
(0.34833646 0.06503431 0.00000000)
(0.31304651 0.02441102 0.00000000)
(0.30719331 0.01275551 0.00000000)
(0.27532822 0.00280127 0.00000000)
(0.26096179 -0.00042325 0.00000000)
(0.34347191 -0.00385722 0.00000000)
(0.38426376 -0.00645963 0.00000000)
(0.39803757 -0.00738704 0.00000000)
(0.30680324 -0.00701261 0.00000000)
(0.13248996 -0.01268632 0.00000000)
(0.01307655 -0.00093126 0.00000000)
(-0.02438443 0.02058133 0.00000000)
(-0.04229576 0.02576775 0.00000000)
(-0.04954453 0.03669129 0.00000000)
(-0.05502506 0.04180345 0.00000000)
(-0.05454969 0.04156480 0.00000000)
(-0.04850608 0.03698901 0.00000000)
(-0.04181427 0.03200351 0.00000000)
(-0.03612067 0.03526401 0.00000000)
(-0.03672063 0.02892073 0.00000000)
(-0.03585262 0.03132552 0.00000000)
(-0.03805889 0.03029500 0.00000000)
(-0.04077735 0.03154577 0.00000000)
(-0.04381926 0.03475830 0.00000000)
(-0.04864539 0.03725829 0.00000000)
(-0.05579887 0.04363840 0.00000000)
(-0.06097928 0.04641324 0.00000000)
(-0.06780039 0.05982253 0.00000000)
(-0.07976773 0.06204659 0.00000000)
(-0.08703294 0.06557085 0.00000000)
(-0.09470556 0.07187683 0.00000000)
(-0.10431926 0.08320330 0.00000000)
(-0.11626009 0.08452023 0.00000000)
(-0.12144744 0.08157681 0.00000000)
(-0.13124626 0.08357254 0.00000000)
(-0.13176991 0.08054008 0.00000000)
(-0.14488202 0.07977540 0.00000000)
(-0.14772978 0.07302671 0.00000000)
(-0.15237150 0.06648490 0.00000000)
(-0.15657221 0.05786273 0.00000000)
(-0.15860874 0.05084345 0.00000000)
(-0.16267926 0.04064628 0.00000000)
(-0.16269384 0.03111853 0.00000000)
(-0.16505955 0.02199721 0.00000000)
(-0.17319006 0.01266526 0.00000000)
(-0.19144811 0.00863675 0.00000000)
(-0.21292159 0.00705942 0.00000000)
(-0.23187555 0.00599625 0.00000000)
(-0.24706762 0.00492906 0.00000000)
(-0.25943622 0.00407793 0.00000000)
(-0.26875082 0.00319943 0.00000000)
(-0.27553784 0.00252296 0.00000000)
(-0.28031485 0.00174931 0.00000000)
(-0.28238544 0.00102129 0.00000000)
(-0.28268013 0.00029104 0.00000000)
(-0.28097673 -0.00023231 0.00000000)
(-0.27816939 -0.00055419 0.00000000)
(-0.27434382 -0.00091656 0.00000000)
(-0.26932363 -0.00139867 0.00000000)
(-0.26403076 -0.00125107 0.00000000)
(-0.25894983 -0.00135578 0.00000000)
(-0.25339138 -0.00165374 0.00000000)
(-0.24693173 -0.00189807 0.00000000)
(-0.23992500 -0.00194374 0.00000000)
(-0.23277276 -0.00212070 0.00000000)
(-0.22475103 -0.00242237 0.00000000)
(-0.21608622 -0.00271291 0.00000000)
(-0.20725326 -0.00248262 0.00000000)
(-0.19922534 -0.00219604 0.00000000)
(-0.19137063 -0.00239279 0.00000000)
(-0.18362130 -0.00218882 0.00000000)
(-0.17686857 -0.00197768 0.00000000)
(-0.17017747 -0.00181203 0.00000000)
(-0.16413515 -0.00166405 0.00000000)
(-0.15865197 -0.00158186 0.00000000)
(-0.15307928 -0.00156865 0.00000000)
(-0.14755220 -0.00171235 0.00000000)
(-0.14217346 -0.00154697 0.00000000)
(-0.13821930 -0.00091394 0.00000000)
(-0.13515808 -0.00072163 0.00000000)
(-0.13318475 -0.00023873 0.00000000)
(-0.13289534 0.00042067 0.00000000)
(-0.13375039 0.00071932 0.00000000)
(-0.13411509 0.00073213 0.00000000)
(-0.13109877 -0.00196795 0.00000000)
(-0.12367916 -0.01087864 0.00000000)
(-0.12086057 -0.01825441 0.00000000)
(-0.11692246 -0.02632105 0.00000000)
(-0.10948519 -0.02977202 0.00000000)
(-0.10585454 -0.03501788 0.00000000)
(-0.09723478 -0.03759525 0.00000000)
(-0.08886359 -0.03759587 0.00000000)
(-0.07585274 -0.04318890 0.00000000)
(-0.06705691 -0.03440981 0.00000000)
(-0.05856976 -0.03646635 0.00000000)
(-0.04455109 -0.02954315 0.00000000)
(-0.02487821 -0.02279842 0.00000000)
(-0.01509059 -0.01331559 0.00000000)
(-0.00419151 -0.00096789 0.00000000)
(0.01599598 0.00685088 0.00000000)
(0.02993915 0.01643596 0.00000000)
(0.04055815 0.02621736 0.00000000)
(0.04920512 0.04270428 0.00000000)
(0.07290740 0.05018039 0.00000000)
(0.07878729 0.05424774 0.00000000)
(0.10087623 0.07713600 0.00000000)
(0.10052923 0.07127812 0.00000000)
(0.12111459 0.10156177 0.00000000)
(0.11019946 0.08093751 0.00000000)
(0.07296838 0.09522924 0.00000000)
(0.11719156 0.08591103 0.00000000)
(0.07976722 0.10756006 0.00000000)
(0.15803789 0.12023029 0.00000000)
(0.23237029 0.17489175 0.00000000)
(0.29616320 0.22177751 0.00000000)
(0.34979854 0.26913355 0.00000000)
(0.20289494 0.14975267 0.00000000)
(0.25032736 0.17562441 0.00000000)
(0.17552938 0.04462662 0.00000000)
(0.38820451 0.13272037 0.00000000)
(0.46942252 0.09020286 0.00000000)
(0.42459179 0.03686613 0.00000000)
(0.39403824 0.01721327 0.00000000)
(0.34919998 0.00452470 0.00000000)
(0.32489556 -0.00057710 0.00000000)
(0.41223716 -0.00510784 0.00000000)
(0.45213319 -0.00806854 0.00000000)
(0.46772450 -0.00991585 0.00000000)
(0.38500207 -0.01009711 0.00000000)
(0.18626771 -0.01843055 0.00000000)
(0.03356739 -0.00335907 0.00000000)
(-0.02666186 0.02362447 0.00000000)
(-0.05035386 0.02995218 0.00000000)
(-0.05812791 0.04237363 0.00000000)
(-0.06201289 0.04701496 0.00000000)
(-0.06165517 0.04693952 0.00000000)
(-0.05713270 0.04348165 0.00000000)
(-0.05081746 0.03899207 0.00000000)
(-0.04415959 0.04372846 0.00000000)
(-0.04523172 0.03579009 0.00000000)
(-0.04288437 0.03924657 0.00000000)
(-0.04716134 0.03792036 0.00000000)
(-0.04926686 0.03846614 0.00000000)
(-0.05435250 0.04365704 0.00000000)
(-0.05886077 0.04577347 0.00000000)
(-0.06706693 0.05354656 0.00000000)
(-0.07361545 0.05739449 0.00000000)
(-0.08248710 0.07073016 0.00000000)
(-0.09367126 0.07426468 0.00000000)
(-0.10241742 0.07931587 0.00000000)
(-0.11058705 0.08514940 0.00000000)
(-0.12139741 0.09477536 0.00000000)
(-0.13271173 0.09733612 0.00000000)
(-0.13992267 0.09481114 0.00000000)
(-0.14938468 0.09588009 0.00000000)
(-0.15196587 0.09320935 0.00000000)
(-0.16246029 0.08943581 0.00000000)
(-0.16618147 0.08229295 0.00000000)
(-0.17225841 0.07478772 0.00000000)
(-0.17673484 0.06574695 0.00000000)
(-0.17961519 0.05700659 0.00000000)
(-0.18391236 0.04620253 0.00000000)
(-0.18602353 0.03554155 0.00000000)
(-0.19032071 0.02571612 0.00000000)
(-0.20092539 0.01605551 0.00000000)
(-0.22023922 0.01152826 0.00000000)
(-0.24143186 0.00943166 0.00000000)
(-0.25969882 0.00796620 0.00000000)
(-0.27437979 0.00648073 0.00000000)
(-0.28558835 0.00527360 0.00000000)
(-0.29410398 0.00408191 0.00000000)
(-0.29997416 0.00312724 0.00000000)
(-0.30330157 0.00206102 0.00000000)
(-0.30473473 0.00109960 0.00000000)
(-0.30392240 0.00013546 0.00000000)
(-0.30134081 -0.00054676 0.00000000)
(-0.29767526 -0.00100710 0.00000000)
(-0.29296373 -0.00147964 0.00000000)
(-0.28732868 -0.00205320 0.00000000)
(-0.28122529 -0.00190227 0.00000000)
(-0.27536011 -0.00201689 0.00000000)
(-0.26902379 -0.00240530 0.00000000)
(-0.26167088 -0.00274088 0.00000000)
(-0.25399257 -0.00282812 0.00000000)
(-0.24595548 -0.00304866 0.00000000)
(-0.23739443 -0.00343582 0.00000000)
(-0.22813260 -0.00380336 0.00000000)
(-0.21869180 -0.00351168 0.00000000)
(-0.20990571 -0.00314954 0.00000000)
(-0.20148066 -0.00335437 0.00000000)
(-0.19331872 -0.00307104 0.00000000)
(-0.18590084 -0.00276477 0.00000000)
(-0.17878866 -0.00262167 0.00000000)
(-0.17208256 -0.00236152 0.00000000)
(-0.16610688 -0.00226417 0.00000000)
(-0.15997451 -0.00224722 0.00000000)
(-0.15410933 -0.00239267 0.00000000)
(-0.14840667 -0.00211927 0.00000000)
(-0.14408157 -0.00133878 0.00000000)
(-0.14051004 -0.00105558 0.00000000)
(-0.13817937 -0.00039525 0.00000000)
(-0.13754778 0.00044328 0.00000000)
(-0.13757545 0.00075590 0.00000000)
(-0.13688140 0.00060076 0.00000000)
(-0.13322763 -0.00263780 0.00000000)
(-0.12697905 -0.01143972 0.00000000)
(-0.12468324 -0.01950113 0.00000000)
(-0.12127103 -0.02716646 0.00000000)
(-0.11336771 -0.03192584 0.00000000)
(-0.11093542 -0.03705292 0.00000000)
(-0.10132426 -0.04101502 0.00000000)
(-0.09127238 -0.04123076 0.00000000)
(-0.07979799 -0.04580268 0.00000000)
(-0.06767677 -0.03751436 0.00000000)
(-0.05707000 -0.03814068 0.00000000)
(-0.04217482 -0.03011261 0.00000000)
(-0.02412109 -0.02477038 0.00000000)
(-0.00905822 -0.01124182 0.00000000)
(0.00408851 0.00131562 0.00000000)
(0.02047688 0.01096481 0.00000000)
(0.04256075 0.02276670 0.00000000)
(0.05990963 0.03848302 0.00000000)
(0.07380043 0.05653079 0.00000000)
(0.09498297 0.06320409 0.00000000)
(0.11538853 0.08004663 0.00000000)
(0.13226648 0.10064436 0.00000000)
(0.14597421 0.10416069 0.00000000)
(0.16304694 0.13629401 0.00000000)
(0.16052766 0.11807959 0.00000000)
(0.12679502 0.14978408 0.00000000)
(0.18376834 0.13808884 0.00000000)
(0.13217636 0.14913774 0.00000000)
(0.23622601 0.17831430 0.00000000)
(0.33348527 0.25055503 0.00000000)
(0.38471056 0.28575507 0.00000000)
(0.45122480 0.34153793 0.00000000)
(0.34779759 0.25818537 0.00000000)
(0.38271682 0.26792153 0.00000000)
(0.36907281 0.10191784 0.00000000)
(0.53053363 0.16767558 0.00000000)
(0.60552660 0.11946237 0.00000000)
(0.55049957 0.05161213 0.00000000)
(0.49471769 0.02265669 0.00000000)
(0.43061144 0.00671274 0.00000000)
(0.39674209 -0.00081079 0.00000000)
(0.48366835 -0.00623748 0.00000000)
(0.52068477 -0.00974507 0.00000000)
(0.53612618 -0.01227857 0.00000000)
(0.46230830 -0.01376420 0.00000000)
(0.24934750 -0.02507319 0.00000000)
(0.05911110 -0.00558083 0.00000000)
(-0.02628108 0.02549076 0.00000000)
(-0.05699288 0.03371905 0.00000000)
(-0.06593532 0.04759772 0.00000000)
(-0.06859766 0.05194662 0.00000000)
(-0.06866448 0.05222669 0.00000000)
(-0.06478356 0.04928145 0.00000000)
(-0.05897665 0.04545623 0.00000000)
(-0.05381761 0.05174295 0.00000000)
(-0.05349605 0.04232384 0.00000000)
(-0.05017211 0.04591850 0.00000000)
(-0.05585212 0.04512691 0.00000000)
(-0.05758099 0.04598530 0.00000000)
(-0.06424488 0.05210170 0.00000000)
(-0.06867243 0.05478260 0.00000000)
(-0.07842432 0.06334393 0.00000000)
(-0.08605196 0.06817601 0.00000000)
(-0.09518641 0.07927760 0.00000000)
(-0.10692053 0.08570917 0.00000000)
(-0.11707951 0.09162751 0.00000000)
(-0.12579575 0.09785159 0.00000000)
(-0.13623990 0.10544600 0.00000000)
(-0.14653957 0.10746286 0.00000000)
(-0.15462934 0.10545743 0.00000000)
(-0.16332624 0.10518122 0.00000000)
(-0.16764705 0.10296086 0.00000000)
(-0.17691108 0.09768388 0.00000000)
(-0.18147144 0.09025915 0.00000000)
(-0.18776585 0.08154296 0.00000000)
(-0.19272083 0.07208918 0.00000000)
(-0.19679641 0.06224957 0.00000000)
(-0.20215604 0.05081968 0.00000000)
(-0.20590509 0.03962627 0.00000000)
(-0.21217784 0.02904710 0.00000000)
(-0.22439256 0.01958272 0.00000000)
(-0.24381622 0.01441470 0.00000000)
(-0.26402892 0.01179745 0.00000000)
(-0.28114757 0.00987137 0.00000000)
(-0.29473177 0.00797713 0.00000000)
(-0.30497060 0.00639134 0.00000000)
(-0.31233828 0.00487184 0.00000000)
(-0.31722191 0.00363247 0.00000000)
(-0.31953328 0.00225558 0.00000000)
(-0.31977766 0.00106560 0.00000000)
(-0.31823060 -0.00012858 0.00000000)
(-0.31485393 -0.00097496 0.00000000)
(-0.31037864 -0.00157762 0.00000000)
(-0.30507210 -0.00215294 0.00000000)
(-0.29885462 -0.00279734 0.00000000)
(-0.29226817 -0.00266742 0.00000000)
(-0.28581430 -0.00278317 0.00000000)
(-0.27866943 -0.00328152 0.00000000)
(-0.27066639 -0.00369280 0.00000000)
(-0.26252168 -0.00381877 0.00000000)
(-0.25399751 -0.00408413 0.00000000)
(-0.24488357 -0.00455160 0.00000000)
(-0.23515960 -0.00498439 0.00000000)
(-0.22538607 -0.00465352 0.00000000)
(-0.21603411 -0.00420997 0.00000000)
(-0.20719076 -0.00439229 0.00000000)
(-0.19877771 -0.00405052 0.00000000)
(-0.19087770 -0.00363445 0.00000000)
(-0.18343597 -0.00352112 0.00000000)
(-0.17635100 -0.00314380 0.00000000)
(-0.16986778 -0.00301783 0.00000000)
(-0.16346008 -0.00299395 0.00000000)
(-0.15721043 -0.00313870 0.00000000)
(-0.15131251 -0.00274428 0.00000000)
(-0.14660030 -0.00184331 0.00000000)
(-0.14258127 -0.00145471 0.00000000)
(-0.13978121 -0.00060528 0.00000000)
(-0.13871207 0.00039401 0.00000000)
(-0.13809076 0.00069843 0.00000000)
(-0.13644697 0.00032843 0.00000000)
(-0.13255430 -0.00325187 0.00000000)
(-0.12732248 -0.01177515 0.00000000)
(-0.12516259 -0.01999227 0.00000000)
(-0.12151541 -0.02750250 0.00000000)
(-0.11433227 -0.03293549 0.00000000)
(-0.10947202 -0.03787400 0.00000000)
(-0.10062826 -0.04172613 0.00000000)
(-0.09001103 -0.04319161 0.00000000)
(-0.07913786 -0.04617713 0.00000000)
(-0.06640103 -0.03973124 0.00000000)