/*--------------------------------*- C++ -*----------------------------------*\
  =========                 |
  \\      /  F ield         | OpenFOAM: The Open Source CFD Toolbox
   \\    /   O peration     | Website:  https://openfoam.org
    \\  /    A nd           | Version:  7
     \\/     M anipulation  |
\*---------------------------------------------------------------------------*/
FoamFile
{
    version     2.0;
    format      ascii;
    class       volVectorField;
    location    "0";
    object      U_LES;
}
// * * * * * * * * * * * * * * * * * * * * * * * * * * * * * * * * * * * * * //

dimensions      [0 1 -1 0 0 0 0];

internalField   nonuniform List<vector>
15600
(
(0.00440468 0.00045735 0.00000000)
(-0.00022916 0.00006552 0.00000000)
(-0.00183031 -0.00001673 0.00000000)
(-0.00828149 0.00557276 0.00000000)
(-0.00634735 0.00495591 0.00000000)
(-0.00525809 0.00407546 0.00000000)
(-0.00513139 0.00371732 0.00000000)
(-0.00355756 0.00243327 0.00000000)
(-0.00328206 0.00334973 0.00000000)
(-0.00424033 0.00453599 0.00000000)
(-0.00244179 0.00350928 0.00000000)
(-0.00365423 0.00218589 0.00000000)
(-0.00420952 0.00457327 0.00000000)
(-0.00627343 0.00804042 0.00000000)
(-0.00544899 0.00528657 0.00000000)
(-0.00791145 0.00896685 0.00000000)
(-0.00878563 0.00835773 0.00000000)
(-0.00996924 0.00621223 0.00000000)
(-0.01136445 0.00796984 0.00000000)
(-0.00815446 0.00539481 0.00000000)
(-0.00532897 0.00292691 0.00000000)
(-0.00263520 0.00132550 0.00000000)
(0.00097461 -0.00009041 0.00000000)
(0.00167183 -0.00051925 0.00000000)
(0.00153768 0.00022388 0.00000000)
(-0.00317507 0.00010510 0.00000000)
(-0.00730164 0.00008360 0.00000000)
(-0.01177104 0.00010395 0.00000000)
(-0.01626025 0.00009610 0.00000000)
(-0.02080668 0.00010109 0.00000000)
(-0.02526945 0.00010507 0.00000000)
(-0.02945505 0.00007990 0.00000000)
(-0.03303904 0.00007069 0.00000000)
(-0.03617850 0.00005765 0.00000000)
(-0.03885922 0.00005000 0.00000000)
(-0.04070459 0.00004035 0.00000000)
(-0.04234379 0.00002599 0.00000000)
(-0.04355850 0.00002785 0.00000000)
(-0.04487457 0.00002484 0.00000000)
(-0.04579717 0.00001698 0.00000000)
(-0.04647638 0.00001385 0.00000000)
(-0.04692398 0.00000596 0.00000000)
(-0.04689863 0.00000110 0.00000000)
(-0.04659398 -0.00001637 0.00000000)
(-0.04549056 -0.00002463 0.00000000)
(-0.04466032 -0.00001434 0.00000000)
(-0.04381688 -0.00002146 0.00000000)
(-0.04230238 -0.00002989 0.00000000)
(-0.04143097 -0.00002270 0.00000000)
(-0.03990639 -0.00002944 0.00000000)
(-0.03901206 -0.00001552 0.00000000)
(-0.03789400 -0.00001581 0.00000000)
(-0.03729349 -0.00002590 0.00000000)
(-0.03620681 -0.00001910 0.00000000)
(-0.03474923 -0.00003141 0.00000000)
(-0.03330021 -0.00002882 0.00000000)
(-0.03192097 -0.00002585 0.00000000)
(-0.03024400 -0.00003466 0.00000000)
(-0.02866068 -0.00003166 0.00000000)
(-0.02723758 -0.00003040 0.00000000)
(-0.02585760 -0.00002527 0.00000000)
(-0.02428776 -0.00004154 0.00000000)
(-0.02219746 -0.00004189 0.00000000)
(-0.01982554 -0.00005170 0.00000000)
(-0.01770175 -0.00003567 0.00000000)
(-0.01590504 -0.00003617 0.00000000)
(-0.01413358 -0.00003332 0.00000000)
(-0.01275634 -0.00002496 0.00000000)
(-0.01146308 -0.00003316 0.00000000)
(-0.00997443 -0.00002675 0.00000000)
(-0.00876585 -0.00002285 0.00000000)
(-0.00768881 -0.00001984 0.00000000)
(-0.00649614 -0.00002308 0.00000000)
(-0.00534680 -0.00002563 0.00000000)
(-0.00408387 -0.00002367 0.00000000)
(-0.00325723 -0.00001166 0.00000000)
(-0.00259100 -0.00001951 0.00000000)
(-0.00169093 -0.00001640 0.00000000)
(-0.00102022 -0.00001271 0.00000000)
(-0.00019437 -0.00002378 0.00000000)
(0.00073764 -0.00001310 0.00000000)
(0.00127423 -0.00001035 0.00000000)
(0.00153824 -0.00000230 0.00000000)
(0.00160073 0.00000127 0.00000000)
(0.00137725 0.00000174 0.00000000)
(0.00137750 0.00000041 0.00000000)
(0.00126431 0.00000663 0.00000000)
(0.00116497 0.00000820 0.00000000)
(0.00053949 0.00001281 0.00000000)
(-0.00013519 0.00002367 0.00000000)
(-0.00134055 0.00002790 0.00000000)
(-0.00290334 0.00003580 0.00000000)
(-0.00478541 0.00005111 0.00000000)
(-0.00702367 0.00006693 0.00000000)
(-0.00991583 0.00007146 0.00000000)
(-0.01816547 -0.00023779 0.00000000)
(-0.00994878 -0.00068942 0.00000000)
(-0.00788773 -0.00140656 0.00000000)
(-0.00048767 -0.00026562 0.00000000)
(0.00005768 0.00002166 0.00000000)
(0.00000279 0.00001752 0.00000000)
(0.00003484 -0.00001473 0.00000000)
(0.00004755 0.00005396 0.00000000)
(0.00019720 -0.00007231 0.00000000)
(-0.00084203 -0.00076575 0.00000000)
(-0.00014074 -0.00073936 0.00000000)
(-0.00247166 -0.00287017 0.00000000)
(0.00015781 -0.00134250 0.00000000)
(-0.00340524 -0.00216578 0.00000000)
(-0.00322239 -0.00444095 0.00000000)
(0.00153121 0.00270189 0.00000000)
(-0.00286136 -0.00231311 0.00000000)
(-0.00535133 -0.00233064 0.00000000)
(-0.00107076 -0.00354257 0.00000000)
(-0.01657448 -0.01291078 0.00000000)
(-0.00533083 -0.00384865 0.00000000)
(-0.01503072 -0.00876879 0.00000000)
(0.01014152 0.00258127 0.00000000)
(0.01854576 -0.00041775 0.00000000)
(0.01153173 0.00073781 0.00000000)
(0.02098841 0.00090155 0.00000000)
(0.00769476 -0.00024826 0.00000000)
(-0.01415671 0.00300072 0.00000000)
(-0.02341279 0.01136408 0.00000000)
(-0.01775188 0.01353046 0.00000000)
(-0.01263311 0.01021005 0.00000000)
(-0.00963549 0.00924988 0.00000000)
(-0.00814228 0.00688248 0.00000000)
(-0.00678973 0.00911368 0.00000000)
(-0.00799166 0.00981250 0.00000000)
(-0.00851128 0.01001173 0.00000000)
(-0.01152250 0.01003470 0.00000000)
(-0.01226953 0.01373050 0.00000000)
(-0.01725003 0.01957556 0.00000000)
(-0.02077437 0.01831343 0.00000000)
(-0.02186700 0.02330697 0.00000000)
(-0.02273582 0.02447114 0.00000000)
(-0.02685380 0.02208111 0.00000000)
(-0.02616929 0.02131766 0.00000000)
(-0.02307181 0.01630835 0.00000000)
(-0.01828970 0.01011416 0.00000000)
(-0.01191008 0.00516805 0.00000000)
(-0.00471087 0.00190937 0.00000000)
(-0.00149173 0.00044189 0.00000000)
(-0.00432043 0.00134758 0.00000000)
(-0.01411432 0.00097364 0.00000000)
(-0.02622006 0.00096989 0.00000000)
(-0.03855368 0.00101144 0.00000000)
(-0.05081231 0.00099668 0.00000000)
(-0.06298448 0.00100991 0.00000000)
(-0.07462926 0.00094178 0.00000000)
(-0.08492734 0.00082733 0.00000000)
(-0.09376152 0.00071104 0.00000000)
(-0.10131965 0.00059542 0.00000000)
(-0.10760708 0.00048651 0.00000000)
(-0.11231377 0.00035516 0.00000000)
(-0.11540493 0.00025905 0.00000000)
(-0.11807368 0.00025441 0.00000000)
(-0.12079841 0.00022307 0.00000000)
(-0.12262638 0.00014295 0.00000000)
(-0.12359906 0.00009011 0.00000000)
(-0.12402562 0.00002081 0.00000000)
(-0.12352716 -0.00002915 0.00000000)
(-0.12170119 -0.00020372 0.00000000)
(-0.11904707 -0.00024885 0.00000000)
(-0.11607572 -0.00018872 0.00000000)
(-0.11317670 -0.00024796 0.00000000)
(-0.11007860 -0.00029721 0.00000000)
(-0.10665573 -0.00026511 0.00000000)
(-0.10293531 -0.00029747 0.00000000)
(-0.10034126 -0.00017779 0.00000000)
(-0.09818221 -0.00017738 0.00000000)
(-0.09502818 -0.00027849 0.00000000)
(-0.09156765 -0.00025582 0.00000000)
(-0.08778633 -0.00034531 0.00000000)
(-0.08378129 -0.00032138 0.00000000)
(-0.07979208 -0.00030260 0.00000000)
(-0.07555406 -0.00037006 0.00000000)
(-0.07130726 -0.00032939 0.00000000)
(-0.06745308 -0.00033638 0.00000000)
(-0.06361457 -0.00029117 0.00000000)
(-0.05920319 -0.00044033 0.00000000)
(-0.05352736 -0.00045635 0.00000000)
(-0.04747667 -0.00052748 0.00000000)
(-0.04218299 -0.00038766 0.00000000)
(-0.03738232 -0.00039896 0.00000000)
(-0.03290281 -0.00034070 0.00000000)
(-0.02884722 -0.00028398 0.00000000)
(-0.02541799 -0.00033396 0.00000000)
(-0.02149852 -0.00029854 0.00000000)
(-0.01820555 -0.00025067 0.00000000)
(-0.01521932 -0.00022617 0.00000000)
(-0.01192289 -0.00026114 0.00000000)
(-0.00883643 -0.00028187 0.00000000)
(-0.00561789 -0.00025190 0.00000000)
(-0.00340958 -0.00013750 0.00000000)
(-0.00121027 -0.00020905 0.00000000)
(0.00118577 -0.00017322 0.00000000)
(0.00307916 -0.00015778 0.00000000)
(0.00539777 -0.00024871 0.00000000)
(0.00762200 -0.00014134 0.00000000)
(0.00908602 -0.00010697 0.00000000)
(0.00964670 -0.00002484 0.00000000)
(0.01001196 -0.00000209 0.00000000)
(0.00974787 0.00001965 0.00000000)
(0.00964625 0.00000744 0.00000000)
(0.00938916 0.00006898 0.00000000)
(0.00869811 0.00007610 0.00000000)
(0.00757607 0.00011747 0.00000000)
(0.00576064 0.00022221 0.00000000)
(0.00267869 0.00030880 0.00000000)
(-0.00143989 0.00040501 0.00000000)
(-0.00674496 0.00044218 0.00000000)
(-0.01269382 0.00058135 0.00000000)
(-0.02075595 0.00071718 0.00000000)
(-0.02733012 -0.00074223 0.00000000)
(-0.02668350 -0.00375202 0.00000000)
(-0.02230658 -0.00727042 0.00000000)
(-0.01149053 -0.00630101 0.00000000)
(-0.00808216 -0.00486842 0.00000000)
(-0.00137224 -0.00165351 0.00000000)
(0.00092052 0.00033925 0.00000000)
(0.00181434 0.00099785 0.00000000)
(0.00159151 0.00162627 0.00000000)
(0.00275102 0.00117201 0.00000000)
(0.00553574 0.00366292 0.00000000)
(0.00579525 0.00316384 0.00000000)
(0.00246857 0.00171983 0.00000000)
(0.00505548 0.00352217 0.00000000)
(0.00434079 0.00124789 0.00000000)
(0.00364687 0.00724216 0.00000000)
(-0.00960821 -0.00998573 0.00000000)
(0.00448338 0.00412013 0.00000000)
(0.00813082 0.00910346 0.00000000)
(0.01097198 0.00601199 0.00000000)
(-0.00325315 -0.00245454 0.00000000)
(0.04893913 0.03995692 0.00000000)
(0.09451256 0.01985628 0.00000000)
(0.07120504 0.00476408 0.00000000)
(0.03698680 0.00185055 0.00000000)
(0.05344913 0.00150231 0.00000000)
(0.02957335 -0.00088718 0.00000000)
(-0.02015812 0.00551109 0.00000000)
(-0.03783931 0.01827270 0.00000000)
(-0.03014220 0.02224431 0.00000000)
(-0.02162521 0.01801722 0.00000000)
(-0.01513143 0.01745448 0.00000000)
(-0.01412144 0.01348383 0.00000000)
(-0.01264902 0.01657517 0.00000000)
(-0.01430599 0.01711533 0.00000000)
(-0.01631592 0.01858276 0.00000000)
(-0.02050060 0.02068203 0.00000000)
(-0.02329954 0.02688052 0.00000000)
(-0.03013108 0.03304919 0.00000000)
(-0.03600888 0.03441407 0.00000000)
(-0.04020899 0.03952357 0.00000000)
(-0.04070973 0.04278417 0.00000000)
(-0.04323954 0.03806282 0.00000000)
(-0.04190093 0.03463068 0.00000000)
(-0.03802998 0.02663641 0.00000000)
(-0.03240437 0.01771954 0.00000000)
(-0.02467511 0.01031325 0.00000000)
(-0.01677629 0.00505624 0.00000000)
(-0.01215903 0.00252383 0.00000000)
(-0.01648725 0.00313123 0.00000000)
(-0.03076023 0.00270549 0.00000000)
(-0.04913297 0.00270123 0.00000000)
(-0.06741083 0.00275426 0.00000000)
(-0.08520936 0.00268997 0.00000000)
(-0.10227771 0.00263666 0.00000000)
(-0.11782786 0.00242290 0.00000000)
(-0.13154462 0.00209783 0.00000000)
(-0.14318598 0.00177300 0.00000000)
(-0.15251792 0.00146974 0.00000000)
(-0.16002823 0.00116504 0.00000000)
(-0.16533378 0.00083221 0.00000000)
(-0.16913496 0.00060920 0.00000000)
(-0.17212339 0.00056645 0.00000000)
(-0.17445206 0.00046837 0.00000000)
(-0.17610890 0.00028646 0.00000000)
(-0.17646212 0.00012362 0.00000000)
(-0.17570626 -0.00005082 0.00000000)
(-0.17408267 -0.00018963 0.00000000)
(-0.17079504 -0.00060730 0.00000000)
(-0.16634926 -0.00066580 0.00000000)
(-0.16217588 -0.00057591 0.00000000)
(-0.15773172 -0.00068136 0.00000000)
(-0.15269131 -0.00079979 0.00000000)
(-0.14785994 -0.00074551 0.00000000)
(-0.14303254 -0.00075768 0.00000000)
(-0.13880973 -0.00050504 0.00000000)
(-0.13507263 -0.00057424 0.00000000)
(-0.13019389 -0.00075135 0.00000000)
(-0.12499272 -0.00076473 0.00000000)
(-0.11938719 -0.00091540 0.00000000)
(-0.11366196 -0.00087145 0.00000000)
(-0.10790223 -0.00084732 0.00000000)
(-0.10154616 -0.00099101 0.00000000)
(-0.09567419 -0.00087060 0.00000000)
(-0.08982094 -0.00090903 0.00000000)
(-0.08418401 -0.00083546 0.00000000)
(-0.07745622 -0.00116886 0.00000000)
(-0.06977255 -0.00122012 0.00000000)
(-0.06166814 -0.00133744 0.00000000)
(-0.05444918 -0.00102349 0.00000000)
(-0.04753649 -0.00107305 0.00000000)
(-0.04119228 -0.00092872 0.00000000)
(-0.03525986 -0.00078985 0.00000000)
(-0.03021693 -0.00085976 0.00000000)
(-0.02480895 -0.00080846 0.00000000)
(-0.01988452 -0.00069116 0.00000000)
(-0.01550393 -0.00063852 0.00000000)
(-0.01092862 -0.00070705 0.00000000)
(-0.00627406 -0.00074455 0.00000000)
(-0.00187949 -0.00065194 0.00000000)
(0.00168164 -0.00042230 0.00000000)
(0.00509372 -0.00056357 0.00000000)
(0.00852007 -0.00045599 0.00000000)
(0.01140707 -0.00044250 0.00000000)
(0.01480526 -0.00061710 0.00000000)
(0.01780212 -0.00037960 0.00000000)
(0.01989508 -0.00028183 0.00000000)
(0.02081982 -0.00007832 0.00000000)
(0.02150544 -0.00003763 0.00000000)
(0.02154064 0.00004202 0.00000000)
(0.02158114 0.00001453 0.00000000)
(0.02115413 0.00016312 0.00000000)
(0.02014461 0.00020302 0.00000000)
(0.01883322 0.00028489 0.00000000)
(0.01648193 0.00055069 0.00000000)
(0.01236408 0.00080116 0.00000000)
(0.00654892 0.00106178 0.00000000)
(-0.00088761 0.00120106 0.00000000)
(-0.00955657 0.00159602 0.00000000)
(-0.02056549 0.00182786 0.00000000)
(-0.02762736 -0.00077728 0.00000000)
(-0.02893655 -0.00590482 0.00000000)
(-0.02510658 -0.00989944 0.00000000)
(-0.01898987 -0.01070256 0.00000000)
(-0.01110678 -0.00868764 0.00000000)
(-0.00608966 -0.00287347 0.00000000)
(0.00295982 0.00240000 0.00000000)
(0.00747442 0.00638824 0.00000000)
(0.01031512 0.01021632 0.00000000)
(0.01739681 0.01224941 0.00000000)
(0.01874762 0.01604202 0.00000000)
(0.02064412 0.02430508 0.00000000)
(0.01494517 0.01720216 0.00000000)
(0.02296391 0.02509249 0.00000000)
(0.02184822 0.02863627 0.00000000)
(0.02801499 0.02858683 0.00000000)
(0.01855530 0.01137070 0.00000000)
(0.02824599 0.03315558 0.00000000)
(0.01494418 0.02311538 0.00000000)
(0.07572652 0.05497201 0.00000000)
(0.09969017 0.07633990 0.00000000)
(0.18525782 0.13483755 0.00000000)
(0.23919545 0.05525989 0.00000000)
(0.17501743 0.01849802 0.00000000)
(0.08715019 0.00417945 0.00000000)
(0.10275889 0.00266154 0.00000000)
(0.06611710 -0.00181530 0.00000000)
(-0.01080934 0.00678276 0.00000000)
(-0.04851110 0.02459322 0.00000000)
(-0.04203977 0.03030062 0.00000000)
(-0.03037714 0.02492161 0.00000000)
(-0.02213531 0.02552583 0.00000000)
(-0.02021636 0.02139743 0.00000000)
(-0.02002263 0.02416788 0.00000000)
(-0.02156992 0.02506906 0.00000000)
(-0.02449552 0.02867156 0.00000000)
(-0.02962011 0.03179465 0.00000000)
(-0.03564614 0.04018782 0.00000000)
(-0.04205687 0.04628457 0.00000000)
(-0.04886251 0.04958685 0.00000000)
(-0.05403874 0.05344079 0.00000000)
(-0.05572799 0.05592386 0.00000000)
(-0.05665447 0.05082060 0.00000000)
(-0.05443155 0.04507534 0.00000000)
(-0.05169712 0.03601847 0.00000000)
(-0.04626290 0.02514770 0.00000000)
(-0.03832647 0.01566948 0.00000000)
(-0.03080847 0.00879632 0.00000000)
(-0.02660008 0.00527650 0.00000000)
(-0.03260777 0.00550325 0.00000000)
(-0.05039235 0.00513451 0.00000000)
(-0.07302798 0.00510416 0.00000000)
(-0.09515232 0.00511722 0.00000000)
(-0.11631757 0.00492695 0.00000000)
(-0.13585464 0.00470238 0.00000000)
(-0.15326149 0.00424161 0.00000000)
(-0.16802686 0.00363858 0.00000000)
(-0.18040252 0.00304183 0.00000000)
(-0.19011642 0.00247804 0.00000000)
(-0.19754685 0.00191310 0.00000000)
(-0.20270619 0.00133360 0.00000000)
(-0.20598713 0.00096252 0.00000000)
(-0.20848958 0.00085319 0.00000000)
(-0.21009234 0.00065611 0.00000000)
(-0.21087572 0.00036077 0.00000000)
(-0.21035366 0.00005056 0.00000000)
(-0.20860318 -0.00025349 0.00000000)
(-0.20590053 -0.00051540 0.00000000)
(-0.20138256 -0.00118365 0.00000000)
(-0.19595105 -0.00123241 0.00000000)
(-0.19042282 -0.00115890 0.00000000)
(-0.18479398 -0.00128916 0.00000000)
(-0.17879593 -0.00147213 0.00000000)
(-0.17259285 -0.00140470 0.00000000)
(-0.16679617 -0.00134807 0.00000000)
(-0.16182744 -0.00098916 0.00000000)
(-0.15675218 -0.00118613 0.00000000)
(-0.15063908 -0.00140397 0.00000000)
(-0.14406224 -0.00149550 0.00000000)
(-0.13712805 -0.00166737 0.00000000)
(-0.13020386 -0.00163172 0.00000000)
(-0.12300511 -0.00162138 0.00000000)
(-0.11547017 -0.00180518 0.00000000)
(-0.10841477 -0.00161246 0.00000000)
(-0.10144649 -0.00166730 0.00000000)
(-0.09443654 -0.00161739 0.00000000)
(-0.08636747 -0.00211963 0.00000000)
(-0.07725169 -0.00222134 0.00000000)
(-0.06798305 -0.00235031 0.00000000)
(-0.05975588 -0.00186487 0.00000000)
(-0.05169033 -0.00196321 0.00000000)
(-0.04398489 -0.00173099 0.00000000)
(-0.03685012 -0.00149004 0.00000000)
(-0.03063231 -0.00154411 0.00000000)
(-0.02433564 -0.00150075 0.00000000)
(-0.01826528 -0.00129594 0.00000000)
(-0.01288285 -0.00120092 0.00000000)
(-0.00746397 -0.00130832 0.00000000)
(-0.00181145 -0.00135434 0.00000000)
(0.00341543 -0.00118848 0.00000000)
(0.00807013 -0.00086075 0.00000000)
(0.01237532 -0.00103952 0.00000000)
(0.01656567 -0.00085749 0.00000000)
(0.02021739 -0.00084041 0.00000000)
(0.02424035 -0.00106915 0.00000000)
(0.02766837 -0.00070150 0.00000000)
(0.03019832 -0.00050867 0.00000000)
(0.03152581 -0.00016959 0.00000000)
(0.03250754 -0.00011906 0.00000000)
(0.03289679 0.00004375 0.00000000)
(0.03315810 0.00000668 0.00000000)
(0.03270399 0.00026832 0.00000000)
(0.03162581 0.00034611 0.00000000)
(0.03032764 0.00048307 0.00000000)
(0.02773668 0.00094405 0.00000000)
(0.02316196 0.00142438 0.00000000)
(0.01642875 0.00192873 0.00000000)
(0.00784279 0.00220260 0.00000000)
(-0.00234166 0.00290105 0.00000000)
(-0.01484039 0.00319449 0.00000000)
(-0.02321825 -0.00009128 0.00000000)
(-0.02724127 -0.00616572 0.00000000)
(-0.02388904 -0.01053901 0.00000000)
(-0.01866665 -0.01138059 0.00000000)
(-0.00914534 -0.00905815 0.00000000)
(-0.00212216 -0.00128240 0.00000000)
(0.00752739 0.00508908 0.00000000)
(0.01630766 0.01367372 0.00000000)
(0.02402621 0.02382800 0.00000000)
(0.03615051 0.02959432 0.00000000)
(0.03987436 0.03973269 0.00000000)
(0.04689202 0.05394071 0.00000000)
(0.05299621 0.04951041 0.00000000)
(0.05252802 0.06428743 0.00000000)
(0.05113766 0.05951837 0.00000000)
(0.06652693 0.07355450 0.00000000)
(0.07824139 0.06336099 0.00000000)
(0.06723673 0.09524499 0.00000000)
(0.07612393 0.09229725 0.00000000)
(0.17443862 0.15042898 0.00000000)
(0.29344126 0.22195736 0.00000000)
(0.40383910 0.25535916 0.00000000)
(0.45330090 0.11537847 0.00000000)
(0.30671850 0.03783404 0.00000000)
(0.15971075 0.00903382 0.00000000)
(0.16637932 0.00476026 0.00000000)
(0.11619392 -0.00242210 0.00000000)
(0.01634316 0.00595923 0.00000000)
(-0.05185764 0.02776245 0.00000000)
(-0.05164918 0.03686807 0.00000000)
(-0.03879759 0.03144716 0.00000000)
(-0.02978873 0.03337111 0.00000000)
(-0.02666951 0.02961298 0.00000000)
(-0.02740271 0.03108597 0.00000000)
(-0.02897376 0.03286936 0.00000000)
(-0.03282745 0.03797884 0.00000000)
(-0.03862339 0.04241352 0.00000000)
(-0.04629425 0.05068508 0.00000000)
(-0.05227427 0.05764483 0.00000000)
(-0.05983666 0.06229382 0.00000000)
(-0.06476400 0.06517183 0.00000000)
(-0.06706621 0.06667357 0.00000000)
(-0.06781212 0.06122782 0.00000000)
(-0.06631695 0.05397523 0.00000000)
(-0.06366698 0.04330594 0.00000000)
(-0.05843198 0.03142986 0.00000000)
(-0.05149533 0.02078895 0.00000000)
(-0.04526294 0.01276932 0.00000000)
(-0.04256182 0.00852172 0.00000000)
(-0.05057582 0.00835671 0.00000000)
(-0.07091376 0.00805723 0.00000000)
(-0.09611199 0.00798873 0.00000000)
(-0.12039707 0.00787370 0.00000000)
(-0.14307804 0.00749478 0.00000000)
(-0.16354436 0.00698347 0.00000000)
(-0.18115296 0.00620292 0.00000000)
(-0.19602267 0.00527185 0.00000000)
(-0.20805749 0.00435759 0.00000000)
(-0.21731251 0.00348237 0.00000000)
(-0.22408236 0.00262426 0.00000000)
(-0.22852054 0.00177836 0.00000000)
(-0.23118934 0.00125818 0.00000000)
(-0.23278152 0.00105709 0.00000000)
(-0.23349774 0.00073530 0.00000000)
(-0.23336582 0.00033485 0.00000000)
(-0.23198002 -0.00014435 0.00000000)
(-0.22929906 -0.00060072 0.00000000)
(-0.22549925 -0.00099966 0.00000000)
(-0.22013575 -0.00187493 0.00000000)
(-0.21406218 -0.00193177 0.00000000)
(-0.20762259 -0.00190072 0.00000000)
(-0.20109454 -0.00203996 0.00000000)
(-0.19431704 -0.00227869 0.00000000)
(-0.18737379 -0.00218925 0.00000000)
(-0.18103435 -0.00203703 0.00000000)
(-0.17528041 -0.00161459 0.00000000)
(-0.16909638 -0.00196931 0.00000000)
(-0.16213601 -0.00220793 0.00000000)
(-0.15464832 -0.00239398 0.00000000)
(-0.14677438 -0.00255600 0.00000000)
(-0.13894062 -0.00255186 0.00000000)
(-0.13076075 -0.00257294 0.00000000)
(-0.12244426 -0.00274802 0.00000000)
(-0.11461900 -0.00251373 0.00000000)
(-0.10678254 -0.00255615 0.00000000)
(-0.09887745 -0.00258324 0.00000000)
(-0.08984913 -0.00322799 0.00000000)
(-0.07993757 -0.00337911 0.00000000)
(-0.07007349 -0.00348050 0.00000000)
(-0.06122002 -0.00285591 0.00000000)
(-0.05233482 -0.00300469 0.00000000)
(-0.04378594 -0.00268924 0.00000000)
(-0.03586565 -0.00234737 0.00000000)
(-0.02884666 -0.00234141 0.00000000)
(-0.02193517 -0.00233010 0.00000000)
(-0.01503341 -0.00203471 0.00000000)
(-0.00885054 -0.00188502 0.00000000)
(-0.00288413 -0.00201940 0.00000000)
(0.00339024 -0.00206532 0.00000000)
(0.00923317 -0.00183406 0.00000000)
(0.01471007 -0.00143757 0.00000000)
(0.01966773 -0.00161104 0.00000000)
(0.02441504 -0.00136248 0.00000000)
(0.02863870 -0.00132188 0.00000000)
(0.03299884 -0.00156525 0.00000000)
(0.03665945 -0.00108178 0.00000000)
(0.03949551 -0.00077552 0.00000000)
(0.04124176 -0.00030488 0.00000000)
(0.04241425 -0.00024663 0.00000000)
(0.04313703 0.00001512 0.00000000)
(0.04361182 -0.00002319 0.00000000)
(0.04324752 0.00036801 0.00000000)
(0.04227139 0.00047577 0.00000000)
(0.04103540 0.00069660 0.00000000)
(0.03833022 0.00136798 0.00000000)
(0.03360517 0.00212028 0.00000000)
(0.02646124 0.00292703 0.00000000)
(0.01735720 0.00333689 0.00000000)
(0.00655286 0.00436363 0.00000000)
(-0.00661931 0.00472155 0.00000000)
(-0.01631578 0.00116918 0.00000000)
(-0.02198568 -0.00505397 0.00000000)
(-0.01940088 -0.00968744 0.00000000)
(-0.01444079 -0.01032268 0.00000000)
(-0.00467271 -0.00729993 0.00000000)
(0.00389241 0.00012538 0.00000000)
(0.01306903 0.00829140 0.00000000)
(0.02545564 0.01944387 0.00000000)
(0.03724464 0.03608922 0.00000000)
(0.05149146 0.04493658 0.00000000)
(0.06442946 0.06194868 0.00000000)
(0.07722622 0.08007138 0.00000000)
(0.09176788 0.08541004 0.00000000)
(0.09708972 0.10781844 0.00000000)
(0.10918923 0.11360040 0.00000000)
(0.11672753 0.14019528 0.00000000)
(0.14300233 0.13713455 0.00000000)
(0.13960011 0.16530853 0.00000000)
(0.18171476 0.18029201 0.00000000)
(0.29415946 0.26947080 0.00000000)
(0.46655492 0.34257504 0.00000000)
(0.63049953 0.36040627 0.00000000)
(0.66993109 0.18334298 0.00000000)
(0.45577799 0.06347291 0.00000000)
(0.25140240 0.01668246 0.00000000)
(0.24210386 0.00803958 0.00000000)
(0.17631890 -0.00245716 0.00000000)
(0.05831060 0.00302905 0.00000000)
(-0.04908904 0.02965711 0.00000000)
(-0.05939160 0.04216655 0.00000000)
(-0.04673061 0.03872609 0.00000000)
(-0.03777882 0.04018412 0.00000000)
(-0.03314595 0.03706828 0.00000000)
(-0.03383376 0.03791324 0.00000000)
(-0.03547856 0.04064447 0.00000000)
(-0.04069246 0.04643664 0.00000000)
(-0.04665257 0.05212575 0.00000000)
(-0.05490492 0.06037146 0.00000000)
(-0.06169706 0.06777773 0.00000000)
(-0.06915280 0.07294634 0.00000000)
(-0.07413696 0.07550594 0.00000000)
(-0.07651795 0.07537513 0.00000000)
(-0.07737015 0.06952913 0.00000000)
(-0.07579652 0.06121153 0.00000000)
(-0.07335769 0.04943133 0.00000000)
(-0.06898367 0.03692236 0.00000000)
(-0.06362720 0.02554767 0.00000000)
(-0.05920365 0.01683915 0.00000000)
(-0.05869190 0.01206762 0.00000000)
(-0.06889875 0.01158776 0.00000000)
(-0.09094338 0.01133972 0.00000000)
(-0.11737605 0.01119432 0.00000000)
(-0.14244395 0.01086767 0.00000000)
(-0.16547473 0.01023653 0.00000000)
(-0.18570406 0.00934824 0.00000000)
(-0.20284500 0.00819402 0.00000000)
(-0.21701859 0.00690662 0.00000000)
(-0.22829348 0.00564153 0.00000000)
(-0.23671491 0.00442259 0.00000000)
(-0.24256399 0.00325387 0.00000000)
(-0.24618828 0.00213926 0.00000000)
(-0.24806032 0.00147380 0.00000000)
(-0.24886681 0.00115735 0.00000000)
(-0.24870849 0.00069938 0.00000000)
(-0.24769639 0.00020155 0.00000000)
(-0.24554985 -0.00045676 0.00000000)
(-0.24200184 -0.00109508 0.00000000)
(-0.23725263 -0.00162113 0.00000000)
(-0.23149169 -0.00263580 0.00000000)
(-0.22489918 -0.00275310 0.00000000)
(-0.21788527 -0.00276788 0.00000000)
(-0.21072727 -0.00291301 0.00000000)
(-0.20337046 -0.00319372 0.00000000)
(-0.19585487 -0.00307984 0.00000000)
(-0.18896103 -0.00282466 0.00000000)
(-0.18271243 -0.00236542 0.00000000)
(-0.17574282 -0.00288084 0.00000000)
(-0.16818057 -0.00314660 0.00000000)
(-0.15999617 -0.00343096 0.00000000)
(-0.15143090 -0.00357366 0.00000000)
(-0.14304578 -0.00360008 0.00000000)
(-0.13413306 -0.00366779 0.00000000)
(-0.12526714 -0.00380075 0.00000000)
(-0.11690336 -0.00354517 0.00000000)
(-0.10847864 -0.00355269 0.00000000)
(-0.09984192 -0.00370057 0.00000000)
(-0.09014887 -0.00445758 0.00000000)
(-0.07982133 -0.00465506 0.00000000)
(-0.06965176 -0.00470006 0.00000000)
(-0.06034721 -0.00397551 0.00000000)
(-0.05096495 -0.00415633 0.00000000)
(-0.04188364 -0.00377784 0.00000000)
(-0.03343893 -0.00332967 0.00000000)
(-0.02585433 -0.00322544 0.00000000)
(-0.01850816 -0.00326912 0.00000000)
(-0.01099180 -0.00288612 0.00000000)
(-0.00418812 -0.00266826 0.00000000)
(0.00221735 -0.00281911 0.00000000)
(0.00890946 -0.00285687 0.00000000)
(0.01521195 -0.00257964 0.00000000)
(0.02122947 -0.00212380 0.00000000)
(0.02669451 -0.00226392 0.00000000)
(0.03184573 -0.00196180 0.00000000)
(0.03651819 -0.00187429 0.00000000)
(0.04104067 -0.00208527 0.00000000)
(0.04483648 -0.00150653 0.00000000)
(0.04790775 -0.00108340 0.00000000)
(0.04997998 -0.00048523 0.00000000)
(0.05133515 -0.00040826 0.00000000)
(0.05232224 -0.00004341 0.00000000)
(0.05296186 -0.00007334 0.00000000)
(0.05277235 0.00045051 0.00000000)
(0.05198721 0.00058048 0.00000000)
(0.05078451 0.00092080 0.00000000)
(0.04809058 0.00181413 0.00000000)
(0.04335879 0.00285045 0.00000000)
(0.03614166 0.00399295 0.00000000)
(0.02695414 0.00454604 0.00000000)
(0.01602137 0.00590949 0.00000000)
(0.00268804 0.00639727 0.00000000)
(-0.00804643 0.00283201 0.00000000)
(-0.01463794 -0.00328861 0.00000000)
(-0.01306561 -0.00812605 0.00000000)
(-0.00834765 -0.00845727 0.00000000)
(0.00093328 -0.00510968 0.00000000)
(0.01061162 0.00277968 0.00000000)
(0.02041821 0.01239883 0.00000000)
(0.03357585 0.02487165 0.00000000)
(0.04896736 0.04267886 0.00000000)
(0.06315530 0.05546387 0.00000000)
(0.08005052 0.07423275 0.00000000)
(0.09705421 0.09734040 0.00000000)
(0.11742816 0.11164730 0.00000000)
(0.13299878 0.13602504 0.00000000)
(0.15606768 0.15500184 0.00000000)
(0.17016709 0.19666367 0.00000000)
(0.19681150 0.20172261 0.00000000)
(0.23133312 0.24541621 0.00000000)
(0.29430187 0.29515507 0.00000000)
(0.40732999 0.36417523 0.00000000)
(0.58212391 0.41464767 0.00000000)
(0.76209090 0.40686534 0.00000000)
(0.79490824 0.22723926 0.00000000)
(0.59891518 0.09221581 0.00000000)
(0.35646737 0.02719896 0.00000000)
(0.32529800 0.01261899 0.00000000)
(0.24361258 -0.00153990 0.00000000)
(0.10982538 0.00006307 0.00000000)
(-0.03734875 0.02943566 0.00000000)
(-0.06727381 0.04767495 0.00000000)
(-0.05487417 0.04624646 0.00000000)
(-0.04530098 0.04599130 0.00000000)
(-0.04033061 0.04422324 0.00000000)
(-0.04005366 0.04506774 0.00000000)
(-0.04238430 0.04868414 0.00000000)
(-0.04821894 0.05476304 0.00000000)
(-0.05474406 0.06142034 0.00000000)
(-0.06295844 0.06970277 0.00000000)
(-0.07015247 0.07703299 0.00000000)
(-0.07706973 0.08193696 0.00000000)
(-0.08186252 0.08395025 0.00000000)
(-0.08418947 0.08249516 0.00000000)
(-0.08463055 0.07606015 0.00000000)
(-0.08353267 0.06681139 0.00000000)
(-0.08173206 0.05468129 0.00000000)
(-0.07848475 0.04176659 0.00000000)
(-0.07476166 0.02997406 0.00000000)
(-0.07236290 0.02089406 0.00000000)
(-0.07428305 0.01584884 0.00000000)
(-0.08653074 0.01509311 0.00000000)
(-0.10960360 0.01485397 0.00000000)
(-0.13632897 0.01459072 0.00000000)
(-0.16125016 0.01397580 0.00000000)
(-0.18378937 0.01304037 0.00000000)
(-0.20330076 0.01171506 0.00000000)
(-0.21945715 0.01015163 0.00000000)
(-0.23261529 0.00848323 0.00000000)
(-0.24286380 0.00683901 0.00000000)
(-0.25032121 0.00526903 0.00000000)
(-0.25518751 0.00378614 0.00000000)
(-0.25796469 0.00241207 0.00000000)
(-0.25912934 0.00159848 0.00000000)
(-0.25918191 0.00114689 0.00000000)
(-0.25825043 0.00055763 0.00000000)
(-0.25645415 -0.00004279 0.00000000)
(-0.25371060 -0.00087772 0.00000000)
(-0.24950605 -0.00172730 0.00000000)
(-0.24393113 -0.00235915 0.00000000)
(-0.23785246 -0.00344629 0.00000000)
(-0.23094218 -0.00367160 0.00000000)
(-0.22359272 -0.00373066 0.00000000)
(-0.21594337 -0.00389432 0.00000000)
(-0.20815391 -0.00419790 0.00000000)
(-0.20024495 -0.00406916 0.00000000)
(-0.19288978 -0.00370795 0.00000000)
(-0.18613813 -0.00322533 0.00000000)
(-0.17865281 -0.00389355 0.00000000)
(-0.17065565 -0.00419523 0.00000000)
(-0.16205260 -0.00458069 0.00000000)
(-0.15300717 -0.00471411 0.00000000)
(-0.14417639 -0.00475363 0.00000000)
(-0.13476128 -0.00487695 0.00000000)
(-0.12550582 -0.00495476 0.00000000)
(-0.11673834 -0.00467519 0.00000000)
(-0.10788810 -0.00465407 0.00000000)
(-0.09863789 -0.00494942 0.00000000)
(-0.08852132 -0.00577966 0.00000000)
(-0.07799622 -0.00602272 0.00000000)
(-0.06769859 -0.00598259 0.00000000)
(-0.05802677 -0.00519983 0.00000000)
(-0.04837748 -0.00538673 0.00000000)
(-0.03898793 -0.00496650 0.00000000)
(-0.03021656 -0.00441117 0.00000000)
(-0.02221556 -0.00418634 0.00000000)
(-0.01451989 -0.00429827 0.00000000)
(-0.00652759 -0.00384264 0.00000000)
(0.00072749 -0.00354484 0.00000000)
(0.00751645 -0.00369602 0.00000000)
(0.01451139 -0.00372040 0.00000000)
(0.02112023 -0.00341528 0.00000000)
(0.02748942 -0.00290488 0.00000000)
(0.03333743 -0.00298671 0.00000000)
(0.03879699 -0.00262842 0.00000000)
(0.04379909 -0.00249679 0.00000000)
(0.04840826 -0.00262272 0.00000000)
(0.05234397 -0.00196382 0.00000000)
(0.05555640 -0.00143143 0.00000000)
(0.05783744 -0.00070604 0.00000000)
(0.05935947 -0.00059670 0.00000000)
(0.06060008 -0.00013514 0.00000000)
(0.06138876 -0.00014087 0.00000000)
(0.06141963 0.00050511 0.00000000)
(0.06085828 0.00066708 0.00000000)
(0.05967498 0.00115808 0.00000000)
(0.05703399 0.00226811 0.00000000)
(0.05238363 0.00359844 0.00000000)