# Probe 0 (0.0005 0.0001 0.0007)
# Probe 1 (0.0005 0.0001 0.0063)
# Probe 2 (0.0005 0.0009 0.0063)
# Probe 3 (0.0005 0.0009 0.0007)
# Probe 4 (0.0005 0.0005 0.0035)
#       Probe             0             1             2             3             4
#        Time
            1     0.0200004          0.02          0.02          0.02     0.0200001
            2     0.0200026          0.02     0.0200002     0.0200525     0.0200008
            3     0.0200058     0.0200001     0.0200029      0.019918     0.0200027
            4      0.020009     0.0200002     0.0200036     0.0197341      0.020005
            5     0.0200147     0.0200004     0.0199972     0.0194946      0.020009
            6     0.0200181     0.0200007     0.0200916     0.0193092     0.0200133
            7     0.0200242     0.0200013     0.0203795     0.0192098      0.020018
            8     0.0200325      0.020002     0.0207987     0.0192812     0.0200244
            9     0.0200419     0.0200029     0.0213411     0.0195309     0.0200315
           10     0.0200532     0.0200039     0.0219701     0.0198842     0.0200401
           11     0.0200644      0.020005     0.0226594     0.0203217     0.0200507
           12     0.0200751     0.0200063     0.0234051     0.0208491     0.0200656
           13     0.0200849     0.0200077     0.0241911     0.0214656     0.0200889
           14     0.0200968     0.0200092     0.0250091     0.0221694      0.020127
           15     0.0201102     0.0200107     0.0258526     0.0229573     0.0201915
           16     0.0201253     0.0200124     0.0267322     0.0238419     0.0203083
           17     0.0201404      0.020014     0.0276278     0.0248096     0.0205065
           18     0.0201541     0.0200155     0.0285231     0.0258574     0.0208533
           19     0.0201685     0.0200165     0.0294215     0.0269876     0.0214352
           20     0.0201921     0.0200169     0.0303258     0.0282027     0.0223272
           21     0.0202251     0.0200173     0.0312381     0.0295093     0.0235436
           22     0.0202641     0.0200186     0.0321627     0.0309163     0.0248757
           23     0.0203172     0.0200205     0.0331032       0.03243      0.026332
           24     0.0204495     0.0200227     0.0340627     0.0340578      0.028035
           25      0.020601      0.020025     0.0350442     0.0358092     0.0302356
           26     0.0207939     0.0200274     0.0360505     0.0376955     0.0329305
           27     0.0209879       0.02003     0.0370838     0.0397292     0.0360505
           28      0.021227     0.0200326     0.0381465     0.0419261     0.0395666
           29     0.0214651     0.0200354     0.0392407     0.0443075     0.0434597
           30     0.0217442     0.0200383     0.0403687     0.0469002     0.0477232
           31     0.0221143     0.0200414     0.0415323     0.0497386     0.0523828
           32     0.0225988     0.0200447     0.0427337     0.0528677     0.0575218
           33     0.0231146     0.0200481      0.043975     0.0563447     0.0632756
           34     0.0236655     0.0200519     0.0452584     0.0602427      0.069831
           35     0.0242681     0.0200558     0.0465865     0.0646544     0.0774474
           36     0.0249352     0.0200601     0.0479621      0.069695     0.0865078
           37     0.0256298     0.0200646     0.0493887     0.0753826     0.0973465
           38      0.026395     0.0200695     0.0508688     0.0819723      0.111043
           39     0.0272387     0.0200748     0.0524063      0.089667      0.128828
           40     0.0281757     0.0200806      0.054005     0.0987167      0.152385
           41     0.0292248     0.0200868      0.055669       0.10943      0.183566
           42     0.0304153     0.0200936     0.0574034      0.122194      0.224199
           43     0.0318001      0.020101     0.0592141       0.13749       0.27634
           44     0.0334316     0.0201092     0.0611074       0.15592      0.337282
           45     0.0354318     0.0201181     0.0630902      0.178235       0.40827
           46     0.0379136      0.020128     0.0651704      0.205354      0.491199
           47     0.0411382     0.0201389     0.0673565      0.238382      0.587634
           48     0.0455621     0.0201511     0.0696579      0.278651      0.698742
           49      0.051857     0.0201646     0.0720851      0.327705      0.825446
           50     0.0610025     0.0201797     0.0746495      0.387317       0.96864
           51     0.0743604     0.0201967     0.0773635      0.459449       1.12863
           52     0.0936806     0.0202158      0.080241      0.546188       1.30546
           53      0.119796     0.0202375     0.0832972      0.649603       1.49899
           54       0.15422     0.0202621     0.0865421      0.771442       1.70876
           55      0.198444     0.0202902     0.0900009      0.912894       1.93094
           56      0.253716     0.0203225     0.0936952       1.07439       2.15751
           57      0.320711     0.0203596     0.0976484       1.25548       2.38203
           58      0.399499     0.0204026      0.101886       1.45487       2.60151
           59      0.489677     0.0204525      0.106436       1.67065       2.81881
           60        0.5902     0.0205106      0.111328       1.90028       3.03576
           61      0.699448     0.0205784      0.116595       2.14122       3.25303
           62      0.815639     0.0206576      0.122271       2.39092       3.47039
           63        0.9371     0.0207501      0.128394       2.64686       3.68817
           64       1.06202      0.020858      0.135005       2.90707       3.90655
           65       1.18874     0.0209838      0.142146       3.16995       4.12515
           66       1.31621     0.0211309      0.149866       3.43367       4.34358
           67       1.44405     0.0213033      0.158217       3.69716       4.56173
           68       1.57194     0.0215065      0.167255       3.95989       4.77944
           69       1.69959     0.0217467      0.177042       4.22157       4.99648
           70       1.82682     0.0220319      0.187645       4.48199       5.21244
           71       1.95352     0.0223712      0.199137       4.74101       5.42697
           72       2.07958     0.0227754      0.211597       4.99812       5.63973
           73        2.2049     0.0232562      0.225109       5.25278       5.85041
           74       2.32939     0.0238253      0.239766       5.50491       6.05877
           75       2.45295     0.0244927      0.255667       5.75446       6.26454
           76       2.57547     0.0252617      0.272916       6.00141        6.4675
           77       2.69686     0.0261234      0.291627       6.24571       6.66743
           78       2.81702     0.0270477      0.311919       6.48726       6.86413
           79       2.93585      0.028007      0.333919       6.72596       7.05742
           80       3.05328     0.0290021      0.357759       6.96165       7.24715
           81       3.16923     0.0300344      0.383576       7.19381       7.43317
           82       3.28364     0.0311052      0.411515       7.42229       7.61539
           83       3.39646     0.0322164      0.441721       7.64705       7.79374
           84       3.50763     0.0333703      0.474343       7.86803       7.96815
           85       3.61713     0.0345702      0.509531       8.08518        8.1386
           86       3.72494     0.0358208      0.547434       8.29842       8.30507
           87       3.83104     0.0371287      0.588197       8.50765       8.46757
           88       3.93545     0.0385029      0.631964        8.7128        8.6261
           89       4.03817     0.0399558      0.678869       8.91375       8.78069
           90       4.13923     0.0415028      0.729039       9.11043        8.9314
           91       4.23864     0.0431631       0.78259       9.30276       9.07825
           92       4.33172     0.0449742      0.839904       9.49176       9.22121
           93        4.4236     0.0469477      0.900824       9.67632       9.36045
           94       4.51422      0.049111      0.965423        9.8564       9.49605
           95        4.6032      0.051493       1.03375        10.032       9.62804
           96        4.6906     0.0541226       1.10585        10.203       9.75651
           97       4.77655     0.0570284       1.18171       10.3696        9.8815
           98       4.86116     0.0602366       1.26134       10.5317       10.0031
           99        4.9445     0.0637698        1.3447       10.6893       10.1213
          100       5.02663     0.0676461       1.43171       10.8424       10.2363
          101       5.10759     0.0718761       1.52231       10.9912        10.348
          102       5.18741      0.076463       1.61638       11.1356       10.4566
          103       5.26611     0.0814017       1.71379       11.2757       10.5621
          104       5.34371     0.0866806       1.81438       11.4116       10.6645
          105       5.42016     0.0922761       1.91798       11.5433        10.764
          106       5.49545     0.0981425       2.02439       11.6708       10.8606
          107       5.56956      0.104235       2.13337       11.7943       10.9542
          108       5.64247      0.110483        2.2447       11.9138       11.0451
          109       5.71403      0.116802       2.35811       12.0294       11.1332
          110        5.7841      0.123219       2.47331       12.1412       11.2185
          111       5.85266      0.129747       2.59003       12.2492       11.3012
          112       5.91972      0.136375       2.70797       12.3536        11.381
          113       5.98531      0.143103       2.82682       12.4543       11.4582
          114       6.04925       0.14992       2.94629       12.5513        11.533
          115       6.11169      0.156821       3.06609       12.6449       11.6052
          116       6.17265      0.163804       3.18595       12.7351       11.6749
          117       6.23218      0.170863       3.30561       12.8221       11.7421
          118       6.29027      0.177994       3.42482        12.906       11.8068
          119       6.34694      0.185195       3.54335       12.9867       11.8691
          120       6.40218      0.192464       3.66101       13.0645       11.9291
          121       6.45597        0.1998       3.77761       13.1394       11.9866
          122       6.50823      0.207201         3.893       13.2114       12.0419
          123       6.55888      0.214669       4.00706       13.2806       12.0949
          124       6.60793      0.222203       4.11971       13.3472       12.1456
          125       6.65536      0.229805        4.2309        13.411       12.1942
          126       6.70121      0.237478       4.34058       13.4723       12.2405
          127       6.74547      0.245225       4.44874       13.5311       12.2848
          128       6.78817      0.253049       4.55538       13.5874       12.3269
          129       6.82931      0.260955       4.66049       13.6413       12.3669
          130        6.8689      0.268948       4.76408       13.6929       12.4048
          131       6.90696      0.277032       4.86618       13.7422       12.4406
          132        6.9435      0.285213       4.96679       13.7893       12.4744
          133       6.97849      0.293498       5.06594       13.8342       12.5062
          134        7.0119      0.301893       5.16361        13.877       12.5361
          135       7.04374      0.310404       5.25983       13.9178       12.5641
          136       7.07399      0.319039        5.3546       13.9565       12.5902
          137       7.10269      0.327803       5.44793       13.9934       12.6145
          138       7.12984      0.336706       5.53983       14.0283       12.6371
          139       7.15549      0.345752       5.63035       14.0613        12.658
          140       7.17966      0.354949       5.71951       14.0925       12.6772
          141       7.20239      0.364302       5.80734        14.122       12.6948
          142        7.2237       0.37382        5.8939       14.1498       12.7108
          143       7.24362      0.383507        5.9792       14.1759       12.7252
          144       7.26216       0.39337        6.0633       14.2004       12.7381
          145       7.27934      0.403414       6.14621       14.2233       12.7496
          146       7.29517      0.413644       6.22798       14.2447       12.7597
          147       7.30968      0.424065       6.30863       14.2646       12.7685
          148        7.3229      0.434681       6.38819        14.283       12.7759
          149       7.33487      0.445496       6.46669       14.3001        12.782
          150       7.34563      0.456512       6.54416       14.3157       12.7869
          151        7.3552      0.467733       6.62062       14.3301       12.7905
          152       7.36363       0.47916        6.6961       14.3431        12.793
          153       7.37095      0.490796       6.77061       14.3549       12.7943
          154       7.37718      0.502641       6.84417       14.3655       12.7946
          155       7.38235      0.514695       6.91681       14.3749        12.794
          156       7.38648      0.526961       6.98854       14.3831       12.7924
          157       7.38961      0.539436       7.05938       14.3903       12.7899
          158       7.39176      0.552119       7.12933       14.3964       12.7864
          159       7.39296       0.56501       7.19841       14.4014        12.782
          160       7.39325      0.578108       7.26663       14.4054       12.7766
          161       7.39266       0.59141       7.33401       14.4085       12.7704
          162       7.39121      0.604912       7.40056       14.4107       12.7633
          163       7.38894      0.618614       7.46631       14.4119       12.7554
          164       7.38588      0.632514       7.53126       14.4123       12.7466
          165       7.38203      0.646605       7.59545       14.4118       12.7369
          166       7.37745      0.660882       7.65887       14.4105       12.7263
          167       7.37213      0.675342       7.72156       14.4085        12.715
          168       7.36613      0.689979       7.78352       14.4056       12.7031
          169       7.35946       0.70479       7.84476       14.4021       12.6904
          170       7.35215      0.719773        7.9053       14.3979       12.6772
          171       7.34422      0.734924       7.96515        14.393       12.6633
          172       7.33572       0.75023       8.02433       14.3875       12.6489
          173       7.32666      0.765691       8.08283       14.3814       12.6339
          174       7.31707      0.781306       8.14068       14.3747       12.6181
          175       7.30698      0.797073       8.19789       14.3675       12.6018
          176       7.29641      0.812988       8.25445       14.3597       12.5849
          177       7.28539      0.829041       8.31039       14.3515       12.5675
          178       7.27394      0.845229       8.36572       14.3428       12.5497
          179       7.26208      0.861551       8.42043       14.3336       12.5315
          180       7.24984      0.878003       8.47455        14.324       12.5128
          181       7.23724       0.89458       8.52808       14.3141       12.4938
          182       7.22431      0.911277       8.58102       14.3037       12.4745
          183       7.21107      0.928088       8.63339        14.293       12.4548
          184       7.19754      0.945011        8.6852        14.282       12.4347
          185       7.18374      0.962043       8.73645       14.2707       12.4142
          186        7.1697      0.979179       8.78715       14.2592       12.3935
          187       7.15544      0.996415       8.83731       14.2474       12.3725
          188       7.14097       1.01375       8.88693       14.2353       12.3513
          189       7.12632       1.03117       8.93603       14.2231       12.3299
          190        7.1115       1.04868       8.98461       14.2107       12.3083
          191       7.09654       1.06628       9.03268       14.1981       12.2865
          192       7.08144       1.08396       9.08024       14.1853       12.2646
          193       7.06624       1.10172       9.12731       14.1725       12.2425
          194       7.05093       1.11955       9.17388       14.1595       12.2203
          195       7.03555       1.13746       9.21996       14.1464       12.1979
          196        7.0201       1.15543       9.26557       14.1333       12.1755
          197        7.0046       1.17346       9.31071       14.1201        12.153
          198       6.98907       1.19155       9.35538       14.1068       12.1304
          199       6.97351       1.20969       9.39959       14.0936       12.1078
          200       6.95794       1.22789       9.44334       14.0803       12.0851
          201       6.94237       1.24613       9.48664        14.067       12.0624
          202       6.92682       1.26442        9.5295       14.0537       12.0398
          203        6.9113       1.28275       9.57192       14.0405       12.0171
          204       6.89581       1.30112       9.61391       14.0273       11.9945
          205       6.88038       1.31953       9.65548       14.0141       11.9719
          206         6.865       1.33798       9.69663        14.001       11.9494
          207       6.84969       1.35647       9.73736        13.988        11.927
          208       6.83445       1.37499       9.77769       13.9751       11.9046
          209       6.81931       1.39354       9.81762       13.9622       11.8823
          210       6.80426       1.41213       9.85715       13.9495       11.8601
          211       6.78931       1.43075       9.89629       13.9368        11.838
          212       6.77448        1.4494       9.93505       13.9243        11.816
          213       6.75976       1.46808       9.97342       13.9118       11.7941
          214       6.74517       1.48679       10.0114       13.8996       11.7724
          215       6.73072       1.50553        10.049       13.8874       11.7507
          216        6.7164       1.52429       10.0863       13.8754       11.7292
          217       6.70223       1.54308       10.1232       13.8635       11.7079
          218       6.68821        1.5619       10.1598       13.8518       11.6867
          219       6.67434       1.58074        10.196       13.8402       11.6657
          220       6.66064       1.59961       10.2318       13.8288       11.6449
          221       6.64711       1.61849       10.2673       13.8176       11.6242
          222       6.63374        1.6374       10.3025       13.8065       11.6038
          223       6.62055       1.65633       10.3373       13.7957       11.5835
          224       6.60755       1.67528       10.3719       13.7849       11.5634
          225       6.59472       1.69425        10.406       13.7744       11.5435
          226       6.58208       1.71323       10.4399       13.7641       11.5238
          227       6.56963       1.73223       10.4735       13.7539       11.5044
          228       6.55738       1.75124       10.5067       13.7439       11.4851
          229       6.54532       1.77028       10.5396       13.7342       11.4661
          230       6.53345       1.78932       10.5723       13.7246       11.4472
          231       6.52179       1.80839       10.6046       13.7152       11.4286
          232       6.51032       1.82746       10.6366        13.706       11.4102
          233       6.49905       1.84655       10.6683        13.697        11.392
          234       6.48799       1.86565       10.6998       13.6881       11.3741
          235       6.47713       1.88477        10.731       13.6795       11.3564
          236       6.46647        1.9039       10.7618       13.6711       11.3389
          237       6.45602       1.92303       10.7924       13.6628       11.3217
          238       6.44576       1.94218       10.8228       13.6548       11.3046
          239       6.43572       1.96134       10.8528        13.647       11.2879
          240       6.42588       1.98051       10.8826       13.6393       11.2713
          241       6.41625       1.99969       10.9121       13.6319        11.255
          242       6.40682       2.01887       10.9414       13.6246        11.239
          243       6.39758       2.03807       10.9704       13.6175       11.2231
          244       6.38852       2.05727       10.9991       13.6106       11.2075
          245       6.37964       2.07647       11.0275       13.6039       11.1921
          246       6.37096       2.09568       11.0558       13.5974       11.1769
          247       6.36248       2.11489       11.0837       13.5911       11.1619
          248        6.3542       2.13411       11.1114        13.585       11.1472
          249       6.34613       2.15332       11.1389       13.5791       11.1327
          250       6.33826       2.17254       11.1661       13.5733       11.1185
          251        6.3306       2.19176       11.1931       13.5677       11.1045
          252       6.32315       2.21098       11.2199       13.5624       11.0908
          253        6.3159        2.2302       11.2464       13.5572       11.0773
          254       6.30887       2.24941       11.2727       13.5521        11.064
          255       6.30204       2.26863       11.2987       13.5473        11.051
          256       6.29542       2.28783       11.3246       13.5426       11.0383
          257         6.289       2.30703       11.3502       13.5382       11.0258
          258       6.28279       2.32623       11.3756       13.5338       11.0135
          259       6.27678       2.34542       11.4008       13.5297       11.0015
          260       6.27097        2.3646       11.4257       13.5257       10.9897
          261       6.26535       2.38377       11.4505       13.5219       10.9782
          262       6.25993       2.40293        11.475       13.5183       10.9669
          263        6.2547       2.42208       11.4993       13.5148       10.9559
          264       6.24966       2.44121       11.5235       13.5115        10.945
          265       6.24481       2.46034       11.5474       13.5083       10.9345
          266       6.24013       2.47944       11.5711       13.5053       10.9241
          267       6.23564       2.49854       11.5946       13.5025        10.914
          268       6.23131       2.51761       11.6179       13.4998       10.9041
          269       6.22716       2.53667        11.641       13.4972       10.8944
          270       6.22317       2.55571        11.664       13.4948        10.885
          271       6.21935       2.57473       11.6867       13.4925       10.8757
          272       6.21569       2.59373       11.7092       13.4904       10.8667
          273       6.21219       2.61271       11.7316       13.4884       10.8579
          274       6.20884       2.63166       11.7538       13.4865       10.8493
          275       6.20565       2.65059       11.7757       13.4848       10.8409
          276       6.20261        2.6695       11.7975       13.4832       10.8328
          277       6.19971       2.68838       11.8191       13.4817       10.8248
          278       6.19696       2.70723       11.8406       13.4804       10.8171
          279       6.19435       2.72605       11.8618       13.4791       10.8095
          280       6.19188       2.74485       11.8829        13.478       10.8022
          281       6.18954       2.76361       11.9038        13.477        10.795
          282       6.18734       2.78234       11.9245       13.4761        10.788
          283       6.18527       2.80104       11.9451       13.4753       10.7813
          284       6.18332       2.81971       11.9655       13.4747       10.7747
          285        6.1815       2.83834       11.9857       13.4741       10.7684
          286        6.1798       2.85694       12.0057       13.4737       10.7622
          287       6.17822        2.8755       12.0256       13.4733       10.7562
          288       6.17675       2.89402       12.0453       13.4731       10.7503
          289        6.1754        2.9125       12.0648       13.4729       10.7447
          290       6.17416       2.93095       12.0842       13.4728       10.7392
          291       6.17303       2.94935       12.1034       13.4729       10.7339
          292         6.172       2.96771       12.1225        13.473       10.7288
          293       6.17107       2.98603       12.1414       13.4732       10.7239
          294       6.17024        3.0043       12.1602       13.4735       10.7191
          295       6.16951       3.02253       12.1787       13.4738       10.7144
          296       6.16888       3.04072       12.1972       13.4743         10.71
          297       6.16833       3.05886       12.2155       13.4748       10.7057
          298       6.16787       3.07695       12.2336       13.4754       10.7015
          299        6.1675       3.09499       12.2516       13.4761       10.6975
          300       6.16722       3.11298       12.2694       13.4769       10.6936
          301       6.16701       3.13092       12.2871       13.4777       10.6899
          302       6.16688       3.14881       12.3046       13.4786       10.6864
          303       6.16683       3.16665        12.322       13.4795        10.683
          304       6.16685       3.18443       12.3392       13.4806       10.6797
          305       6.16695       3.20216       12.3563       13.4816       10.6765
          306       6.16711       3.21983       12.3733       13.4828       10.6735
          307       6.16734       3.23745       12.3901        13.484       10.6706
          308       6.16763       3.25501       12.4068       13.4852       10.6678
          309       6.16799       3.27251       12.4233       13.4865       10.6652
          310        6.1684       3.28996       12.4397       13.4879       10.6627
          311       6.16887       3.30734       12.4559       13.4893       10.6603
          312        6.1694       3.32467       12.4721       13.4908        10.658
          313       6.16998       3.34193       12.4881       13.4923       10.6558
          314       6.17061       3.35913       12.5039       13.4938       10.6537
          315        6.1713       3.37626       12.5196       13.4954       10.6517
          316       6.17203       3.39334       12.5352        13.497       10.6499
          317        6.1728       3.41034       12.5507       13.4987       10.6481
          318       6.17362       3.42729        12.566       13.5004       10.6464
          319       6.17448       3.44416       12.5812       13.5021       10.6448
          320       6.17538       3.46097       12.5962       13.5039       10.6434
          321       6.17631       3.47771       12.6112       13.5057        10.642
          322       6.17729       3.49438        12.626       13.5075       10.6407
          323       6.17829       3.51098       12.6407       13.5094       10.6395
          324       6.17933       3.52752       12.6553       13.5113       10.6383
          325        6.1804       3.54398       12.6697       13.5132       10.6373
          326        6.1815       3.56037        12.684       13.5151       10.6363
          327       6.18263       3.57668       12.6982       13.5171       10.6355
          328       6.18379       3.59293       12.7123       13.5191       10.6347
          329       6.18496        3.6091       12.7262       13.5211        10.634
          330       6.18617       3.62519       12.7401       13.5231       10.6333
          331       6.18739       3.64121       12.7538       13.5251       10.6327
          332       6.18864       3.65715       12.7674       13.5272       10.6323
          333        6.1899       3.67302       12.7809       13.5293       10.6318
          334       6.19118       3.68881       12.7943       13.5313       10.6315
          335       6.19248       3.70452       12.8075       13.5334       10.6312
          336       6.19379       3.72015       12.8207       13.5356       10.6309
          337       6.19512        3.7357       12.8337       13.5377       10.6308
          338       6.19646       3.75117       12.8466       13.5398       10.6307
          339       6.19781       3.76657       12.8594       13.5419       10.6306
          340       6.19918       3.78188       12.8721       13.5441       10.6306
          341       6.20055       3.79712       12.8847       13.5462       10.6307
          342       6.20193       3.81228       12.8972       13.5484       10.6308
          343       6.20332       3.82737       12.9096       13.5506        10.631
          344       6.20471       3.84238       12.9218       13.5527       10.6312
          345       6.20611       3.85731        12.934       13.5549       10.6314
          346       6.20752       3.87216        12.946       13.5571       10.6317
          347       6.20893       3.88694        12.958       13.5593       10.6321
          348       6.21034       3.90165       12.9698       13.5614       10.6325
          349       6.21175       3.91628       12.9815       13.5636       10.6329
          350       6.21317       3.93084       12.9932       13.5658       10.6334
          351       6.21458       3.94532       13.0047       13.5679       10.6339
          352         6.216       3.95973       13.0162       13.5701       10.6345
          353       6.21741       3.97407       13.0275       13.5723       10.6351
          354       6.21882       3.98834       13.0387       13.5744       10.6357