# Probe 0 (0.0005 0.0001 0.0007)
# Probe 1 (0.0005 0.0001 0.0063)
# Probe 2 (0.0005 0.0009 0.0063)
# Probe 3 (0.0005 0.0009 0.0007)
# Probe 4 (0.0005 0.0005 0.0035)
#       Probe             0             1             2             3             4
#        Time
            1       10.0033            10       22.0335       814.538       10.0005
            2       10.1398            10       35.8354       1976.13       10.0127
            3       10.3945       10.0001       118.347        5402.1       10.0602
            4       10.6748       10.0008       453.474       10896.7       10.1179
            5        10.917       10.0025       1300.98       19140.9       10.1902
            6       10.9267       10.0072       2549.93       29856.1        10.287
            7        10.969       10.0176       4846.05       42618.2       10.4046
            8       11.0839       10.0358       8649.57       57035.2       10.5317
            9       11.2379       10.0622       14016.6       72904.5       10.6641
           10       11.6023       10.1091       25281.9       96681.6       10.9497
           11       12.0028       10.1735       39620.5        120674       11.3606
           12       12.3046       10.2627       56640.5        144504       12.0284
           13       12.5269       10.3789       75898.3        167894       13.2069
           14       12.8067       10.5176       96820.8        190518       15.4399
           15        13.211       10.6708        118891        212137       19.9608
           16       13.7395       10.8263        141558        232514       29.2713
           17       14.2834       10.9631        164354        251499       49.6349
           18       14.8356       11.0577        187758        268968       112.274
           19        15.051       11.0898        210161        284888       234.868
           20        15.887       11.0911        231385        299294        437.25
           21       17.1238       11.1529        251316        312278       747.881
           22       18.9152       11.3372        269902        323949       1173.04
           23       21.4782        11.664        287136        334397       1701.67
           24       30.3561       12.0588        303043        343707       2347.28
           25       44.0265       12.4911        317672        351968       3163.36
           26       65.1491       12.9621        331086        359272       4169.12
           27       87.0327       13.4783        343352        365702       5359.52
           28       113.871       14.0468        354542        371333       6726.97
           29       142.732       14.6744        364730        376244       8257.85
           30       180.818       15.3686        373991        380513       9931.53
           31       232.017       16.1371        382394        384209       11725.3
           32       301.708       16.9888        390009        387402         13622
           33       376.488       17.9331        396896        390154       15611.9
           34       458.423       18.9808        403111        392524       17690.7
           35       547.954       20.1438        408705        394566         19859
           36       647.248       21.4361        413731        396338       22115.1
           37        758.45       22.8734        418234        397893         24459
           38       883.639       24.4738        422258        399288       26891.7
           39       1025.15       26.2581        425842        400578         29408
           40       1185.79       28.2504        429026        401819       31989.2
           41       1395.32       30.4829        431866        403098       34746.5
           42       1636.98       32.9857        434361        404434       37392.9
           43       1917.75       35.7971        436543        405904       39877.1
           44       2242.56        38.962        438443        407575       42228.6
           45       2625.54       42.5329        440087        409514       44452.1
           46       3078.32       46.5716        441499        411779       46597.1
           47       3617.86       51.1514        442703        414419       48670.3
           48       4274.06       56.3587        443717        417474       50656.6
           49       5079.81       62.2971        444563        420966         52542
           50       6079.47       69.0902        445255        424897       54318.1
           51       7308.57       76.8861        445809        429238       55968.5
           52        8781.2       85.8641        446238        433929       57487.6
           53         10455       96.2415        446555        438858       58873.4
           54         12299       108.298        446737        443840       60127.2
           55       14265.8       122.357        446815        448661       61189.9
           56       16288.5       138.812        446811        453103       62010.5
           57       18275.7       158.141        446741        456974       62672.8
           58       20141.8       180.921        446618        460133       63269.5
           59       21834.1       207.835        446451        462520       63857.4
           60       23322.2       239.658        446249        464105       64463.1
           61       24592.6       277.215        446018        464937       65081.3
           62       25651.5       321.259        445765        465095         65696
           63       26520.7       372.255        445494        464654       66295.5
           64       27227.5       430.497        445212        463727       66873.7
           65       27800.8        496.96        444924        462421       67423.5
           66       28268.7       573.545        444634        460793       67939.3
           67       28621.6       662.924        444348        458972       68410.1
           68       28927.5       768.191        444071        456985       68848.5
           69       29196.8       893.009        443807        454910       69254.8
           70       29437.1       1041.63        443561        452795       69628.1
           71       29653.6       1218.95        443336        450671         69968
           72       29849.5       1430.58        443137        448542         70275
           73       30026.9       1682.68        442966        446412         70550
           74         30187       1981.65        442828        444300       70794.4
           75       30330.3       2333.47        442726        442218       71009.6
           76       30457.4       2742.41        442661        440176       71197.2
           77       30568.5       3208.57        442637        438175       71358.5
           78       30663.6       3724.74        442655        436214       71494.8
           79       30743.2       4271.79        442716        434290       71607.2
           80       30807.3       4832.88        442822        432402       71696.9
           81       30856.1       5407.67        442972        430544       71764.9
           82         30890       5995.91        443165        428720       71812.2
           83       30909.2       6597.33        443402        426931       71839.9
           84         30914       7211.49        443680        425175       71849.2
           85       30904.5       7837.89        443997        423450       71840.9
           86       30881.2       8475.84        444349        421755       71816.2
           87       30844.3       9124.47        444733        420087       71775.8
           88       30794.1       9782.68        445144        418446       71720.8
           89       30731.3       10449.1        445579        416830       71651.8
           90       30656.6         11122        446031        415240       71569.8
           91       30570.4       11799.4        446495        413674       71475.3
           92       30473.3       12478.8        446965        412134       71369.3
           93       30367.6       13157.6        447435        410626       71252.4
           94       30252.9       13832.8        447897        409149       71125.4
           95       30128.3       14501.3        448346        407702       70988.6
           96         29995         15160        448774        406281       70842.7
           97       29855.1       15805.5        449175        404887       70688.1
           98         29710       16434.8        449542        403519       70525.3
           99       29560.9       17045.3        449870        402177       70354.7
          100       29408.4       17635.1        450151        400862       70176.8
          101       29253.3       18202.7        450381        399575         69992
          102       29096.2       18747.3        450553        398314       69800.7
          103       28938.8       19269.2        450663        397082       69603.3
          104       28784.8       19769.6        450706        395878         69400
          105       28632.3       20248.7        450678        394703       69191.2
          106         28481       20690.6        450575        393557       68977.3
          107       28330.6       21103.2        450392        392439       68758.7
          108       28181.3       21490.6        450128        391351       68535.7
          109       28032.8       21857.4        449778        390291       68308.6
          110       27884.9       22205.7        449342        389260       68077.6
          111         27738       22537.5        448817        388258       67842.8
          112         27593       22853.1        448205        387284       67604.1
          113       27450.4       23153.1        447505        386338       67361.7
          114       27310.1       23437.5        446719        385413       67116.8
          115       27172.8       23706.9        445849        384514       66869.5
          116       27038.8       23961.9        444901        383643       66619.7
          117       26908.3       24202.8        443878        382799       66367.4
          118       26781.2       24430.2        442786        381984       66112.8
          119       26657.6       24644.6        441632        381197       65856.2
          120       26537.5       24846.7        440422        380436       65597.6
          121       26420.8       25036.9        439161        379701       65337.4
          122       26307.4       25215.9        437858        378991       65075.8
          123       26196.8       25384.2        436520        378306         64813
          124       26089.2       25542.4        435155        377645       64549.3
          125       25984.7       25691.2        433770        377007       64284.8
          126       25883.3       25831.1        432372        376391       64019.7
          127       25785.3       25962.7        430969        375796       63754.2
          128       25690.4       26086.7        429566        375223       63488.5
          129       25598.7       26203.7        428167        374670       63222.4
          130       25510.1       26314.3        426777        374137       62955.9
          131       25424.5         26419        425398        373623         62689
          132       25341.6       26518.4        424035        373128       62422.1
          133       25261.4       26613.1        422688        372651       62155.2
          134       25183.4       26703.6        421360        372191       61888.7
          135       25107.5       26790.4        420050        371749       61622.9
          136       25033.6       26874.1        418762        371323       61357.8
          137       24961.4       26955.2        417494        370914       61093.7
          138         24891         27034        416247        370519       60830.8
          139       24822.1       27111.2        415024        370140       60569.2
          140       24754.7       27187.1        413824        369776         60309
          141       24688.7       27261.6        412649        369426       60050.5
          142       24624.1       27335.3        411498        369090       59793.8
          143       24560.6       27408.5        410373        368767       59539.4
          144       24498.2       27481.3        409273        368457       59287.3
          145       24436.7         27554        408198        368159       59037.7
          146         24376       27626.9        407148        367874       58790.6
          147       24316.1       27700.2        406122        367600       58546.1
          148       24256.9       27774.1        405121        367338       58304.1
          149       24198.3       27848.8        404143        367087       58064.8
          150       24140.3       27924.6        403189        366846         57828
          151         24083       28001.6        402258        366616       57593.8
          152       24026.2         28080        401350        366396       57362.4
          153         23970       28159.8        400463        366186         57134
          154       23914.3       28241.2        399598        365985       56909.8
          155       23859.1       28324.1        398754        365793       56690.3
          156       23804.4       28408.6        397931        365610         56475
          157         23750       28494.7        397127        365435       56263.5
          158       23696.1       28582.3        396343        365269       56055.4
          159       23642.6       28671.4        395578        365111       55850.7
          160       23589.5       28761.8        394832        364960       55649.1
          161       23536.9       28853.4        394103        364817       55450.6
          162       23484.6       28946.2        393392        364681       55255.3
          163       23432.8         29040        392699        364552         55063
          164       23381.4       29134.8        392022        364430       54874.2
          165       23330.4       29230.6        391362        364315       54688.9
          166       23279.8       29327.3        390718        364206       54507.3
          167       23229.7       29424.7        390090        364103         54329
          168       23179.9       29522.7        389477        364006         54154
          169       23130.5       29621.3        388878        363915       53982.2
          170       23081.6       29720.4        388294        363830       53813.5
          171       23033.1         29820        387724        363750       53647.8
          172       22985.1       29919.9        387167        363676         53485
          173       22937.5         30020        386624        363606         53325
          174       22890.4       30120.3        386093        363542       53166.9
          175       22843.7       30220.6        385575        363482       53011.1
          176       22797.6       30320.9        385069        363427       52858.1
          177       22751.9         30421        384575        363377       52707.9
          178       22706.6         30521        384093        363331       52560.5
          179       22661.9       30620.7        383622        363289         52416
          180       22617.7       30720.1        383162        363252       52274.2
          181         22574       30819.1        382712        363219       52135.1
          182       22530.8       30917.6        382273        363189       51998.6
          183       22488.1       31015.6        381844        363164       51864.4
          184         22446         31113        381425        363142       51732.4
          185       22404.4       31209.8        381016        363123       51602.8
          186       22363.3       31305.9        380616        363109       51475.7
          187       22322.9       31401.3        380225        363098         51351
          188       22282.9         31496        379844        363090       51228.8
          189       22243.5       31589.8        379471        363085       51109.1
          190       22204.7       31682.8        379107        363083       50991.8
          191       22166.5       31774.9        378751        363085       50876.9
          192       22128.8       31866.1        378403        363089       50764.4
          193       22091.8       31956.4        378063        363097         50654
          194       22055.3       32045.7        377732        363107       50545.8
          195       22019.4       32134.1        377407        363120       50439.7
          196       21984.1       32221.4        377091        363135       50335.7
          197       21949.4       32307.6        376781        363153         50234
          198       21915.2       32392.8        376479        363173       50134.3
          199       21881.7       32476.9        376184        363195       50036.9
          200       21848.7       32559.8        375895        363220       49941.5
          201       21816.4       32641.6        375614        363247       49848.2
          202       21784.6       32722.3        375339        363275         49757
          203       21753.5       32801.9        375070        363306       49667.9
          204       21722.9       32880.3        374808        363339       49580.7
          205       21692.9       32957.6        374552        363373       49495.6
          206       21663.5       33033.8        374302        363409       49412.4
          207       21634.7       33108.9        374057        363446       49331.1
          208       21606.5       33182.9        373819        363485       49251.7
          209       21578.9       33255.8        373586        363525       49174.1
          210       21551.9       33327.7        373358        363566       49098.4
          211       21525.4       33398.5        373136        363609       49024.4
          212       21499.6       33468.3        372919        363653       48952.2
          213       21474.3         33537        372707        363698       48881.8
          214       21449.5       33604.8        372500        363744         48813
          215       21425.4       33671.6        372298        363791         48746
          216       21401.8       33737.3        372101        363838       48680.6
          217       21378.8       33802.2        371908        363887       48616.9
          218       21356.3         33866        371720        363936       48554.8
          219       21334.5       33928.9        371537        363986       48494.4
          220       21313.1       33990.8        371358        364036       48435.5
          221       21292.3       34051.8        371183        364087       48378.2
          222       21272.1       34111.9        371012        364138       48322.5
          223       21252.4         34171        370845        364190       48268.3
          224       21233.2       34229.3        370683        364242       48215.6
          225       21214.6       34286.6        370524        364295       48164.3
          226       21196.5         34343        370369        364347       48114.5
          227         21179       34398.6        370218        364400       48066.2
          228       21161.9       34453.2        370070        364453       48019.2
          229       21145.4         34507        369926        364506       47973.6
          230       21129.4         34560        369786        364559       47929.4
          231       21113.8       34612.1        369649        364612       47886.5
          232       21098.8       34663.3        369515        364665       47844.8
          233       21084.3       34713.7        369385        364718       47804.5
          234       21070.2       34763.3        369257        364771       47765.4
          235       21056.6       34812.1        369133        364823       47727.6
          236       21043.5       34860.1        369012        364876         47691
          237       21030.8       34907.3        368894        364928       47655.6
          238       21018.6       34953.7        368779        364980       47621.3
          239       21006.8       34999.3        368666        365031       47588.3
          240       20995.4       35044.1        368557        365082       47556.3
          241       20984.5       35088.1        368450        365133       47525.5
          242       20974.1       35131.3        368346        365183       47495.8
          243       20965.7       35174.1        368247        365234       47470.2
          244       20957.5       35216.2        368150        365283       47445.3
          245       20949.5       35257.4        368055        365332       47421.1
          246       20941.8       35297.9        367962        365381       47397.6
          247       20934.2       35337.6        367871        365429       47374.9
          248       20926.8       35376.5        367783        365477       47352.9
          249       20919.7       35414.7        367696        365524       47331.7
          250       20912.9       35452.1        367612        365571       47311.3
          251       20906.3       35488.7        367529        365617       47291.7
          252         20900       35524.6        367449        365662       47272.9
          253         20894       35559.8        367370        365707       47254.8
          254       20888.2       35594.2        367294        365752       47237.5
          255       20882.7       35627.9        367219        365796       47220.9
          256       20877.5       35660.8        367147        365839       47205.1
          257       20872.6       35692.9        367076        365882         47190
          258         20868       35724.4        367007        365924       47175.7
          259       20863.6       35755.1        366940        365966       47162.1
          260       20859.5       35785.1        366874        366007       47149.2
          261       20855.7       35814.3        366811        366048         47137
          262       20852.2       35842.8        366749        366088       47125.5
          263         20849       35870.6        366688        366128       47114.6
          264         20846       35897.7        366629        366166       47104.4
          265       20843.3         35924        366572        366205       47094.9
          266       20840.8       35949.7        366516        366242         47086
          267       20838.5       35974.6        366462        366280       47077.6
          268       20836.6       35998.8        366409        366316       47069.8
          269       20834.8       36022.3        366358        366352       47062.6
          270       20833.3       36045.1        366308        366387         47056
          271         20832       36067.2        366260        366422       47049.9
          272       20830.9       36088.6        366212        366456       47044.4
          273         20830       36109.4        366167        366490       47039.4
          274       20829.3       36129.4        366122        366522       47034.9
          275       20828.9       36148.7        366079        366555         47031
          276       20828.6       36167.4        366036        366586       47027.5
          277       20828.5       36185.4        365995        366618       47024.6
          278       20828.7       36202.7        365956        366648       47022.1
          279         20829       36219.3        365917        366678       47020.1
          280       20829.4       36235.3        365879        366707       47018.6
          281       20830.1       36250.6        365843        366736       47017.5
          282       20830.9       36265.2        365808        366765       47016.9
          283       20831.9       36279.2        365773        366792       47016.7
          284         20833       36292.5        365740        366820       47016.9
          285       20834.3       36305.1        365707        366846       47017.5
          286       20835.8       36317.1        365676        366872       47018.5
          287       20837.4       36328.5        365646        366898       47019.9
          288       20839.1       36339.2        365616        366923       47021.7
          289       20840.9       36349.3        365588        366948       47023.8
          290       20842.9       36358.7        365560        366972       47026.2
          291         20845       36367.5        365533        366996         47029
          292       20847.2       36375.7        365507        367019         47032
          293       20849.6       36383.2        365482        367042       47035.4
          294         20852       36390.2        365457        367064       47039.1
          295       20854.5       36396.5        365434        367086       47043.1
          296       20857.2       36402.1        365411        367108       47047.3
          297       20859.9       36407.2        365389        367129       47051.8
          298       20862.7       36411.7        365368        367150       47056.5
          299       20865.6       36415.5        365347        367170       47061.5
          300       20868.5       36418.8        365327        367190       47066.7
          301       20871.6       36421.4        365308        367209       47072.2
          302       20874.7       36423.5        365289        367228       47077.8
          303       20877.9         36425        365271        367247       47083.7
          304       20881.1       36425.8        365254        367265       47089.7
          305       20884.4       36426.1        365237        367283       47095.9
          306       20887.7       36425.8        365221        367301       47102.3
          307       20891.1       36424.9        365206        367318       47108.9
          308       20894.5       36423.5        365191        367335       47115.6
          309         20898       36421.4        365176        367352       47122.4
          310       20901.5       36418.8        365163        367368       47129.4
          311         20905       36415.6        365149        367384       47136.5
          312       20908.6       36411.9        365137        367399       47143.7
          313       20912.2       36407.6        365124        367415         47151
          314       20915.8       36402.7        365113        367430       47158.4
          315       20919.4       36397.3        365102        367444       47165.9
          316       20923.1       36391.3        365091        367459       47173.4
          317       20926.7       36384.8        365080        367473         47181
          318       20930.4       36377.8        365071        367487       47188.7
          319       20934.1       36370.1        365061        367500       47196.5
          320       20937.8         36362        365052        367514       47204.4
          321       20941.4       36353.3        365044        367527       47212.3
          322       20945.1         36344        365035        367540       47220.3
          323       20948.8       36334.3        365028        367552       47228.3
          324       20952.5         36324        365020        367565       47236.4
          325       20956.2       36313.1        365013        367577       47244.6
          326       20959.8       36301.8        365007        367588       47252.8
          327       20963.5       36289.9        365000        367600         47261
          328       20967.1       36277.5        364994        367612       47269.2
          329       20970.7       36264.5        364989        367623       47277.5
          330       20974.3       36251.1        364983        367634       47285.8
          331       20977.9       36237.1        364978        367645       47294.1
          332       20981.5       36222.6        364974        367655       47302.5
          333         20985       36207.6        364969        367666       47310.8
          334       20988.5       36192.1        364965        367676       47319.1
          335         20992         36176        364962        367686       47327.4
          336       20995.5       36159.4        364958        367696       47335.8
          337       20998.9       36142.4        364955        367706       47344.1
          338       21002.3       36124.8        364952        367715       47352.4
          339       21005.7       36106.7        364949        367725       47360.7
          340       21009.1       36088.2        364947        367734       47368.9
          341       21012.4       36069.1        364945        367743       47377.1
          342       21015.7       36049.6        364943        367752       47385.3
          343       21018.9       36029.5        364941        367761       47393.5
          344       21022.1         36009        364939        367770       47401.6
          345       21025.3       35988.1        364938        367779       47409.7
          346       21028.5       35966.7        364937        367787       47417.8
          347       21031.6       35944.8        364936        367796       47425.8
          348       21034.6       35922.4        364935        367804       47433.7
          349       21037.7       35899.7        364935        367812       47441.6
          350       21040.7       35876.5        364934        367820       47449.5
          351       21043.6       35852.8        364934        367828       47457.3
          352       21046.6       35828.8        364934        367836         47465
          353       21049.4       35804.3        364934        367844       47472.7
          354       21052.3       35779.4        364935        367852       47480.3