# Probe 0 (0.0005 0.0001 0.0007)
# Probe 1 (0.0005 0.0001 0.0063)
# Probe 2 (0.0005 0.0009 0.0063)
# Probe 3 (0.0005 0.0009 0.0007)
# Probe 4 (0.0005 0.0005 0.0035)
#       Probe             0             1             2             3             4
#        Time
            1   4.17062e-13   8.63044e-13   8.59891e-13   4.15755e-13   7.71841e-13
            2   3.66266e-14  -5.98063e-13   2.06955e-13  -2.47256e-14   6.13501e-14
            3   1.02568e-13   1.09818e-12   -9.3438e-15   1.79772e-13   1.05765e-13
            4   7.71586e-14  -7.30746e-13   1.87242e-13   5.62394e-14  -1.77322e-14
            5   1.49761e-14   1.24163e-13  -1.62833e-13  -2.51686e-14   -2.4183e-14
            6  -1.43069e-14  -6.96691e-15  -1.58054e-13   1.96901e-14  -3.45817e-14
            7   4.98311e-14  -1.14001e-13   7.17196e-14   5.20883e-14   3.87617e-14
            8   2.95094e-14    1.9944e-13   6.99095e-14   3.23854e-15   6.98038e-14
            9  -4.55502e-15    9.7533e-14   1.47796e-13   1.68043e-15   4.48472e-14
           10    3.3872e-14   7.40406e-14   1.03515e-13    4.0524e-14    6.7196e-14
           11   9.83525e-15   -3.8197e-14   -7.3961e-14   5.95705e-15   -1.0526e-14
           12   1.29014e-14  -8.28396e-14   -7.1058e-14   1.91738e-14  -3.02751e-14
           13   1.03651e-14  -2.23973e-14  -4.15521e-14   7.65315e-15  -2.08229e-14
           14  -1.15771e-16  -6.17699e-15   1.58752e-14  -7.35894e-15  -1.56527e-14
           15   -4.4767e-15   5.26696e-14     4.427e-14    4.0724e-15   2.86442e-14
           16   8.56962e-15   4.48293e-14    4.1071e-14   5.46603e-15   3.95893e-14
           17   2.61354e-14   2.20256e-14   3.84363e-14   2.55042e-14   4.06861e-14
           18  -1.18456e-14   -5.4403e-16  -2.40567e-14  -1.11264e-14   -3.2971e-14
           19   2.50088e-15  -3.48746e-14  -1.64711e-14    1.5836e-15   -2.4487e-14
           20   1.58127e-14  -1.18709e-14  -1.74515e-14   1.77428e-14   2.55098e-14
           21  -1.31393e-14  -2.63523e-14  -3.74575e-14  -1.92884e-14  -2.62337e-14
           22  -7.57567e-15   7.55281e-15   2.76047e-14  -5.52822e-16   -1.3098e-14
           23   4.98944e-15   4.04261e-14   3.05696e-14   4.29865e-15   2.49566e-14
           24   1.73499e-14   4.13379e-14   3.64577e-14     1.395e-14   4.57967e-14
           25   1.06975e-15  -1.00212e-14  -2.04892e-16   6.94167e-16  -9.94509e-15
           26   2.61919e-14   1.95502e-14   1.33046e-14   3.05566e-14   2.06475e-14
           27   2.47727e-15  -2.96519e-14  -3.05626e-14  -3.08405e-15  -2.25527e-14
           28   2.81026e-14   3.28722e-14   3.62571e-14   3.18222e-14   4.10801e-14
           29   1.37657e-15  -9.74676e-15  -1.00686e-14   -4.2587e-15   -6.5606e-15
           30   2.27293e-14   3.89501e-14   3.53857e-14   3.19699e-14   3.14156e-14
           31  -3.50577e-15   1.13873e-15   2.87056e-15  -1.00513e-14  -8.03934e-15
           32   2.77008e-14   3.81293e-14   4.20126e-14   2.88458e-14   4.25743e-14
           33  -7.20478e-15  -1.34913e-14  -1.86696e-14  -7.91512e-15  -2.01324e-14
           34   8.49228e-15   -6.1313e-15  -6.03384e-15   1.18587e-14   1.27067e-15
           35   7.89359e-16  -1.04376e-14  -7.53822e-15  -1.84798e-15  -1.89627e-15
           36   1.75263e-14    5.4232e-14   5.02771e-14   1.76621e-14   4.07677e-14
           37  -2.33142e-14  -2.43483e-14  -2.22021e-14  -2.57336e-14  -3.57153e-14
           38     3.704e-14    4.1308e-14    4.6647e-14   4.59624e-14   5.24031e-14
           39   9.10245e-15   1.51903e-14   4.53972e-15   -2.4633e-15    8.9601e-15
           40  -1.13551e-14  -4.00971e-14  -3.22223e-14  -8.75322e-15  -2.83867e-14
           41   1.33892e-15  -1.11155e-14  -1.14622e-14   8.85824e-15  -2.08685e-15
           42   3.27078e-14   3.66862e-14   3.04805e-14   2.61864e-14   3.33853e-14
           43   8.66652e-15   9.39335e-15   1.61205e-14   9.22078e-15   1.56999e-14
           44   1.86055e-14   5.82605e-14   5.22169e-14   2.43712e-14   4.20778e-14
           45  -5.82187e-15   7.85132e-15   1.21358e-14  -1.60106e-14  -1.02928e-14
           46   2.77604e-14  -7.14032e-15  -2.50877e-15   3.39353e-14   1.13862e-14
           47   4.08491e-14   2.48382e-14   1.66766e-14   4.26043e-14   3.95285e-14
           48   4.71723e-15  -5.05161e-15  -5.56795e-15   -2.4175e-15  -2.87817e-15
           49   1.07061e-14   2.39298e-14   2.77894e-14    1.6981e-14   9.48963e-15
           50   3.08663e-14   7.53333e-14   7.31611e-14   3.07339e-14   6.75805e-14
           51   1.19637e-14  -1.46389e-14  -1.68316e-14   4.13985e-15  -1.38004e-14
           52   6.89936e-15  -3.15402e-14  -2.59137e-14   1.53366e-14  -2.49519e-14
           53   4.77212e-14    1.0987e-13   1.06372e-13   4.91572e-14   1.08069e-13
           54   1.80201e-14   3.01956e-14   3.18607e-14   4.84571e-15   2.44658e-14
           55  -1.50132e-14  -6.87755e-14  -7.00511e-14  -4.12036e-15  -7.81677e-14
           56   3.18986e-14   3.47548e-14   2.91596e-14   3.65368e-14   4.98334e-14
           57   2.67558e-14    1.8768e-14   2.73811e-14   1.10497e-14   4.28406e-14
           58   1.38221e-14   3.45635e-14   3.35689e-14   2.34203e-14   1.94173e-14
           59   3.80296e-14   8.80645e-14   7.98242e-14   4.41882e-14   4.33428e-14
           60   1.63937e-14  -1.12539e-14   1.85435e-15   3.85539e-16   5.99445e-16
           61   2.43666e-14   1.72831e-14    9.1284e-15   3.44452e-14   3.11262e-14
           62   8.40589e-15  -2.88882e-14  -3.18855e-14    3.1932e-15  -1.51143e-15
           63   5.24699e-14   5.34875e-14   5.64562e-14   5.98309e-14   5.34333e-14
           64   8.73573e-14   1.46484e-13    1.5193e-13   8.90061e-14   1.24298e-13
           65   1.95677e-14   5.90473e-14   5.18575e-14   4.00906e-15    2.6309e-14
           66   5.43825e-15  -1.07595e-13  -1.02351e-13   1.61338e-14  -5.75266e-14
           67   1.90058e-14  -6.14488e-14  -6.56124e-14   2.00034e-14  -3.52393e-14
           68   4.20317e-14   1.49863e-13   1.51761e-13    3.3518e-14   1.04573e-13
           69   1.37246e-14   1.07506e-13   1.09001e-13   2.09777e-14   7.60073e-14
           70   3.60017e-14  -6.00058e-14  -6.18074e-14    3.4977e-14  -1.66976e-14
           71   2.16162e-14  -5.32656e-14  -5.65497e-14   1.65818e-14  -3.06317e-14
           72   2.01557e-14   1.71882e-13   1.72888e-13   2.81316e-14   1.01664e-13
           73   7.10789e-14   8.19109e-14   8.91541e-14   6.49016e-14   1.25004e-13
           74  -4.66083e-15  -1.06485e-13  -1.13592e-13  -8.92319e-15  -1.16016e-13
           75  -2.41993e-14   -1.3313e-13  -1.31338e-13  -2.36676e-14  -1.29674e-13
           76   5.03161e-14   2.35745e-13   2.35543e-13   6.63928e-14   2.66813e-13
           77   8.86931e-14   1.62902e-13    1.5914e-13   7.23871e-14   1.05734e-13
           78  -6.58305e-15  -1.70809e-13  -1.59815e-13  -8.49515e-15  -1.75968e-13
           79   4.53382e-14  -3.25847e-14  -3.65072e-14    6.4599e-14   6.46491e-14
           80   1.48811e-14   3.29961e-14   2.36467e-14  -5.14821e-15   4.08468e-14
           81   1.71174e-14   8.09681e-14   8.83679e-14   2.04998e-14   1.68063e-14
           82   7.41839e-14   1.56269e-13   1.57175e-13   8.97189e-14    1.0757e-13
           83   8.54006e-14   1.04352e-13   1.04071e-13   6.91081e-14   1.17525e-13
           84   1.20088e-13   1.18525e-13   1.13755e-13   1.22232e-13     1.231e-13
           85   8.02939e-14  -2.88159e-15   2.21831e-15   8.24794e-14   3.12114e-14
           86   8.04145e-14   5.14447e-14   4.87233e-14   8.16128e-14     7.132e-14
           87   4.30178e-14   3.67264e-14   3.38982e-14   4.22026e-14   4.46896e-14
           88   4.28139e-14   3.50837e-14   3.94781e-14   4.00925e-14   3.00752e-14
           89   4.03859e-14   5.44116e-14   5.33325e-14   4.13232e-14   2.43048e-14
           90   4.47812e-14   9.17478e-14   9.09345e-14   3.98594e-14    6.2037e-14
           91   1.91661e-14  -5.04085e-14  -4.08575e-14    9.4095e-15  -6.47728e-15
           92   3.44911e-14   3.43778e-14   1.97137e-14   5.52235e-14   4.80432e-14
           93   4.54147e-14   8.50882e-14   8.89294e-14   4.29618e-14    7.0809e-14
           94   7.43741e-14   1.14882e-13   1.20927e-13   6.88339e-14   1.01325e-13
           95   6.74207e-14   7.37412e-14   7.00232e-14   5.95511e-14   5.64642e-14
           96   1.05104e-13   1.17542e-13   1.18103e-13    1.1779e-13    1.1488e-13
           97   1.12945e-13   1.27872e-13   1.25074e-13   1.06848e-13    1.2726e-13
           98   1.07056e-13   7.19824e-14   7.37978e-14   9.67696e-14   8.45973e-14
           99   8.14268e-14   6.60118e-14   6.82672e-14   9.55516e-14   7.56116e-14
          100   8.57075e-14   1.22813e-13   1.17781e-13   8.91212e-14   1.11691e-13
          101   6.69432e-14   2.43342e-14   3.26721e-14   5.24773e-14   2.76819e-14
          102   3.67112e-14   2.05784e-14   1.51279e-14   4.81685e-14     2.126e-14
          103   9.73788e-14   2.54772e-13   2.51713e-13   1.02428e-13   2.25891e-13
          104   4.94065e-14    4.8594e-16   5.97825e-15   2.43325e-14  -2.62946e-14
          105   6.86153e-14   -1.6366e-13    -1.664e-13   8.41615e-14  -9.73742e-14
          106   1.07343e-13   2.47182e-13   2.45411e-13   1.14451e-13   2.68919e-13
          107   9.78393e-14   2.36881e-13    2.3536e-13   8.14703e-14   1.64899e-13
          108   7.46296e-14  -3.84829e-14  -2.98207e-14   8.60017e-14  -4.17831e-14
          109   1.06156e-13     5.898e-14    5.2997e-14   1.07846e-13   7.92609e-14
          110  -2.63297e-14  -2.00994e-13  -1.95507e-13  -5.71394e-14   -1.0447e-13
          111  -5.76235e-14  -1.14392e-13  -1.26726e-13   -1.7071e-14  -7.25789e-14
          112    1.1685e-13   4.73484e-13   4.85428e-13   1.12499e-13   3.15193e-13
          113   1.10767e-13     2.238e-13    2.2954e-13   8.01779e-14   1.58352e-13
          114   1.24086e-13  -1.61451e-14  -3.35042e-14   1.40142e-13   6.51256e-14
          115   1.46968e-13   4.30842e-14   5.47472e-14   1.71533e-13   1.10779e-13
          116   1.71378e-13   2.69197e-13   2.57644e-13   1.41286e-13   2.28173e-13
          117   9.00421e-14   1.41116e-13   1.44509e-13   7.88891e-14   4.81208e-14
          118   4.96303e-14   -3.5788e-14  -2.42599e-14    8.4326e-14  -5.20034e-15
          119  -1.20029e-14  -1.96904e-13   -2.0103e-13  -3.34472e-14  -1.08147e-13
          120   7.28864e-14   1.89111e-13   1.73977e-13   7.77952e-14   1.56059e-13
          121   1.10771e-13   2.62351e-13   2.82733e-13   1.11313e-13   2.08176e-13
          122    9.4146e-14   1.39616e-13     1.312e-13   8.43778e-14   1.17003e-13
          123    2.3504e-13   2.21816e-13   2.17759e-13   2.52078e-13   2.61782e-13
          124   2.43294e-13   2.16685e-13   2.13225e-13   2.31111e-13   2.28596e-13
          125    1.5037e-13   4.35295e-14   4.61301e-14   1.33734e-13   2.67505e-14
          126   5.55866e-14  -5.24145e-14  -3.93564e-14   9.20234e-14   1.47377e-14
          127   1.18596e-13   1.17085e-13   1.03326e-13   1.04935e-13   1.91944e-13
          128   2.03761e-13   5.26827e-13    5.2664e-13   2.02463e-13   3.33036e-13
          129   1.98513e-13   1.89556e-13   1.96704e-13   1.94134e-13   1.41096e-13
          130   1.79126e-13  -2.58178e-13  -2.55236e-13   1.74896e-13   -6.0552e-15
          131   1.61884e-13   2.62358e-13   2.56082e-13   1.61503e-13   2.27936e-13
          132   1.65196e-13   5.72596e-13   5.64797e-13   1.69407e-13   3.38852e-13
          133   1.18397e-13  -2.77066e-13  -2.57127e-13   1.11968e-13  -9.36155e-14
          134   6.36299e-14  -2.43008e-13  -2.62125e-13   7.55041e-14  -8.78922e-14
          135   4.14242e-14   3.51594e-13   3.54304e-13   1.57233e-14   1.69377e-13
          136    9.8306e-14    4.2295e-13   4.32408e-13   1.23497e-13   3.20422e-13
          137   5.06774e-14  -1.37728e-13  -1.40024e-13   5.33159e-14  -4.23888e-14
          138  -7.72216e-14  -3.59517e-13  -3.61928e-13  -1.11723e-13  -2.87393e-13
          139  -5.78329e-14  -2.94033e-14  -2.88213e-14  -2.90358e-14  -6.27183e-14
          140   1.25504e-13     4.729e-13   4.63496e-13    1.3338e-13   3.47639e-13
          141   6.20862e-14  -7.80997e-15   5.50812e-15   2.57291e-14   6.39754e-14
          142   1.59813e-13   1.86828e-13   1.71409e-13   2.07734e-13   2.18764e-13
          143   2.65518e-13   2.75706e-13   2.90489e-13   2.39998e-13   2.80321e-13
          144   1.67987e-13   9.87735e-14   8.71618e-14   1.45243e-13  -1.41083e-14
          145   1.37622e-13  -1.89735e-14  -1.64041e-15   1.74952e-13   1.08841e-13
          146   3.51017e-13    6.3678e-13   6.13555e-13   3.43738e-13   6.84939e-13
          147   2.45566e-13   2.62204e-13   2.81841e-13   2.10059e-13   1.71776e-13
          148   1.46882e-13  -2.36383e-13   -2.3862e-13    1.7554e-13  -2.59546e-13
          149   1.86011e-13   1.13944e-13   1.09616e-13   1.88612e-13   2.44954e-13
          150   1.21225e-13   4.75985e-13   4.69163e-13      9.46e-14   4.08951e-13
          151   2.76199e-13   7.05885e-13   7.07797e-13   2.97024e-13   4.74219e-13
          152   1.09097e-13  -3.91808e-13  -3.70297e-13   1.08452e-13  -2.70157e-13
          153   1.16905e-13  -2.52191e-13  -2.87177e-13   1.08515e-13  -7.90644e-14
          154    1.3745e-14   1.72519e-13   1.98284e-13  -4.26043e-15   1.77952e-13
          155   9.51315e-14   4.77278e-13   4.64935e-13   1.27528e-13   2.75003e-13
          156   8.51617e-14   6.53753e-14   7.43636e-14   6.34163e-14   7.72115e-15
          157   1.25783e-13  -3.44219e-13  -3.36716e-13    1.0891e-13  -4.88778e-14
          158   3.43844e-14   3.54126e-13   3.21626e-13   9.04717e-14    1.9598e-13
          159   5.04524e-14   2.25804e-13    2.5572e-13  -1.28388e-14    1.0172e-13
          160   2.70849e-14    -2.879e-13  -2.94511e-13   4.69254e-14  -1.36356e-13
          161  -8.49658e-14  -3.95072e-13  -4.01391e-13  -6.83463e-14  -2.40143e-13
          162   1.13061e-13   8.31065e-13   8.29575e-13   1.09417e-13   5.10309e-13
          163   2.05383e-13   1.36767e-13   1.56077e-13   2.04809e-13   2.53903e-13
          164    1.7006e-13   -2.8082e-13  -2.92593e-13   1.68218e-13  -1.19417e-13
          165   4.08461e-14   2.32463e-14   1.27319e-14   3.55265e-14  -5.31251e-14
          166   1.12616e-13   7.19534e-13   7.23859e-13   1.14147e-13   4.89617e-13
          167   8.29104e-14   7.70655e-14   9.88431e-14   8.13487e-14   1.35865e-13
          168  -8.25562e-14  -9.46783e-13  -9.72049e-13  -8.05341e-14  -7.19004e-13
          169  -7.27873e-14   2.69232e-14   2.33532e-14  -8.61472e-14   8.66053e-14
          170   4.40913e-15   6.21006e-13   6.33839e-13   1.87563e-14   3.86682e-13
          171   3.13066e-14   1.56759e-13   1.49806e-13   3.32714e-14  -3.39543e-14
          172  -1.02257e-13  -8.23136e-13  -8.13389e-13  -1.24684e-13  -4.92523e-13
          173   -1.0884e-13   -1.1155e-13  -1.30928e-13  -9.67317e-14  -3.94957e-14
          174   -7.5572e-15   7.01962e-13   7.14644e-13   3.24548e-15   4.05425e-13
          175   4.88628e-14  -9.28164e-14  -8.77992e-14   3.62043e-14  -2.85973e-14
          176   4.31905e-14  -3.57489e-13  -3.55213e-13   3.72439e-14  -2.03291e-13
          177  -6.02335e-15   1.22997e-13    1.1107e-13   9.23005e-15   7.95446e-14
          178    3.3294e-14   1.97616e-13   1.94033e-13   2.49326e-14   7.80466e-14
          179    1.3319e-13   1.22785e-13   1.47111e-13   1.40726e-13   1.79307e-13
          180     1.544e-13   1.32928e-13   1.03923e-13   1.50445e-13    1.7289e-13
          181   1.34611e-13   8.86591e-14   9.48318e-14    1.2693e-13   1.02779e-13
          182   1.10387e-13   4.01982e-14   6.11575e-14   1.16276e-13   3.95229e-14
          183   8.16892e-14   1.26602e-13   1.10657e-13    8.9271e-14   8.12855e-14
          184   1.04023e-13   1.38655e-13   1.39935e-13   9.05001e-14   1.56801e-13
          185   2.47995e-13   4.10261e-13   4.02639e-13   2.62768e-13   3.55126e-13
          186   9.87257e-14   3.81588e-14   4.65066e-14   6.76334e-14  -2.98976e-14
          187   9.96757e-14  -1.22305e-14  -1.66006e-15   1.24692e-13   2.97012e-14
          188   2.02346e-13    2.2326e-13     2.043e-13   2.02769e-13   3.33092e-13
          189   2.47885e-13   2.45513e-13   2.46292e-13   2.21027e-13   2.76892e-13
          190   1.77659e-13   1.30027e-13    1.4122e-13   1.94514e-13   8.32311e-14
          191   1.90446e-14  -3.81837e-14  -2.70013e-14   2.39258e-14  -5.21058e-14
          192   1.58936e-14   2.90167e-15  -2.29003e-14    7.3468e-15   7.66664e-15
          193   1.36781e-13   2.09576e-13    2.1392e-13   1.45729e-13   2.19757e-13
          194   8.53861e-14   7.12676e-14   8.75984e-14   5.83613e-14   7.27705e-14
          195   -5.0397e-14   1.16412e-14  -2.23605e-14  -2.16859e-14   -1.0073e-13
          196   9.00522e-14   1.39789e-13   1.67339e-13   1.01025e-13   1.24975e-13
          197   6.25312e-14  -1.31511e-13  -1.22922e-13   1.06445e-14   4.24068e-14
          198   6.40136e-14   7.52508e-14   2.85276e-14   1.10748e-13   9.59585e-14
          199    1.3961e-13   2.38101e-13   2.83872e-13   1.40841e-13   1.55581e-13
          200   2.04536e-14   7.62003e-14   7.24388e-14  -1.88362e-14   -2.8218e-14
          201   1.64862e-13   1.73461e-13    1.6072e-13   1.92158e-13   1.69714e-13
          202   6.84621e-14   2.39882e-14   3.18311e-14   5.65986e-14   9.43725e-14
          203   4.85388e-14   1.24801e-14  -1.93781e-15   3.99543e-14   5.40208e-14
          204  -5.13721e-14  -1.14454e-13  -1.16534e-13  -4.48715e-14  -1.22607e-13
          205  -6.07824e-15   2.70838e-14   4.42907e-14   6.91447e-15  -9.25534e-15
          206   3.67247e-15  -1.47717e-14  -1.82245e-14  -2.37983e-14  -3.37347e-14
          207  -8.41267e-14  -1.97657e-13  -1.93443e-13  -7.02284e-14  -7.84263e-14
          208   3.48813e-15   4.94626e-15  -9.82444e-15   1.67021e-14   5.11223e-14
          209  -7.09232e-14   1.11293e-13   1.12191e-13  -9.30285e-14  -5.05382e-14
          210   6.76476e-14   1.89982e-14   5.67594e-14   7.99293e-14    7.7647e-14
          211   1.66597e-13   1.93334e-13   1.49903e-13    1.7444e-13    1.9955e-13
          212    1.9842e-13   2.55538e-13   2.60025e-13   1.85737e-13   2.66156e-13
          213   2.11452e-13   3.43746e-13    3.3523e-13   2.08769e-13   2.61219e-13
          214   1.67327e-13  -5.83549e-14  -1.60625e-14     1.755e-13  -2.78155e-14
          215   1.71758e-13   7.37275e-14   4.22662e-14   1.77459e-13   1.41973e-13
          216   1.80167e-13   3.97342e-13   3.94998e-13   1.49746e-13   3.68533e-13
          217   1.35257e-13   4.19825e-13    4.2304e-13   1.59891e-13   2.30842e-13
          218   2.09683e-13   1.92293e-13   2.02298e-13    2.1664e-13   1.37871e-13
          219   3.14139e-13   9.38027e-14   1.06627e-13   3.01766e-13   2.67574e-13
          220   1.39552e-13  -1.74185e-13  -2.02523e-13   1.19985e-13   -6.3602e-15
          221   1.56401e-13   2.15628e-13   2.10145e-13    1.9859e-13   1.52641e-13
          222   1.19042e-13   3.80571e-13   4.06043e-13    8.6732e-14   2.31634e-13
          223   6.05833e-14   2.00358e-13   1.79973e-13   4.61675e-14    1.0269e-13
          224   1.81171e-14  -4.56101e-13  -4.39084e-13   5.83574e-14  -2.29155e-13
          225   1.23283e-13   2.34345e-13   2.18281e-13   1.05152e-13   2.53832e-13
          226   1.48742e-13   2.82677e-13   2.89736e-13   1.21388e-13   2.33682e-13
          227   2.05638e-13   4.77043e-13   4.69891e-13    2.5874e-13    3.3106e-13
          228   1.42053e-13   8.16013e-14   8.91265e-14   1.03694e-13   6.36123e-14
          229    1.5267e-13    5.7362e-14   5.64133e-14    1.5075e-13   8.56626e-14
          230   4.16222e-14  -1.47969e-13  -1.44217e-13   5.19421e-14  -4.32616e-14
          231   7.16557e-14  -9.25871e-14   -9.6455e-14   7.60546e-14   1.28609e-14
          232   1.62928e-13   2.84416e-13   2.84875e-13   1.60531e-13   2.43535e-13
          233   9.69012e-14   2.46674e-13   2.42829e-13   7.94425e-14   1.23126e-13
          234   1.39674e-13   2.49193e-13   2.55331e-13   1.68103e-13   2.29065e-13
          235   5.73068e-14   8.05393e-14   7.40851e-14   3.64094e-14   4.72542e-14
          236  -5.14677e-14  -2.74283e-13    -2.653e-13  -6.49401e-14  -2.26998e-13
          237  -3.18094e-14  -1.60365e-13  -1.87409e-13  -6.68996e-15  -7.51384e-14
          238   1.09712e-13   2.28725e-13   2.49824e-13   9.69925e-14   2.32061e-13
          239   1.48694e-13   3.78784e-13   3.75776e-13   1.61387e-13   2.90048e-13
          240    5.2034e-14  -2.38217e-13  -2.21352e-13   2.71744e-14  -1.47336e-13
          241   7.82576e-14  -6.07286e-14  -8.03321e-14   1.04463e-13   1.03548e-14
          242  -4.02618e-15  -6.85983e-14  -6.61524e-14  -2.75516e-14  -5.07871e-14
          243   2.13542e-13   7.54927e-13   7.58197e-13   2.35765e-13   5.42934e-13
          244   4.39177e-14  -3.86285e-14  -2.80519e-14   8.00109e-15    2.6665e-14
          245   3.28995e-14  -7.16173e-14   -1.1066e-13   5.68785e-14  -1.59445e-13
          246  -4.75357e-15  -1.83999e-13  -1.26748e-13   3.35615e-15  -1.40526e-13
          247   1.02178e-13   3.03659e-13   2.52953e-13    8.2582e-14   3.52235e-13
          248    1.9473e-13   3.28194e-13   3.47979e-13   1.96664e-13    3.4705e-13
          249   2.78311e-13   2.37081e-13    2.6293e-13   2.82166e-13   1.89806e-13
          250   2.11019e-13   1.90314e-13   1.19374e-13   2.06654e-13   4.69669e-14
          251    8.0245e-14  -9.26646e-14  -2.44909e-14   8.96393e-14   3.96366e-14
          252   7.89921e-14  -1.04754e-15  -1.11096e-14   8.06236e-14   1.91877e-13
          253    2.0435e-13   5.19473e-13   4.76653e-13   2.02294e-13   3.06975e-13
          254   1.41674e-13   1.01303e-13   1.60905e-13   1.19718e-13  -9.38029e-15
          255     8.615e-14  -8.50701e-14  -1.21919e-13   1.14169e-13   8.82516e-14
          256   5.53245e-14   -1.3426e-13  -1.09068e-13   4.65651e-14   5.24271e-14
          257   1.35148e-13   4.23339e-13   3.85447e-13   1.29521e-13    2.0249e-13
          258   2.13429e-13    4.1344e-13   4.55744e-13   2.19802e-13   2.96262e-13
          259    2.0719e-13   3.29256e-14   2.24621e-14   1.94579e-13   1.23316e-13
          260   2.21856e-13   4.27941e-14   2.01397e-14   2.24726e-13   1.44896e-13
          261   2.57125e-13   1.93915e-13   1.96782e-13   2.64493e-13   2.38786e-13
          262    2.7023e-13   6.20174e-13   6.45907e-13   2.60403e-13   4.18651e-13
          263   1.49263e-13   1.04626e-13   7.53279e-14   1.35835e-13     5.866e-14
          264   3.06175e-14  -4.34976e-13  -4.07623e-13   4.06213e-14  -1.65777e-13
          265   1.26108e-13   1.07286e-13   9.38709e-14    1.3772e-13   1.73508e-13
          266   2.48723e-13   8.15173e-13   8.04478e-13   2.42281e-13   5.38136e-13
          267    1.1345e-13   -3.3273e-13  -2.99355e-13   9.39946e-14  -1.74091e-13
          268   1.85404e-13   1.94703e-13   1.27613e-13   2.21388e-13   2.02784e-13
          269   1.88154e-13   4.38337e-13    5.1308e-13   1.54396e-13   4.06517e-13
          270   1.00226e-13  -1.75025e-14  -3.48044e-14   1.06222e-13  -4.58451e-14
          271   1.61696e-14   8.02218e-15  -5.02578e-14    3.9088e-14  -1.07497e-13
          272   5.32751e-14   2.42711e-13   2.87677e-13   2.11691e-14   2.45054e-13
          273   1.04152e-13   1.58292e-13   1.61534e-13   9.87742e-14    1.6859e-13
          274   2.22559e-14  -2.99849e-13  -2.95861e-13   3.69662e-14  -1.72061e-13
          275   -1.6985e-14  -3.01223e-13  -3.08732e-13  -1.34372e-14  -2.01751e-13
          276   1.04765e-13   6.14012e-13    5.7692e-13   1.04592e-13   4.67077e-13
          277   1.90503e-13    5.9667e-13   6.47822e-13   1.87845e-13   4.26019e-13
          278   1.53909e-13  -3.07965e-13  -3.23535e-13    1.5827e-13  -2.17165e-13
          279    1.5063e-13  -1.98143e-13  -2.11517e-13   1.58054e-13  -1.34792e-15
          280   2.00827e-13    5.5969e-13   5.73487e-13    1.7474e-13   4.73778e-13
          281   1.72464e-13   3.84184e-13    3.8518e-13   1.87371e-13   1.91401e-13
          282   3.69374e-14  -5.68372e-13  -5.55543e-13   2.92367e-14  -3.12168e-13
          283  -5.69151e-14  -1.22653e-13  -1.62892e-13  -5.24507e-14  -3.38301e-14
          284   1.21016e-13   8.73425e-13   9.07019e-13    1.3768e-13   5.67524e-13
          285   4.52602e-14  -2.78729e-13  -2.41313e-13   2.49898e-14  -1.47001e-13
          286   5.53997e-14  -2.66846e-13    -3.568e-13    5.9394e-14    -1.662e-13
          287   4.29783e-14   3.51776e-13   3.77004e-13   5.65759e-14   2.30112e-13
          288   9.86442e-14   3.81251e-13   4.30698e-13   9.19245e-14   2.86489e-13
          289   7.17117e-15  -2.56914e-13  -3.02431e-13  -3.71501e-15  -2.05591e-13
          290   1.33981e-14  -2.81453e-13  -2.55691e-13   2.56456e-14  -1.39929e-13
          291   7.45978e-14   3.79104e-13   3.54453e-13   6.44832e-14   2.62307e-13
          292   6.15191e-14   2.34199e-13   2.60049e-13   4.54103e-14   1.38457e-13
          293  -1.47281e-14  -3.75155e-13  -3.88479e-13   2.32345e-15  -2.22648e-13
          294   1.04538e-14  -1.82023e-13  -1.85929e-13   1.49034e-14  -3.11585e-14
          295  -5.02783e-15   2.45484e-13    2.5212e-13  -1.91662e-14   9.37902e-14
          296   4.33847e-14   2.86017e-13   2.87482e-13   5.84529e-14   1.87844e-13
          297   1.09069e-13   3.69985e-14   2.37427e-14   1.08759e-13   9.06068e-14
          298   1.81104e-14  -3.25973e-13  -3.22084e-13  -1.04497e-14  -2.33583e-13
          299  -6.61476e-14   -1.0503e-13  -1.09701e-13  -3.43116e-14  -8.75118e-14
          300   4.64837e-14   4.26099e-13   4.41143e-13   3.75735e-14   3.74899e-13
          301   1.50961e-13    3.5256e-13   3.48619e-13   1.45173e-13    2.4699e-13
          302   3.12784e-13   3.69935e-13   3.66775e-13   3.36092e-13   3.17457e-13
          303   2.08531e-13  -4.07017e-14  -5.23812e-14   1.51363e-13  -2.08032e-14
          304   4.62604e-14  -2.74564e-13   -2.3301e-13   9.60502e-14  -1.12615e-13
          305   7.56122e-14    1.9877e-13   1.32163e-13   7.48314e-14   2.02327e-13
          306   8.70538e-14   2.78335e-13   3.25857e-13   5.95353e-14   2.05256e-13
          307   3.15385e-14   7.97977e-14   7.69702e-14   4.43985e-14    3.8853e-15
          308   2.02216e-13   2.04532e-13   1.86087e-13   2.16437e-13    2.0647e-13
          309   2.11308e-13  -1.43582e-14   3.02758e-14   1.85016e-13   1.43077e-13
          310   7.74541e-14  -7.67219e-14  -1.38809e-13   8.90309e-14  -4.30221e-14
          311   2.22949e-14  -1.08969e-13  -7.53045e-14   3.65587e-14  -2.78063e-14
          312   1.19438e-13   7.70086e-13   7.53334e-13   9.73703e-14   4.62651e-13
          313   1.46352e-13   7.88693e-14   8.88117e-14   1.48067e-13   2.90122e-14
          314   1.40541e-13  -1.59871e-13  -1.58152e-13    1.5175e-13  -3.43584e-14
          315    6.6917e-15   3.21315e-14    3.8777e-14   7.53541e-15   1.57021e-13
          316   1.51985e-13   4.29493e-13   3.77501e-13   1.35265e-13   1.97846e-13
          317   1.03093e-13   3.20414e-14   7.74075e-14   1.11717e-13   4.71199e-15
          318  -6.66567e-14   -4.9143e-13  -4.80598e-13  -7.32051e-14  -2.46875e-13
          319  -7.12888e-14  -4.62099e-14  -9.82912e-14   -5.3144e-14  -5.68807e-15
          320   8.19125e-15   2.91637e-13   3.37418e-13  -2.59129e-15   1.68085e-13
          321   1.91811e-13   4.31905e-13   4.43704e-13   1.91362e-13    3.1769e-13
          322   -3.8251e-15  -7.17058e-13  -7.32665e-13  -1.04305e-14  -4.16628e-13
          323   1.35994e-13   5.57307e-13   5.22098e-13   1.57537e-13   3.82981e-13
          324   1.20355e-14   3.15861e-13   3.54305e-13  -2.26209e-14    1.3505e-13
          325  -9.05074e-14  -6.47183e-13  -6.18611e-13  -6.86587e-14    -3.391e-13
          326   8.79075e-14    1.5744e-13   6.51552e-14   9.58849e-14   1.20978e-13
          327   4.71506e-14    4.3265e-13   4.90999e-13   1.05262e-14   1.89342e-13
          328   1.26093e-13   2.58982e-13   2.67748e-13   1.56961e-13   2.11306e-13
          329   1.69349e-13   9.88099e-14     8.439e-14   1.76002e-13   1.52526e-13
          330     2.104e-13    3.4085e-14   3.63166e-14   1.93209e-13   1.66908e-13
          331   3.27867e-13   2.68351e-13   2.45914e-13   3.44182e-13   3.20063e-13
          332    2.5052e-13   3.00031e-13   3.36614e-13   2.28601e-13    2.4177e-13
          333   1.25574e-13   8.34152e-14   5.57118e-14   1.32452e-13   2.24669e-14
          334   1.74926e-13   8.62946e-14   1.09433e-13   1.97932e-13   1.72734e-13
          335   6.06862e-14  -1.79282e-14  -6.83427e-15   2.45276e-14    4.5861e-14
          336   5.05086e-14   7.10308e-14   3.20958e-14   5.24232e-14    5.2164e-14
          337   -6.2875e-14  -1.28152e-13  -1.10933e-13  -6.21659e-14  -1.33931e-13
          338  -8.30746e-15  -8.43495e-14  -5.28204e-14   5.53273e-15  -6.24898e-14
          339   1.65739e-13   5.12753e-13   4.42139e-13   1.66568e-13   4.11285e-13
          340   2.42747e-13   4.66369e-13   4.94953e-13   2.17629e-13   3.80098e-13
          341    2.2062e-13   3.83363e-14   7.74412e-14   2.44943e-13   4.49253e-14
          342  -4.12838e-15   -3.6045e-13  -4.05376e-13  -1.24333e-14  -2.12727e-13
          343  -1.50201e-14     9.446e-14   1.09863e-13  -2.82223e-14   1.14712e-13
          344    7.5262e-14   2.77131e-13   2.90732e-13    8.5845e-14   1.87704e-13
          345   1.66487e-13   3.71592e-13   3.10799e-13   1.65092e-13   1.83479e-13
          346   8.61669e-14   4.10822e-14   1.17656e-13   8.73737e-14   8.11631e-14
          347   1.04311e-13   4.53437e-14   1.87994e-14    1.1028e-13    9.7375e-14
          348   7.93283e-14  -9.16638e-14  -1.04026e-13   6.72267e-14   1.29583e-14
          349  -8.75509e-14  -3.68057e-13  -3.50769e-13  -9.29026e-14   -2.6744e-13
          350   2.44952e-14  -1.61313e-15  -2.72858e-14   5.93678e-14    2.9051e-14
          351   7.69658e-14   2.56732e-13   2.77578e-13   4.43195e-14   2.19007e-13
          352   9.82034e-14   3.38257e-13   3.24988e-13   8.14304e-14   2.02334e-13
          353   2.92837e-14   1.77506e-13   1.94167e-13    6.8544e-14   5.06291e-14
          354   1.24092e-13   3.28461e-14   1.59438e-14   1.24149e-13   7.63758e-14