# Probe 0 (0.0005 0.0001 0.0007)
# Probe 1 (0.0005 0.0001 0.0063)
# Probe 2 (0.0005 0.0009 0.0063)
# Probe 3 (0.0005 0.0009 0.0007)
# Probe 4 (0.0005 0.0005 0.0035)
#       Probe             0             1             2             3             4
#        Time
            1             (39.1015 -1.01171e-17 -2.01539e-16)             (39.0759 -1.42972e-18 7.69449e-18)             (39.0754 5.352e-18 -9.55682e-18)             (39.0758 3.32075e-18 -1.70728e-18)             (39.0842 -9.74739e-18 -2.02633e-17)
            2             (39.6187 -5.28867e-16 -1.01087e-14)             (39.0784 -3.81652e-17 1.4246e-16)             (39.0782 -1.07396e-16 5.638e-17)             (39.1716 -6.92978e-17 -6.53731e-16)             (39.2065 7.81699e-16 -9.04068e-16)
            3             (39.6585 4.21318e-15 1.31616e-14)             (39.0816 -4.3855e-16 7.46955e-16)             (39.0841 1.14732e-16 3.75368e-16)             (39.2338 2.06618e-15 5.00899e-15)             (39.4158 -5.26818e-15 -3.39108e-15)
            4             (39.8393 -2.16449e-15 -7.1279e-15)             (39.0846 1.02645e-15 -9.49941e-16)             (39.0948 2.21888e-17 2.84953e-16)             (39.2554 1.26266e-15 1.47498e-15)             (39.5259 1.02656e-14 -5.12694e-15)
            5             (40.0094 -1.64632e-15 -7.9469e-15)             (39.0893 -7.89895e-16 -1.20121e-16)             (39.1007 2.24498e-16 2.41694e-16)             (39.2502 -3.76736e-16 -2.77647e-15)             (39.6357 -5.88974e-15 -5.90187e-16)
            6             (40.1342 7.25596e-16 8.26538e-16)             (39.0969 -2.24158e-16 1.03352e-15)             (39.0961 -1.45874e-15 -2.54174e-15)             (39.2045 -1.00659e-15 -1.11359e-15)             (39.7542 1.04784e-16 1.65082e-15)
            7             (40.28 1.46797e-15 3.73687e-15)             (39.1077 8.70812e-16 -8.68141e-16)             (39.0656 1.41201e-15 1.86068e-16)             (39.0989 -2.97469e-15 3.57617e-16)             (39.8857 4.82728e-15 2.93638e-15)
            8             (40.4249 -2.407e-15 -2.51357e-15)             (39.1231 4.85464e-17 -4.09691e-16)             (38.9945 -1.81291e-16 1.20346e-15)             (38.9352 1.41713e-15 1.25296e-16)             (40.0224 -4.51581e-15 2.05969e-15)
            9             (40.5983 6.19781e-17 -1.12249e-15)             (39.1427 -4.48431e-16 1.64024e-15)             (38.8832 9.73733e-16 9.3468e-16)             (38.7102 1.78133e-15 6.56363e-16)             (40.1624 1.98793e-15 -1.04335e-15)
           10             (40.7751 1.17089e-15 3.73276e-16)             (39.1655 7.13796e-16 -5.06512e-16)             (38.7315 -7.24124e-16 1.10394e-16)             (38.4234 -7.59651e-16 3.17467e-16)             (40.3032 1.42789e-15 -2.15389e-15)
           11             (40.9577 -1.50357e-15 -5.49541e-15)             (39.1891 6.84124e-17 -7.1076e-16)             (38.5362 1.47206e-16 -9.72408e-16)             (38.0774 4.77249e-16 -6.21835e-16)             (40.4523 -2.48822e-15 -1.55962e-15)
           12             (41.1342 -1.2482e-16 -3.38511e-15)             (39.2163 -1.6252e-16 4.56106e-16)             (38.3043 3.80057e-16 -3.39353e-16)             (37.6774 -1.39276e-15 -4.82049e-16)             (40.6105 1.7294e-15 -6.95274e-16)
           13             (41.2982 7.42411e-17 -4.31924e-16)             (39.2469 3.53266e-16 7.14409e-16)             (38.0372 -3.92618e-16 1.7524e-16)             (37.2302 -1.37134e-15 -4.0842e-17)             (40.7752 -2.01679e-16 6.29567e-16)
           14             (41.4739 -7.1605e-16 -1.05507e-15)             (39.2804 1.25294e-16 -5.08192e-16)             (37.7378 5.99817e-16 6.49862e-16)             (36.7435 1.23677e-15 3.79096e-16)             (40.9446 -6.12243e-16 2.87742e-16)
           15             (41.6606 2.84535e-16 -6.61152e-16)             (39.3159 -5.86632e-17 5.31496e-16)             (37.4097 -1.24146e-16 1.63518e-16)             (36.2247 1.79973e-16 9.07505e-16)             (41.1178 1.00294e-15 7.98803e-16)
           16             (41.8579 -2.20786e-16 2.31127e-16)             (39.3521 5.19111e-17 4.53781e-17)             (37.0563 7.93672e-17 -4.64861e-16)             (35.6804 -4.72876e-16 5.90271e-16)             (41.2923 -3.44204e-17 7.9944e-16)
           17             (42.0591 -5.13709e-16 -2.14135e-15)             (39.3873 7.44914e-17 -3.26177e-16)             (36.6814 1.74264e-16 3.02816e-16)             (35.1167 -1.46058e-16 -1.84346e-16)             (41.4677 -9.30807e-17 -6.60033e-16)
           18             (42.2528 -1.66652e-17 -3.34006e-15)             (39.4195 -9.45381e-17 5.82295e-16)             (36.2886 -1.53541e-16 2.57343e-16)             (34.5392 -5.70213e-16 -5.1182e-16)             (41.6441 4.44252e-16 -1.51949e-15)
           19             (42.4125 6.93377e-17 -6.60877e-16)             (39.4459 1.90105e-16 -1.44595e-16)             (35.8821 3.16144e-16 -3.88758e-16)             (33.9536 -1.53709e-18 2.1591e-16)             (41.8237 -2.59556e-17 -2.98947e-16)
           20             (42.622 -2.874e-16 1.56008e-16)             (39.4603 7.378e-17 -2.21651e-16)             (35.4644 -1.37402e-16 4.86149e-17)             (33.3636 1.71358e-16 8.83726e-16)             (42.0024 4.6341e-17 -6.99671e-17)
           21             (42.839 -1.09462e-16 -2.05862e-15)             (39.471 4.04644e-17 1.49674e-16)             (35.0426 2.49357e-17 2.2882e-16)             (32.774 -1.90197e-16 4.54685e-16)             (42.1769 3.78861e-16 2.36411e-16)
           22             (43.0594 3.38977e-16 -3.87151e-16)             (39.5017 1.53553e-16 1.09863e-16)             (34.6147 3.64273e-16 2.75643e-16)             (32.1857 4.32013e-17 -1.05529e-16)             (42.342 -5.88288e-16 1.01769e-15)
           23             (43.2818 -1.69889e-16 -4.36534e-16)             (39.5455 -5.02332e-17 7.54913e-17)             (34.1836 -2.23439e-16 -2.56191e-19)             (31.602 -6.55878e-16 2.35163e-16)             (42.5005 1.99361e-16 4.3497e-16)
           24             (43.461 -4.65913e-16 -1.31868e-15)             (39.5958 -2.49227e-16 1.37688e-16)             (33.7513 1.20455e-16 5.5475e-18)             (31.0248 6.58178e-17 4.87564e-16)             (42.6556 3.55534e-16 -9.86049e-16)
           25             (43.6511 -2.49716e-16 -1.92939e-15)             (39.6476 2.52415e-16 -9.82005e-17)             (33.3197 1.21867e-16 1.75143e-18)             (30.4563 4.24015e-16 1.09018e-16)             (42.8116 -4.75719e-16 -5.15639e-16)
           26             (43.8474 2.41729e-16 -1.13792e-15)             (39.7003 6.65563e-17 -8.37967e-18)             (32.8901 -1.03395e-16 1.79616e-16)             (29.8979 -2.15988e-16 -2.70069e-17)             (42.9686 6.63706e-17 -2.24987e-16)
           27             (44.0666 -3.87938e-16 -2.07045e-15)             (39.7533 6.80129e-17 -8.516e-17)             (32.4636 7.64687e-17 4.22499e-17)             (29.3505 -3.19231e-16 6.56903e-17)             (43.1234 6.56921e-16 -5.99255e-16)
           28             (44.2945 -3.70938e-17 -1.98515e-16)             (39.8066 1.25742e-16 -1.58567e-16)             (32.0412 1.00069e-16 7.87833e-17)             (28.815 6.93829e-17 3.1701e-16)             (43.2739 -5.55942e-16 3.22781e-16)
           29             (44.5325 -5.81546e-17 -1.68969e-15)             (39.8602 2.63825e-17 6.019e-17)             (31.6237 -2.97107e-17 1.55609e-16)             (28.2919 -2.0409e-16 1.26757e-16)             (43.4186 3.27355e-16 3.81444e-16)
           30             (44.772 -1.35777e-17 -6.82652e-16)             (39.9142 -1.85622e-16 3.78904e-17)             (31.212 8.04597e-17 1.42904e-16)             (27.7822 2.49697e-16 1.30134e-16)             (43.5565 2.26035e-16 7.04805e-16)
           31             (45.0059 -1.18684e-16 -1.57271e-15)             (39.9686 2.24037e-16 -7.27446e-17)             (30.8066 7.40411e-17 1.03079e-16)             (27.286 -4.22422e-16 2.67363e-16)             (43.6866 3.49302e-16 3.40029e-16)
           32             (45.2334 2.81734e-16 -6.45915e-16)             (40.0235 2.02306e-16 8.26505e-18)             (30.408 3.02697e-17 8.73236e-17)             (26.804 1.47284e-16 2.06374e-16)             (43.8093 -3.80322e-16 -1.10927e-16)
           33             (45.4617 -2.84304e-17 -1.83851e-15)             (40.0787 -2.07958e-16 2.90186e-16)             (30.0166 3.42426e-18 -9.01481e-18)             (26.3364 8.58753e-18 6.4386e-19)             (43.9243 4.0148e-16 -1.34235e-16)
           34             (45.6921 3.93736e-17 1.26241e-16)             (40.1342 2.38642e-16 -2.36776e-16)             (29.6325 -7.46344e-18 8.33536e-17)             (25.8833 3.07137e-17 1.72764e-16)             (44.0317 -8.42657e-17 -3.51636e-16)
           35             (45.9242 -5.81224e-17 -7.27089e-17)             (40.19 1.06923e-18 -8.77589e-17)             (29.2561 2.95802e-17 1.07667e-16)             (25.445 -2.44303e-16 3.28873e-16)             (44.1313 4.97363e-17 3.89933e-16)
           36             (46.1573 -2.193e-17 -2.98493e-16)             (40.2461 -1.88734e-16 3.71274e-16)             (28.8875 6.41237e-17 2.67628e-17)             (25.0218 -5.9076e-17 3.27669e-16)             (44.2224 4.62372e-16 -8.34728e-17)
           37             (46.3907 -4.26517e-17 -1.60071e-15)             (40.3026 1.66303e-16 -2.91723e-17)             (28.5268 6.12691e-18 1.23097e-16)             (24.614 -1.05075e-17 6.29999e-17)             (44.3042 4.21046e-16 -1.05494e-15)
           38             (46.6237 2.75889e-16 5.26647e-16)             (40.3595 1.28571e-16 1.55979e-16)             (28.1741 -8.62431e-18 8.74454e-18)             (24.2219 6.73106e-17 6.89775e-17)             (44.3753 -2.40648e-16 -4.07677e-16)
           39             (46.8558 -5.64326e-16 -2.69694e-15)             (40.4169 -1.58146e-16 3.12569e-16)             (27.8296 1.19193e-17 -6.70708e-17)             (23.8458 -2.53404e-16 1.27245e-16)             (44.4347 6.6675e-16 -6.42847e-16)
           40             (47.0865 2.84382e-16 -1.47376e-15)             (40.4747 2.63434e-16 -3.21493e-16)             (27.4931 2.2602e-17 5.71945e-17)             (23.4863 2.84266e-16 -2.46003e-17)             (44.4812 -8.44045e-17 -2.87217e-16)
           41             (47.3151 5.15713e-16 6.9797e-16)             (40.5331 -7.6242e-17 2.72953e-16)             (27.1647 2.01263e-17 1.52536e-16)             (23.1439 -5.1908e-17 2.46388e-16)             (44.5147 9.50623e-17 -1.38878e-16)
           42             (47.5413 -2.44512e-16 -3.98618e-16)             (40.5921 9.74592e-17 8.34693e-17)             (26.8444 1.44686e-17 3.258e-17)             (22.8194 -3.90353e-16 2.5466e-16)             (44.5378 3.83697e-16 2.02224e-16)
           43             (47.764 -2.95178e-16 -1.76357e-15)             (40.6518 1.70851e-16 3.44459e-17)             (26.5322 5.75031e-17 5.23649e-17)             (22.5136 3.53444e-16 -1.7414e-17)             (44.553 2.03719e-17 6.33608e-16)
           44             (47.9826 3.92218e-16 -8.86501e-16)             (40.7123 -1.09511e-16 2.48452e-16)             (26.228 4.24655e-17 1.53282e-16)             (22.2275 -2.11231e-16 -2.62731e-17)             (44.561 1.14477e-16 -1.5275e-16)
           45             (48.1951 -2.06073e-16 -1.23761e-15)             (40.7736 1.54115e-16 -2.13412e-16)             (25.9318 8.9349e-17 6.85333e-17)             (21.9622 -2.1942e-16 8.20939e-18)             (44.5627 8.9201e-17 -7.89901e-16)
           46             (48.4039 6.65107e-19 1.43409e-16)             (40.8358 -1.65482e-16 -2.27304e-17)             (25.6436 -3.48374e-17 -7.33722e-18)             (21.7191 4.37145e-16 7.16985e-17)             (44.5528 1.00418e-16 -1.05985e-15)
           47             (48.6093 1.54211e-16 -2.00021e-15)             (40.8991 -1.57775e-16 -9.88157e-18)             (25.3633 -2.07345e-17 -1.12277e-17)             (21.4993 -3.45219e-16 3.66581e-17)             (44.5328 1.30426e-17 -1.82035e-16)
           48             (48.8081 -5.9075e-17 -2.15753e-15)             (40.9636 2.10134e-16 -3.01985e-17)             (25.0908 7.35982e-17 2.69091e-17)             (21.3042 -3.07074e-17 -2.03474e-16)             (44.5027 2.66838e-16 4.05187e-16)
           49             (48.9966 3.1805e-17 3.89218e-16)             (41.0293 2.13336e-16 3.42731e-16)             (24.826 5.00264e-17 2.164e-16)             (21.135 2.09646e-16 1.22733e-16)             (44.4627 1.0652e-16 -2.7071e-17)
           50             (49.1754 -8.42039e-17 -4.16613e-16)             (41.0964 -2.23337e-16 2.07283e-16)             (24.5689 -2.32885e-17 1.22465e-16)             (20.9927 -4.50131e-16 4.39106e-16)             (44.4141 -8.76098e-19 -5.91143e-16)
           51             (49.3424 1.32139e-16 -2.29128e-15)             (41.1651 9.84547e-17 -2.08415e-16)             (24.3191 -7.30018e-19 -4.33735e-17)             (20.8781 1.85492e-16 -2.09271e-16)             (44.3572 2.96309e-16 -6.6037e-16)
           52             (49.4941 4.369e-16 -1.87045e-16)             (41.2352 1.70404e-16 -5.93418e-17)             (24.0765 4.81613e-17 3.90336e-17)             (20.7915 2.66124e-16 -2.16279e-16)             (44.2929 2.36561e-16 3.28214e-18)
           53             (49.6316 1.21065e-16 -2.76047e-16)             (41.307 -1.13303e-16 1.01476e-16)             (23.8409 3.11153e-18 6.20895e-17)             (20.7325 -5.41231e-16 2.05922e-16)             (44.2225 2.73717e-16 1.78116e-16)
           54             (49.7499 -4.07659e-16 -3.7299e-15)             (41.3816 1.15781e-16 -2.25245e-16)             (23.6084 -2.71378e-17 2.02507e-17)             (20.6997 8.86528e-17 -1.1913e-16)             (44.1477 1.03581e-16 -5.02728e-16)
           55             (49.8516 1.32104e-16 -6.9277e-16)             (41.4577 -3.50157e-17 1.81096e-16)             (23.3834 4.59732e-18 7.64533e-17)             (20.6909 5.1581e-16 -2.21679e-16)             (44.072 -1.20559e-16 -1.18859e-15)
           56             (49.9356 3.67893e-16 1.51703e-15)             (41.5354 -3.60755e-17 -9.13963e-17)             (23.1657 -2.59536e-18 2.57142e-17)             (20.7027 -4.86688e-16 2.31613e-16)             (44.0069 1.95677e-16 -3.54964e-16)
           57             (50.0018 -2.14382e-16 -1.78601e-15)             (41.6148 2.60901e-16 -2.27235e-16)             (22.9552 8.07454e-17 1.21025e-16)             (20.7314 -1.54805e-16 7.81304e-17)             (43.9548 3.2632e-16 2.12598e-16)
           58             (50.0514 1.16754e-16 -1.26118e-15)             (41.6958 -2.08535e-16 2.46584e-16)             (22.7517 3.97103e-17 1.68617e-16)             (20.7731 4.7397e-16 -1.77084e-16)             (43.9118 2.12955e-16 3.32828e-17)
           59             (50.0862 1.1068e-16 -9.04338e-16)             (41.7784 -1.15545e-16 1.52492e-16)             (22.555 2.34169e-17 -3.02678e-17)             (20.8244 -2.68398e-16 -2.27836e-16)             (43.8722 -1.37752e-16 -5.89815e-16)
           60             (50.1081 -5.41356e-16 -1.95012e-15)             (41.8628 3.55623e-16 -1.61505e-16)             (22.365 -1.36211e-17 -5.12757e-17)             (20.8821 -2.58422e-16 -1.00881e-16)             (43.8332 1.64128e-16 -8.0681e-16)
           61             (50.1195 2.10446e-16 8.88063e-17)             (41.9488 -1.28123e-16 1.19182e-17)             (22.1814 -1.16711e-17 -6.25316e-17)             (20.9438 3.38994e-16 5.86621e-17)             (43.7951 2.84155e-16 -1.41935e-16)
           62             (50.1221 3.46821e-16 -1.02767e-15)             (42.0366 -2.91778e-17 -3.15709e-16)             (22.0042 -1.14637e-17 -7.48145e-17)             (21.0078 -6.22357e-17 1.50897e-16)             (43.7569 8.93454e-17 -3.2002e-16)
           63             (50.117 -5.65348e-17 -1.24798e-15)             (42.126 9.5635e-17 5.7855e-17)             (21.8332 -2.02564e-17 1.20529e-16)             (21.0725 1.59995e-16 -1.28095e-16)             (43.7188 -9.31378e-17 -3.52995e-16)
           64             (50.1056 -5.23787e-16 -2.45142e-15)             (42.2171 -1.31912e-17 2.34045e-16)             (21.6684 1.08434e-16 1.91636e-16)             (21.1375 -2.49458e-16 -3.64969e-16)             (43.6813 1.69132e-16 -6.87901e-18)
           65             (50.0891 1.77236e-16 -3.31986e-15)             (42.31 1.35781e-16 1.32164e-16)             (21.5096 -9.55384e-17 -9.86958e-17)             (21.2023 -3.7296e-16 -6.45965e-16)             (43.6445 2.00137e-16 -7.96282e-16)
           66             (50.0678 -1.49284e-16 -2.58024e-16)             (42.4045 1.63637e-17 -2.33358e-16)             (21.3566 2.08864e-17 1.16544e-17)             (21.2662 4.86692e-16 -3.36489e-16)             (43.6085 -1.02587e-16 -1.2034e-15)
           67             (50.0418 -1.60948e-16 7.78758e-16)             (42.5006 4.07562e-17 7.30469e-17)             (21.2096 -1.49152e-17 1.15936e-16)             (21.3295 -1.79712e-16 3.2784e-16)             (43.5735 1.74127e-16 -2.19746e-16)
           68             (50.0112 -1.01023e-16 -8.0392e-17)             (42.5985 -1.19616e-17 3.61387e-16)             (21.0683 6.13635e-17 9.99943e-17)             (21.3926 -8.58405e-17 2.29519e-16)             (43.5398 2.86635e-16 1.10411e-15)
           69             (49.9762 3.30922e-16 -7.23156e-16)             (42.698 -1.38717e-16 1.11205e-16)             (20.9328 1.35935e-17 9.20387e-18)             (21.4559 1.13615e-16 -2.76145e-16)             (43.5074 2.46187e-16 -3.36535e-16)
           70             (49.9369 -6.50957e-17 -9.27763e-16)             (42.7991 1.89378e-16 -2.25094e-16)             (20.803 -4.55202e-17 -4.52763e-17)             (21.5198 -1.30285e-16 -4.02121e-16)             (43.4762 1.77643e-16 -1.38267e-15)
           71             (49.8937 -5.71691e-16 -1.14941e-15)             (42.9019 6.72671e-17 1.53201e-16)             (20.6789 1.93367e-17 7.71097e-17)             (21.5848 5.56485e-17 -1.41736e-16)             (43.4464 -7.44522e-17 1.51061e-16)
           72             (49.8468 1.84611e-16 1.31887e-16)             (43.0063 -5.75918e-17 1.74519e-16)             (20.5604 9.39253e-17 1.545e-16)             (21.6505 6.53791e-17 3.8884e-17)             (43.418 2.08762e-16 5.43081e-16)
           73             (49.7967 4.01551e-16 -6.09094e-16)             (43.1122 1.13757e-16 1.29204e-17)             (20.4475 -2.71617e-17 -1.14745e-16)             (21.7169 -2.44542e-16 -4.01494e-17)             (43.3908 -1.74966e-17 -1.24099e-15)
           74             (49.7436 -3.77768e-18 -2.5206e-15)             (43.2197 9.0457e-17 3.66179e-16)             (20.3403 -5.4695e-17 5.10685e-17)             (21.7841 1.2679e-16 -4.91731e-16)             (43.365 1.48337e-16 -7.46401e-16)
           75             (49.6879 1.61134e-16 1.0032e-15)             (43.3287 -5.37396e-17 -7.67659e-19)             (20.2386 7.6363e-17 1.3645e-16)             (21.8522 7.0154e-17 -6.43969e-17)             (43.3404 1.05296e-17 -1.84064e-16)
           76             (49.6298 2.28836e-16 2.34741e-15)             (43.4391 -2.7722e-17 -2.21327e-16)             (20.1425 -7.47309e-18 2.27255e-17)             (21.9215 -4.60148e-17 5.57183e-16)             (43.3169 1.3203e-16 2.87457e-16)
           77             (49.5697 -3.0434e-16 -3.87649e-15)             (43.551 8.97365e-17 2.99422e-16)             (20.0521 6.45175e-17 6.17627e-17)             (21.992 -1.22568e-16 -4.97602e-16)             (43.2946 -2.39842e-16 -4.2633e-16)
           78             (49.5079 -3.78524e-16 -2.40851e-15)             (43.6643 1.23977e-16 -2.40326e-16)             (19.9672 1.78602e-17 -3.40883e-19)             (22.0636 2.36258e-16 -8.86934e-16)             (43.2734 1.53917e-17 -1.48284e-15)
           79             (49.4444 4.12199e-16 2.01214e-15)             (43.7788 -5.15214e-17 2.08879e-16)             (19.8879 -6.09099e-17 -1.28568e-17)             (22.1365 -1.63294e-16 2.42287e-16)             (43.2531 3.46214e-16 -1.38621e-16)
           80             (49.3797 -4.09324e-16 -8.54242e-16)             (43.8947 -1.24479e-16 1.88726e-16)             (19.8141 9.80605e-17 4.29871e-17)             (22.2105 -1.78229e-16 3.43163e-16)             (43.2337 1.44759e-16 1.16356e-15)
           81             (49.3138 -1.92431e-16 -4.61008e-16)             (44.0117 -9.60937e-18 1.98906e-16)             (19.7459 3.281e-17 1.98094e-16)             (22.2851 4.32499e-16 5.36288e-18)             (43.2151 1.26479e-16 3.02644e-16)
           82             (49.247 5.28488e-17 -6.87228e-16)             (44.13 -1.05137e-17 2.12019e-16)             (19.6833 -2.09415e-17 8.31855e-17)             (22.3603 -3.29535e-16 -3.65554e-16)             (43.1972 1.77697e-17 -5.46744e-17)
           83             (49.1795 -2.89274e-16 -1.78388e-15)             (44.2495 -1.82754e-17 -3.66394e-16)             (19.6261 -1.92708e-17 -1.25429e-16)             (22.4361 -3.26625e-16 -3.62572e-16)             (43.18 1.48342e-16 -3.45908e-16)
           84             (49.1113 -6.69443e-17 -1.59451e-15)             (44.3701 8.6944e-17 1.16489e-16)             (19.5745 -3.6381e-17 6.19731e-17)             (22.5126 3.86302e-16 -4.42589e-16)             (43.1634 2.27925e-16 -9.44543e-16)
           85             (49.0426 4.05892e-17 -1.76585e-15)             (44.4917 1.39287e-18 1.69671e-16)             (19.5283 7.32815e-17 8.02019e-17)             (22.5897 2.92512e-17 -5.80781e-16)             (43.1473 1.54372e-16 -1.07034e-15)
           86             (48.9736 -1.4023e-16 -9.13177e-16)             (44.6145 -3.67443e-17 -2.75509e-17)             (19.4875 -5.42593e-17 -1.6642e-17)             (22.6673 -2.37032e-17 -2.79013e-16)             (43.1318 -1.24845e-17 -6.07068e-17)
           87             (48.9044 -1.74974e-16 -1.09324e-15)             (44.7382 -1.83158e-16 6.68561e-17)             (19.452 4.60672e-17 1.34907e-17)             (22.7453 -2.63543e-16 -1.95252e-16)             (43.1167 1.40246e-16 3.67399e-16)
           88             (48.8351 -2.59314e-16 -2.1702e-16)             (44.8629 5.08665e-17 -1.68917e-16)             (19.4219 1.83694e-17 7.09747e-17)             (22.8237 5.4511e-17 -1.43217e-16)             (43.102 -2.27142e-17 6.39742e-16)
           89             (48.7657 -2.52987e-16 3.11507e-16)             (44.9885 -1.45433e-17 1.29432e-16)             (19.3969 2.10124e-17 2.50834e-17)             (22.9023 2.64946e-18 -1.53859e-16)             (43.0878 1.37986e-16 9.23137e-17)
           90             (48.6964 6.26813e-17 -2.84759e-16)             (45.1149 -8.23287e-17 2.28711e-16)             (19.3771 3.6225e-17 -5.60846e-18)             (22.9811 -2.39305e-16 -1.65073e-16)             (43.0738 1.88147e-16 -2.32324e-16)
           91             (48.6272 2.38085e-16 -8.97616e-16)             (45.2421 -1.21446e-16 -2.0174e-16)             (19.3622 8.06817e-18 1.71476e-17)             (23.06 5.9158e-17 -1.63916e-16)             (43.0602 -1.33285e-18 -1.62893e-16)
           92             (48.5582 1.745e-16 -4.36471e-16)             (45.3699 -1.16483e-16 2.5173e-16)             (19.3523 -3.73545e-17 5.88308e-17)             (23.1389 3.3696e-16 -1.93925e-16)             (43.047 -2.13216e-17 5.90587e-16)
           93             (48.4896 -1.04617e-16 -4.76746e-16)             (45.4983 1.55122e-18 1.42813e-16)             (19.3471 8.11319e-17 6.21505e-17)             (23.2173 -4.29945e-16 -2.33397e-16)             (43.0339 1.37993e-16 1.48644e-16)
           94             (48.4215 -1.40973e-16 -9.16911e-16)             (45.627 1.20638e-16 -3.07575e-16)             (19.3465 5.61786e-19 8.67405e-17)             (23.2954 -1.52234e-16 -2.84592e-16)             (43.0211 7.88317e-17 -5.34959e-16)
           95             (48.3542 -1.41173e-16 -1.64582e-15)             (45.756 2.58939e-17 -3.25912e-17)             (19.3505 -2.6291e-17 -1.70678e-17)             (23.3733 6.92118e-17 -5.10392e-16)             (43.0085 2.56968e-16 -3.40467e-16)
           96             (48.2877 3.95963e-17 -1.27872e-15)             (45.885 2.04295e-17 1.57516e-16)             (19.3587 2.77379e-17 -1.09451e-16)             (23.4508 1.305e-16 -4.99362e-16)             (42.9961 2.04911e-16 -2.11895e-16)
           97             (48.2219 -1.58385e-16 -8.39379e-16)             (46.0139 -4.01996e-17 -1.8354e-16)             (19.371 -3.78203e-17 -1.83367e-17)             (23.5279 -1.74176e-16 -3.15426e-16)             (42.984 -2.71078e-17 -4.9638e-16)
           98             (48.1568 1.32012e-17 -1.16103e-15)             (46.1425 1.10783e-16 1.28537e-16)             (19.3873 5.75131e-17 7.43483e-17)             (23.6047 -9.74847e-17 -2.7975e-16)             (42.972 -1.57329e-16 -4.47282e-16)
           99             (48.0923 1.31368e-16 -9.94946e-16)             (46.2706 2.33288e-16 -2.30219e-17)             (19.4072 2.73939e-17 2.22591e-17)             (23.6811 1.32765e-16 -3.96851e-16)             (42.9603 1.31833e-16 -5.37813e-17)
          100             (48.0285 -2.74266e-16 -7.09497e-16)             (46.3979 6.35735e-17 2.13193e-16)             (19.4306 -7.55444e-18 -1.81069e-17)             (23.7571 -1.54695e-16 -5.06172e-16)             (42.9488 2.1534e-16 -2.26796e-16)
          101             (47.9653 -3.44292e-16 -1.10836e-15)             (46.5242 2.65862e-17 5.78763e-17)             (19.4572 5.50838e-17 3.84188e-17)             (23.8327 -1.94803e-16 -3.86976e-16)             (42.9375 2.90392e-16 -6.08223e-16)
          102             (47.9027 -1.42445e-16 -1.14895e-15)             (46.6493 -4.81372e-17 1.46124e-16)             (19.4869 -8.57513e-18 2.73597e-17)             (23.9077 2.42173e-16 -3.36038e-16)             (42.9264 1.55534e-16 4.1234e-16)
          103             (47.8408 -2.21077e-16 -3.64347e-16)             (46.773 2.41949e-16 -1.95542e-16)             (19.5193 3.27913e-17 -3.46734e-17)             (23.9822 -2.52396e-16 -2.84344e-16)             (42.9156 4.15965e-17 1.70035e-16)
          104             (47.7795 -2.64934e-16 -1.02104e-15)             (46.895 1.21698e-16 2.16334e-16)             (19.5543 3.35032e-17 9.51115e-17)             (24.0562 -1.56901e-16 -2.17587e-16)             (42.9049 1.16272e-16 -2.09079e-15)
          105             (47.7188 1.07207e-16 -5.12808e-16)             (47.0153 -9.35948e-17 1.96148e-16)             (19.5915 -3.38403e-17 -1.01227e-16)             (24.1295 3.94938e-16 -4.64977e-16)             (42.8945 5.94387e-17 -8.52871e-16)
          106             (47.6588 9.48152e-17 1.95954e-17)             (47.1334 8.08689e-17 -5.62029e-16)             (19.6307 3.80086e-17 -2.51698e-17)             (24.2023 -2.19325e-16 -1.87292e-16)             (42.8843 2.10657e-16 7.48941e-16)
          107             (47.5994 8.98686e-17 -1.35684e-15)             (47.2495 1.86261e-16 5.09206e-16)             (19.6717 7.42452e-17 2.78053e-16)             (24.2744 -1.63009e-16 -3.13507e-16)             (42.8743 1.57383e-16 -4.02768e-16)
          108             (47.5407 8.7008e-17 -1.34982e-15)             (47.3632 -1.93513e-17 3.05592e-16)             (19.7141 -5.37752e-17 3.64294e-17)             (24.3459 3.65766e-16 -6.30026e-16)             (42.8645 7.50802e-17 -9.94819e-16)
          109             (47.4827 4.68255e-17 -4.41604e-16)             (47.4752 -4.40919e-17 -2.7485e-16)             (19.7578 -2.39605e-17 -9.17267e-17)             (24.4167 -1.90778e-16 -3.50409e-16)             (42.8549 -3.81825e-18 -5.65564e-16)
          110             (47.4256 1.12154e-16 -1.86392e-16)             (47.5858 3.35677e-17 2.50751e-16)             (19.8025 9.70399e-17 3.43792e-17)             (24.4868 -2.48038e-16 -9.46598e-17)             (42.8455 1.72805e-16 -3.90503e-17)
          111             (47.3692 4.38212e-16 1.73948e-15)             (47.6953 2.25502e-16 3.53438e-16)             (19.8479 -8.09876e-17 1.03986e-16)             (24.5561 4.03931e-16 2.01323e-16)             (42.8363 3.101e-16 1.43436e-15)
          112             (47.3137 -3.44738e-16 5.53051e-16)             (47.8038 -1.08712e-18 3.03263e-16)             (19.8939 1.17822e-16 7.85477e-17)             (24.6248 -4.28919e-16 2.69264e-16)             (42.8272 1.92493e-16 9.63498e-16)
          113             (47.259 -2.52427e-16 -3.17859e-15)             (47.911 -1.62119e-16 -3.22539e-16)             (19.9401 -9.53216e-18 -6.54223e-17)             (24.6927 3.4021e-17 -7.8707e-16)             (42.8183 1.17432e-16 -7.74981e-16)
          114             (47.2055 1.96687e-16 -1.6522e-15)             (48.0167 -2.1541e-16 -6.94229e-17)             (19.9862 -7.17838e-17 -1.07424e-16)             (24.7597 3.73434e-16 -9.58044e-16)             (42.8095 1.18083e-16 -1.28884e-15)
          115             (47.1526 2.90369e-16 -8.20053e-16)             (48.1211 2.22866e-16 -1.3397e-17)             (20.0323 9.87324e-17 -1.35811e-16)             (24.8261 -3.99253e-16 -2.45026e-16)             (42.8009 2.63542e-16 3.49136e-17)
          116             (47.1005 -6.05824e-16 -1.2617e-15)             (48.2242 1.43148e-16 8.15551e-17)             (20.0781 -4.40087e-17 1.42094e-16)             (24.8916 -6.61246e-17 -7.20869e-17)             (42.7925 9.7795e-17 4.22616e-16)
          117             (47.0491 -2.47113e-17 -1.43964e-15)             (48.3261 -8.10636e-17 -1.36406e-16)             (20.1237 4.40953e-17 9.50957e-17)             (24.9563 1.01615e-16 -5.56074e-16)             (42.7842 2.57322e-16 -6.14742e-16)
          118             (46.9983 2.66018e-16 -2.78101e-16)             (48.4265 1.67923e-16 -1.77429e-16)             (20.1688 3.75772e-17 -2.1164e-16)             (25.0202 1.31894e-16 -5.40343e-16)             (42.7762 8.66583e-17 -1.36072e-15)
          119             (46.9483 -1.12634e-16 7.91985e-16)             (48.5256 9.24403e-17 -4.87362e-17)             (20.2134 -1.05067e-16 9.31594e-17)             (25.0833 -4.49905e-16 -1.58115e-16)             (42.7683 2.28156e-16 -5.77411e-16)
          120             (46.8989 -1.04857e-16 7.21723e-16)             (48.6232 -2.90258e-16 2.4609e-16)             (20.2573 7.97374e-17 9.61099e-17)             (25.1455 1.39666e-16 1.43164e-16)             (42.7607 -1.15411e-17 7.87545e-16)