8.00000000000001 	0.447826862407423 	4.0766001685455e-17 	0.648920761012481 	0.0711628512753523 	2.36578451727363 	0.0117050884788156 	0
8.00000000000001 	0.469707653359621 	3.64291929955129e-17 	0.648731236742076 	0.07307008211648 	2.37860201146412 	0.0125411576316254 	0
8.00000000000001 	0.492390001760931 	3.81639164714898e-17 	0.648529559313932 	0.0749824537766024 	2.39530514646747 	0.013426633363076 	0
8 	0.515903271008025 	3.46944695195361e-17 	0.648313203911569 	0.0768923757582582 	2.41569481904291 	0.0143608352084463 	0
8 	0.540277900164783 	2.60208521396521e-17 	0.648079165749763 	0.0787904358320386 	2.43955164243479 	0.015341883025598 	0
8 	0.565545443367138 	1.73472347597681e-17 	0.647823883595621 	0.0806651448152429 	2.46662730604845 	0.0163663745848663 	0
8 	0.59173861067142 	2.08166817117217e-17 	0.647543108579458 	0.0825026716048282 	2.496635811326 	0.0174290015681909 	0
8 	0.618891310399116 	3.07913416985883e-17 	0.647231759331549 	0.0842865807164648 	2.52924495936857 	0.0185221045449231 	0
8.00000000000001 	0.647038693032829 	3.16587034365767e-17 	0.646876542484556 	0.0859935910629368 	2.56420840908383 	0.0196388386994427 	0
8.00000000000001 	0.676217196720269 	3.38271077815477e-17 	0.646478234739803 	0.0876015920279446 	2.60091652092281 	0.0207641377799028 	0
8.00000000000001 	0.706464594445211 	2.77555756156289e-17 	0.646023643649081 	0.0890847667175267 	2.63882315023277 	0.0219126193473493 	0
8.00000000000001 	0.737820042926439 	2.94902990916057e-17 	0.645451689788388 	0.0904143771001374 	2.67738898079226 	0.0232879248446293 	0
8.00000000000001 	0.77032413330801 	4.5102810375397e-17 	0.644703987083032 	0.0915605307216754 	2.71607667589757 	0.0247340874885128 	0
8.00000000000001 	0.804018943706462 	4.5102810375397e-17 	0.643814215943534 	0.0924732683850455 	2.75334124993643 	0.0262831826397412 	0
8.00000000000001 	0.832828548937075 	4.16333634234434e-17 	0.643007388300319 	0.0929954291093646 	2.78096299578937 	0.0274667955538375 	0
8.00000000000001 	0.850607259338146 	3.64291929955129e-17 	0.642494541756982 	0.0932046561063297 	2.79578441917849 	0.0280995146576974 	0
8.00000000000001 	0.875156800710941 	2.08166817117217e-17 	0.641759229506509 	0.0932707516903516 	2.81094401524954 	0.0287419484561892 	0
8.00000000000001 	0.912691938712297 	1.56125112837913e-17 	0.64057253386125 	0.0929766158165449 	2.82394780557301 	0.0293110521059805 	0
8 	0.951602098737957 	1.56125112837913e-17 	0.639240075410515 	0.0920945966324579 	2.82145960322368 	0.029315572188565 	0
8 	0.991937651871334 	1.56125112837913e-17 	0.637739134526208 	0.0905686105486564 	2.80127887347124 	0.0287417119832946 	0
8.00000000000001 	1.03375081443614 	2.08166817117217e-17 	0.636054108549599 	0.0883719328945471 	2.76259957176068 	0.0276047946136957 	0
8 	1.07709571559294 	1.73472347597681e-17 	0.634152748517686 	0.0854818142633356 	2.70458701443592 	0.0259183183761391 	0
8 	1.12202846741196 	1.38777878078145e-17 	0.632012913264421 	0.0819414539321013 	2.62862367362682 	0.0237447237596754 	0
8 	1.16860723751287 	1.73472347597681e-17 	0.629659656611752 	0.0778941011876516 	2.54032847201628 	0.0212401286370676 	0
8 	1.2168923243656 	2.08166817117217e-17 	0.627100136819087 	0.0734704938527952 	2.44563458783261 	0.0186089507103449 	0
8 	1.25482844232423 	2.08166817117217e-17 	0.625053680768276 	0.0699218905819552 	2.37263163399797 	0.0166521216213504 	0
8 	1.28030555781156 	2.42861286636753e-17 	0.623687429897919 	0.0675226679655617 	2.32510267938043 	0.0154070876951086 	0
8 	1.31883376767274 	2.60208521396521e-17 	0.621656881452234 	0.0638802651022111 	2.25668698985271 	0.0136145238056264 	0
8 	1.37262209225426 	1.90819582357449e-17 	0.619005366936259 	0.0589337280685859 	2.17104639394664 	0.0112850920610757 	0
8 	1.41220272459525 	1.38777878078145e-17 	0.617135290750657 	0.055071084239859 	2.11277595834523 	0.00968140872304504 	0
8 	1.43617694926587 	6.93889390390723e-18 	0.61584422210184 	0.0526244477665514 	2.07957157612861 	0.00863105807128887 	0
8 	1.45930396367274 	3.46944695195361e-18 	0.614700301988457 	0.0503889620162633 	2.05240569973997 	0.0077136904550002 	0
8 	1.48161370685419 	3.46944695195361e-18 	0.613612188475306 	0.0482438028607121 	2.02959821546966 	0.00685681193580709 	0
8 	1.50313505985141 	-3.46944695195361e-18 	0.612571981078646 	0.0461895195279468 	2.01125142720611 	0.00605603433943707 	0
8 	1.52389588309638 	-6.93889390390723e-18 	0.611580408174163 	0.0442256740986618 	1.99747229025194 	0.0053113208544565 	0
8 	1.54392305247858 	-6.93889390390723e-18 	0.610637287869425 	0.0423510566049749 	1.98837738265013 	0.00462189721437754 	0
8 	1.56324249413704 	-1.04083408558608e-17 	0.609741550379008 	0.0405638812236087 	1.98409832535723 	0.00398644541833264 	0
8 	1.58187921802306 	-1.38777878078145e-17 	0.608891937700505 	0.0388621868146585 	1.98478747329736 	0.00340334142009741 	0
8 	1.59985735027679 	-1.04083408558608e-17 	0.608087124999958 	0.0372437913137846 	1.99062370175549 	0.00287082779572764 	0
8 	1.61720016445966 	-6.93889390390723e-18 	0.607325709528275 	0.0357060919668749 	2.00181827955334 	0.00238714019485533 	0
8 	1.63393011168312 	-3.46944695195361e-18 	0.60660622435393 	0.0342464666221655 	2.0186209320149 	0.00195062926180414 	0
8 	1.65006884967273 	0 	0.605927162922133 	0.0328623514288611 	2.04132609304662 	0.00155983821321414 	0
8 	1.66563727080512 	0 	0.605286998787278 	0.0315512919092064 	2.07027938426718 	0.00121357560861478 	0
8 	1.68065552915415 	0 	0.604684201065601 	0.0303109957239552 	2.10588433288238 	0.000910974668611929 	0
8 	1.69514306658136 	0 	0.60411724564535 	0.0291393880595049 	2.14860927710746 	0.000651543260166318 	0
8 	1.70911863790442 	-3.46944695195361e-18 	0.603584623507948 	0.0280346080955409 	2.19899438527163 	0.000435205984896685 	0
8 	1.72260033517611 	-6.93889390390723e-18 	0.603084849648844 	0.0269949650601174 	2.25765873395889 	0.000262337138447804 	0
8 	1.73560561110537 	-1.04083408558608e-17 	0.602616470240927 	0.0260189663300677 	2.32530721091492 	0.00013378410064195 	0
8 	1.74815130165068 	-1.38777878078145e-17 	0.602178066454395 	0.0251053321740714 	2.40273680256292 	5.08789852532189e-05 	0
8 	1.76025364781502 	-1.38777878078145e-17 	0.601768256645881 	0.0242529805565843 	2.49084178075026 	1.54356915918256e-05 	0
8 	1.77192831667064 	-1.38777878078145e-17 	0.60138569765609 	0.0234609987117594 	2.59061717624592 	2.97269301400004e-05 	0
8 	1.78319042164083 	-1.38777878078145e-17 	0.601029085508501 	0.0227285976393624 	2.70315981784908 	9.6435019295434e-05 	0
8 	1.79405454206499 	-1.38777878078145e-17 	0.600697155550693 	0.0220550459860151 	2.82966620844616 	0.000218570669784181 	0
8 	1.80453474207227 	-1.38777878078145e-17 	0.600388681919498 	0.0214395946904885 	2.9714265513635 	0.000399355160401401 	0
8 	1.81464458878828 	-1.38777878078145e-17 	0.600102476633525 	0.0208813921154564 	3.12981440135308 	0.000642063919116708 	0
8 	1.8243971698984 	-1.38777878078145e-17 	0.599837388645171 	0.020379387758731 	3.30627186550629 	0.000949833887488988 	0
8 	1.83380511059041 	-1.38777878078145e-17 	0.599592303028483 	0.0199322282766746 	3.5022910139091 	0.00132544331166451 	0
8 	1.84288058989839 	-1.38777878078145e-17 	0.599366140408961 	0.0195381523975289 	3.71939315319639 	0.00177108005743896 	0
8 	1.85163535646909 	-1.38777878078145e-17 	0.599157856649198 	0.0191948937677993 	3.95910880055005 	0.00228812171659047 	0
8 	1.86008074377113 	-1.38777878078145e-17 	0.59896644281012 	0.0188996027155399 	4.22296240193194 	0.00287695597345075 	0
8 	1.8682276847667 	-1.38777878078145e-17 	0.598790925421653 	0.0186487968868771 	4.51246685472802 	0.00353687091218075 	0
8 	1.8760867260648 	-1.38777878078145e-17 	0.598630367024804 	0.0184383485160429 	4.82913350407475 	0.00426604099883037 	0
8 	1.88366804157438 	-1.38777878078145e-17 	0.598483866870749 	0.0182635127297235 	5.17450329649144 	0.00506162533569946 	0
8 	1.8909814456749 	-1.38777878078145e-17 	0.598350561646717 	0.0181189966059599 	5.55020415503655 	0.00591998178483173 	0
8 	1.89803640592158 	-1.38777878078145e-17 	0.598229626104496 	0.0179990634963005 	5.95803856154506 	0.00683698642563181 	0
8 	1.90484205530155 	-1.38777878078145e-17 	0.598120273485828 	0.0178976623447622 	6.40010417481032 	0.00780843576249342 	0
8 	1.91140720405698 	-1.38777878078145e-17 	0.598021755663893 	0.0178085683900507 	6.87894959355689 	0.00883050186894482 	0
8 	1.91774035109035 	-1.38777878078145e-17 	0.597933362943284 	0.0177255202943787 	7.39776762555715 	0.00990020962707194 	0
8 	1.9238496949667 	-1.38777878078145e-17 	0.597854423483973 	0.0176423394070373 	7.96063011491406 	0.0110159100563027 	0
8 	1.92974314452705 	-1.38777878078145e-17 	0.597784302334277 	0.0175530190697836 	8.57277187750074 	0.0121777327018829 	0
8 	1.9354283291268 	-1.38777878078145e-17 	0.597722400070692 	0.017451774833299 	9.24093693357571 	0.0133880107254633 	0
8 	1.9409126085123 	-1.38777878078145e-17 	0.597668151047949 	0.017333049329841 	9.97380845197542 	0.014651682141933 	0
8 	1.94620308234835 	-1.38777878078145e-17 	0.597621021261688 	0.0171914675794104 	10.7825554092562 	0.0159766771376843 	0
8 	1.95130659940914 	-1.04083408558608e-17 	0.59758050582013 	0.0170217391124615 	11.6815453235926 	0.0173743019477072 	0
8 	1.95622976644424 	-6.93889390390723e-18 	0.597546126011377 	0.0168185020496824 	12.6892959848159 	0.0188596205006283 	0
8 	1.96097895673142 	-6.93889390390723e-18 	0.597517425938765 	0.0165761008366114 	13.8297740688296 	0.0204518086853428 	0
8 	1.96556031832711 	-6.93889390390723e-18 	0.597493968674478 	0.0162882832839471 	15.1342020585384 	0.022174395325519 	0
8 	1.96997978202542 	-6.93889390390723e-18 	0.597475331873825 	0.0159477936689704 	16.6436154696336 	0.0240551824629148 	0
8 	1.97424306903576 	-6.93889390390723e-18 	0.597461102775856 	0.0155458260312734 	18.4125473232132 	0.0261253786345872 	0
8 	1.9783556983893 	-6.93889390390723e-18 	0.597450872475951 	0.0150712862789056 	20.5144311396368 	0.0284169508419251 	0
8 	1.98232299408358 	-6.93889390390723e-18 	0.597444229337749 	0.0145097972954531 	23.0496729551546 	0.0309561080531817 	0
8 	1.9861500919747 	-6.93889390390723e-18 	0.597440751412037 	0.0138423819145935 	26.1579759272522 	0.0337485662102022 	0
8 	1.98984194642589 	-6.93889390390723e-18 	0.597439997795186 	0.0130438229106681 	30.0376643146867 	0.0367476616040208 	0
8 	1.99340333672126 	-6.93889390390723e-18 	0.597441498879404 	0.0120809692506921 	34.9770997303202 	0.0397876591807966 	0
8 	1.99683887325273 	-1.04083408558608e-17 	0.597444744344449 	0.0109121326739067 	41.4086642303353 	0.0424514131099243 	0
8 	2.00015300348845 	-1.38777878078145e-17 	0.597449164707018 	0.00949119416716556 	50.0103323937817 	0.0438403163293537 	0
8 	2.00335001773022 	-1.04083408558608e-17 	0.597454107326627 	0.00778585414973167 	61.9259150284267 	0.0423247024141209 	0
8 	2.00643405466757 	-6.93889390390723e-18 	0.597458851266775 	0.00582723005504151 	79.3348989736261 	0.0358606705789611 	0
8 	2.00940910673542 	-1.04083408558608e-17 	0.597462770132731 	0.0037928611470136 	107.151928306972 	0.0241511783134007 	0
8 	2.01227902528252 	-1.38777878078145e-17 	0.597465645655111 	0.00202763324632237 	158.451512634325 	0.0114689658194718 	0
8 	2.01504752555717 	-1.38777878078145e-17 	0.597467820161594 	0.000839169178162841 	273.559151559487 	0.00345438044714157 	0
8 	2.01771819151684 	-1.38777878078145e-17 	0.59746995024314 	0.000246564624282137 	611.139576102035 	0.000598271943268974 	0
8 	2.02029448046774 	-1.38777878078145e-17 	0.597472497582956 	4.27705481986774e-05 	2231.37914802463 	5.14631212561169e-05 	0
8 	2.02277972754047 	-1.38777878078145e-17 	0.59747489293729 	3.23094947286535e-06 	8890.48410713284 	1.74936726891541e-06 	2.13592125867279e-38
