7 	0.00391112967796255 	2.42861286636753e-17 	-0.00491602654372533 	-4.76979231057183e-05 	3.7578402863262e-21
7 	0.0118766651674914 	2.42861286636753e-17 	-0.0103073223772138 	-0.00012691317288926 	7.76807786676066e-21
7 	0.0201340015485761 	1.04083408558608e-17 	-0.00872173173878745 	-0.000298404273468536 	3.22993120198271e-21
7 	0.028693828342395 	6.93889390390723e-18 	-0.00209449949148801 	-0.000574180516015939 	-1.60346893476857e-20
7 	0.0375672266585909 	1.04083408558608e-17 	0.00580749483108812 	-0.000903260456004171 	-2.59427998049361e-21
7 	0.0467656835403032 	1.04083408558608e-17 	0.0128877175401635 	-0.0012620540190202 	3.3252971433999e-21
7 	0.0563011068347007 	1.04083408558608e-17 	0.01898991698939 	-0.00164968224913849 	4.91190686003111e-22
7 	0.0661858406082648 	1.04083408558608e-17 	0.0244396511756513 	-0.0020649194189589 	3.02845668228514e-21
7 	0.0764326811267815 	2.08166817117217e-17 	0.0294957695598738 	-0.0025044972107274 	2.8722424352612e-21
7 	0.0870548934207257 	2.77555756156289e-17 	0.0343229508505483 	-0.00296609325995482 	2.37405360788381e-21
7 	0.0980662284574838 	2.42861286636753e-17 	0.0390280328699629 	-0.00344854029056529 	2.02565216641918e-21
7 	0.109480940942647 	2.08166817117217e-17 	0.0436848248274159 	-0.00395125665071001 	6.24414455807429e-22
7 	0.121313807773416 	2.42861286636753e-17 	0.0483479140529361 	-0.00447391417912307 	3.49220371101281e-22
7 	0.13358014716801 	3.12250225675825e-17 	0.0530603734912588 	-0.00501630598165028 	8.58879877285947e-22
7 	0.146295838495838 	3.29597460435593e-17 	0.0578582524873869 	-0.00557828211412104 	-3.91291891869719e-22
7 	0.159477342834115 	3.46944695195361e-17 	0.062773329407928 	-0.00615970544616229 	1.48884055004847e-21
7 	0.173141724277517 	4.16333634234434e-17 	0.0678348878580519 	-0.00676041686334797 	6.72154149461909e-22
7 	0.18730667202848 	4.68375338513738e-17 	0.0730709227360233 	-0.00738020569724979 	3.15266551534383e-21
7 	0.201990523296728 	5.03069808033274e-17 	0.0785090016140621 	-0.00801878240018175 	-1.8209239530982e-21
7 	0.217212287037676 	5.3776427755281e-17 	0.084176911468299 	-0.00867575141035409 	1.42516762475816e-21
7 	0.232991668560441 	5.89805981832114e-17 	0.09010316825236 	-0.00935058284799328 	1.59726225403714e-21
7 	0.249349095037321 	6.07153216591882e-17 	0.0963174366791288 	-0.0100425820583667 	-1.27743692443546e-21
7 	0.266305741947753 	5.72458747072346e-17 	0.102850889526163 	-0.0107508562082725 	3.08779729283657e-22
7 	0.283883560490999 	5.55111512312578e-17 	0.109736524428283 	-0.011474277249499 	1.4135121843811e-22
7 	0.30210530600303 	5.3776427755281e-17 	0.117009448545007 	-0.0122114406305831 	2.58435199044077e-22
7 	0.320994567414413 	5.03069808033274e-17 	0.124707136041403 	-0.0129606191888892 	4.07126100459141e-21
7 	0.340575797787321 	5.03069808033274e-17 	0.132869659027147 	-0.0137197117030218 	4.32491118640307e-21
7 	0.360874345971201 	5.72458747072346e-17 	0.141539888861291 	-0.0144861856367774 	4.2361482034651e-22
7 	0.38191648941809 	5.89805981832114e-17 	0.150763661161538 	-0.0152570136562541 	0
7 	0.403729468200046 	5.8113236445223e-17 	0.160589894195348 	-0.0160286035899719 	9.07858329991111e-18
7 	0.426341520272733 	6.76542155630955e-17 	0.171070646416638 	-0.0167967218487626 	8.03754478986311e-18
7 	0.449781918030829 	7.54604712049911e-17 	0.182261094711813 	-0.0175564109607519 	-7.9416278974856e-18
7 	0.474081006202548 	7.63278329429795e-17 	0.194219410375904 	-0.0183018999860973 	-6.82954736265108e-18
7 	0.499270241132364 	7.97972798949331e-17 	0.207006504038501 	-0.019026495308558 	-2.35315792895372e-22
7 	0.525382231502763 	8.32667268468867e-17 	0.220685602306012 	-0.0197224401984177 	-5.97891308421662e-22
7.00000000000001 	0.552450780547767 	7.67615138119737e-17 	0.235321620037784 	-0.0203808828193589 	-9.77054089894385e-21
7.00000000000001 	0.58051092981285 	6.57026516526216e-17 	0.250980362277149 	-0.0209923892691337 	-9.80415908740043e-21
7.00000000000001 	0.609599004517911 	5.63785129692462e-17 	0.267727956590744 	-0.0215471971830848 	-1.01247988325925e-20
7.00000000000001 	0.639752660582033 	4.96564594998361e-17 	0.28563346153462 	-0.0220237899802893 	1.64516128764039e-22
7.00000000000001 	0.671010933370887 	5.50774703622636e-17 	0.305118630499521 	-0.0223963352142576 	2.44460231004501e-24
7.00000000000001 	0.703414288229901 	6.93889390390723e-17 	0.326762572942526 	-0.0226381977003967 	4.20849380670103e-18
7.00000000000001 	0.737004672868607 	7.28583859910259e-17 	0.350642087932322 	-0.0227252820774914 	3.10701455929633e-16
7.00000000000001 	0.771825571663977 	6.59194920871187e-17 	0.376561591800046 	-0.0226533479994397 	-3.00590771729437e-16
7.00000000000001 	0.807922061953054 	5.89805981832114e-17 	0.404226470883273 	-0.0224253577860183 	-1.46491223787409e-17
7.00000000000001 	0.845340872387743 	5.89805981832114e-17 	0.433365493225995 	-0.0220427635147242 	5.60384439869615e-22
7.00000000000001 	0.88413044342731 	5.89805981832114e-17 	0.46376187709238 	-0.0215041357331779 	1.14736865722417e-17
7.00000000000001 	0.924340990046898 	5.89805981832114e-17 	0.49522290186296 	-0.0208076123787303 	2.56868259401737e-16
7.00000000000001 	0.966024566743243 	6.24500451351651e-17 	0.527532869730244 	-0.0199547347779726 	-2.57166779516996e-16
7.00000000000001 	1.00923513492173 	5.55111512312578e-17 	0.560420595683352 	-0.0189539286288892 	-1.90162175752302e-17
7.00000000000001 	1.05402863275206 	6.24500451351651e-17 	0.593553387650701 	-0.0178224152501201 	-1.22558013255402e-20
7.00000000000001 	1.10046304758287 	7.63278329429795e-17 	0.626554842780102 	-0.0165860872303363 	-1.67746512719006e-21
7.00000000000001 	1.14859849100923 	7.97972798949331e-17 	0.659035219546067 	-0.015277771549125 	-1.40980409157101e-20
7.00000000000001 	1.19849727668995 	8.67361737988404e-17 	0.690621404824952 	-0.013934958767681 	-4.29107546400932e-21
7.00000000000001 	1.25022400101563 	8.67361737988404e-17 	0.720987604677342 	-0.0125960180239117 	-1.37657326304893e-20
7.00000000000001 	1.30384562673186 	8.67361737988404e-17 	0.749896949137508 	-0.0112949208657873 	-3.2189577092314e-20
7.00000000000001 	1.35943156962566 	9.36750677027476e-17 	0.77722982479292 	-0.0100566872755194 	-1.66427710570235e-20
7.00000000000001 	1.41705378838763 	9.71445146547012e-17 	0.802968268712815 	-0.00889638435963898 	-3.20809123684423e-20
7.00000000000001 	1.47678687776592 	9.71445146547012e-17 	0.827153631060318 	-0.00782141654213664 	-1.15298359736371e-20
7.00000000000001 	1.50779776549243 	9.85539774789324e-17 	0.839078869122039 	-0.00729711051953164 	0
7.00000000000001 	1.53931529845551 	9.16150835750251e-17 	0.850088516870097 	-0.00682343041013033 	0
7.00000000000001 	1.60289781058851 	9.0205620750794e-17 	0.871195045036109 	-0.00592941153919274 	4.48000126282259e-21
7.00000000000001 	1.66943891073267 	9.0205620750794e-17 	0.891117115098293 	-0.0051127533512368 	1.5943671337304e-20
7.00000000000001 	1.73841760623657 	9.0205620750794e-17 	0.909659113744091 	-0.00437957583436633 	1.00769290777035e-20
7.00000000000001 	1.8099231933566 	9.54097911787244e-17 	0.926860217317605 	-0.00371442929930388 	1.68616312535333e-20
7.00000000000001 	1.88404823953249 	9.36750677027476e-17 	0.942857972968482 	-0.00307983323468758 	-8.65955560178623e-21
7.00000000000001 	1.96088870322038 	9.54097911787244e-17 	0.957422613136028 	-0.00248505263408596 	9.07360581465465e-20
7.00000000000001 	2.02025965173185 	9.36750677027476e-17 	0.967863208250111 	-0.00201361066960603 	6.38552495534366e-21
7.00000000000001 	2.06006301192217 	8.84708972748172e-17 	0.974651610345554 	-0.00170130897928409 	0
7.00000000000001 	2.09845978584128 	8.67361737988404e-17 	0.980525296718382 	-0.00142643653363524 	0
7.00000000000001 	2.13549967996946 	8.67361737988404e-17 	0.985825593556839 	-0.00117110778003337 	0
7.00000000000001 	2.17123064424048 	8.67361737988404e-17 	0.990593962135993 	-0.000933745921674576 	0
7.00000000000001 	2.20569893411516 	8.67361737988404e-17 	0.994866627300738 	-0.000713061242871401 	0
7.00000000000001 	2.23894917046123 	8.67361737988404e-17 	0.998675032755244 	-0.000507630664862581 	0
7.00000000000001 	2.27102439731726 	8.67361737988404e-17 	1.00204624614721 	-0.000316136739565317 	0
7.00000000000001 	2.30196613761522 	8.67361737988404e-17 	1.00500328995986 	-0.000137400113572719 	0
7.00000000000001 	2.33181444693392 	8.84708972748172e-17 	1.00756541716119 	2.9636170296781e-05 	0
7.00000000000001 	2.3606079653529 	9.0205620750794e-17 	1.00974834326894 	0.000185920282526399 	0
7.00000000000001 	2.38838396747391 	8.84708972748172e-17 	1.01156442990653 	0.000332303003462879 	0
7.00000000000001 	2.41517841067461 	8.84708972748172e-17 	1.01302282908795 	0.000469549203859083 	0
7.00000000000001 	2.44102598165722 	9.0205620750794e-17 	1.01412959830851 	0.000598349288573157 	0
7.00000000000001 	2.46596014135208 	9.0205620750794e-17 	1.014887791933 	0.000719329888533795 	0
7.00000000000001 	2.49001316823444 	9.0205620750794e-17 	1.01529753506284 	0.000833063638230471 	0
7.00000000000001 	2.51321620011054 	9.19403442267708e-17 	1.01535608689272 	0.00094007802517693 	0
7.00000000000001 	2.53559927442701 	9.36750677027476e-17 	1.01505790164078 	0.00104086321444549 	0
7.00000000000001 	2.55719136715571 	9.36750677027476e-17 	1.0143946972893 	0.0011358787828319 	0
7.00000000000001 	2.57802043030466 	9.36750677027476e-17 	1.01335554364032 	0.00122555956488705 	0
7.00000000000001 	2.59811342810315 	9.36750677027476e-17 	1.01192697906491 	0.00131032026668301 	0
7.00000000000001 	2.61749637190832 	9.36750677027476e-17 	1.01009316942726 	0.00139055848136527 	0
7.00000000000001 	2.63619435387806 	9.36750677027476e-17 	1.00783612226875 	0.0014666561529816 	0
7.00000000000001 	2.65423157945406 	9.36750677027476e-17 	1.0051359670262 	0.00153897916916614 	0
7.00000000000001 	2.67163139869691 	9.36750677027476e-17 	1.00197130877183 	0.00160787480419671 	0
7.00000000000001 	2.68841633651388 	9.36750677027476e-17 	0.998319657828167 	0.00167366684379241 	0
7.00000000000001 	2.70460812181851 	9.71445146547012e-17 	0.994157930473945 	0.00173664843316786 	0
7.00000000000001 	2.72022771565972 	1.02348685082632e-16 	0.989463006814323 	0.0017970728433757 	0
7.00000000000001 	2.73529533835695 	1.04083408558608e-16 	0.984212323649454 	0.00185514263389111 	0
7.00000000000001 	2.74983049567626 	1.04083408558608e-16 	0.978384473379006 	0.0019109977767251 	0
7.00000000000001 	2.76385200408157 	1.05818132034585e-16 	0.97195977341521 	0.0019647039632557 	0
7.00000000000001 	2.77737801509344 	1.04083408558608e-16 	0.964920767206816 	0.00201624226347598 	0
7.00000000000001 	2.79042603878708 	1.04083408558608e-16 	0.957252619319992 	0.00206550101463443 	0
7.00000000000001 	2.80301296646003 	1.07552855510562e-16 	0.948943372386067 	0.00211227081312387 	0
7.00000000000001 	2.81515509249873 	1.07552855510562e-16 	0.93998404068204 	0.00215624495852006 	0
7.00000000000001 	2.82686813547238 	1.07552855510562e-16 	0.930368521652027 	0.00219702974862558 	0
7.00000000000001 	2.83816725848143 	1.07552855510562e-16 	0.92009331423185 	0.00223414516489556 	0
7.00000000000001 	2.84906708878692 	1.07552855510562e-16 	0.909149861248939 	0.00226698202011071 	0
7.00000000000001 	2.85958173674617 	1.05818132034585e-16 	0.897466609540276 	0.00229498345285465 	0
7.00000000000001 	2.86972481407933 	1.05818132034585e-16 	0.884916574793396 	0.0023174613602736 	0
7.00000000000001 	2.87950945149043 	1.07552855510562e-16 	0.871438071381944 	0.00233337207881476 	0
7.00000000000001 	2.88894831566567 	1.07552855510562e-16 	0.8570676206161 	0.00234139508344998 	0
7.00000000000001 	2.89805362567107 	1.09287578986539e-16 	0.841885296030957 	0.00234018416127195 	0
7.00000000000001 	2.90683716877067 	1.11022302462516e-16 	0.825974305972144 	0.00232847336990395 	0
7.00000000000001 	2.9153103156857 	1.11022302462516e-16 	0.80940115427804 	0.00230514810872784 	0
7.00000000000001 	2.92348403531449 	1.11022302462516e-16 	0.792207956830711 	0.00226929523420177 	0
7.00000000000001 	2.9313689089323 	1.11022302462516e-16 	0.774409894312765 	0.00222022921974767 	0
7.00000000000001 	2.93897514388925 	1.11022302462516e-16 	0.755993423428333 	0.00215750269520997 	0
7.00000000000001 	2.94631258682425 	1.14491749414469e-16 	0.736913030104537 	0.0020809094002885 	0
7.00000000000001 	2.95339073641193 	1.14491749414469e-16 	0.717085494422543 	0.00199048457770757 	0
7.00000000000001 	2.96021875565916 	1.14491749414469e-16 	0.696381043021071 	0.0018865061688251 	0
7.00000000000001 	2.96680548376697 	1.17961196366423e-16 	0.674610716445708 	0.00176950039067001 	0
7.00000000000001 	2.97315944757337 	1.17961196366423e-16 	0.651508953811704 	0.00164025514818254 	0
7.00000000000001 	2.97928887259171 	1.17961196366423e-16 	0.626709915245721 	0.00149984218991212 	0
7.00000000000001 	2.98520169365903 	1.17961196366423e-16 	0.599715505469942 	0.00134964891352838 	0
7.00000000000001 	2.99090556520807 	1.196959198424e-16 	0.569851554517548 	0.00119144894140214 	0
7.00000000000001 	2.99640787117634 	1.21430643318376e-16 	0.536200387521568 	0.00102758591016234 	0
7.00000000000001 	3.00171573456493 	1.2490009027033e-16 	0.497479105402566 	0.000860968486647148 	0
7.00000000000001 	3.00683602665963 	1.28369537222284e-16 	0.45194727138733 	0.000694756325005014 	0
7.00000000000001 	3.01177537592613 	1.33573707650214e-16 	0.397647916155611 	0.000532535276956479 	0
7.00000000000001 	3.01654017659086 	1.38777878078145e-16 	0.333492772635959 	0.000378766382685433 	0
7.00000000000001 	3.02113659691865 	1.38777878078145e-16 	0.261197029991824 	0.000240824464366855 	0
7.00000000000001 	3.02557058719785 	1.35308431126191e-16 	0.185334782446366 	0.000128342755492903 	0
7.00000000000001 	3.02984788744325 	1.31838984174237e-16 	0.109909213300009 	4.94501067382669e-05 	0
