1.00000000000266e-06 	1.00195556483898 	0 	-0.0015415365836289 	1.86255020465085e-05 	2960.69475082945 	8.41033708929651e-06 	6.0404610152783e-38
1.00000000000266e-06 	1.00593833258374 	-6.93889390390723e-18 	-0.00153011650676611 	0.000167556253273586 	1304.16552137849 	0.00022426656302338 	0
1.00000000000266e-06 	1.01006700077429 	-1.04083408558608e-17 	-0.00150356468276841 	0.000743831307428751 	292.260634582801 	0.0018206236222617 	0
1.00000000000266e-06 	1.0143469141712 	-1.38777878078145e-17 	-0.00144782866676536 	0.00210052779816571 	123.926304222177 	0.00659446302100471 	0
1.00000000000266e-06 	1.01878361332929 	-2.08166817117217e-17 	-0.00134013718345327 	0.00426142077194591 	71.7102622894636 	0.0132946768265993 	0
1.00000000000266e-06 	1.02338284177015 	-2.77555756156289e-17 	-0.00116172819851546 	0.00683408075639742 	48.0621115050103 	0.0172548082700649 	0
1.00000000000266e-06 	1.02815055341735 	-3.12250225675825e-17 	-0.000909022256933602 	0.00940481642461014 	34.4475164914005 	0.016392062224429 	0
1.00000000000266e-06 	1.03309292030413 	-3.46944695195361e-17 	-0.000591797765548775 	0.0117964190583677 	25.7235680721311 	0.0129398481015822 	0
1.00000000000266e-06 	1.03821634056339 	-3.81639164714898e-17 	-0.000223548983962519 	0.013978061683823 	19.8846306318319 	0.00944037278626769 	0
1.00000000000266e-06 	1.04352744671037 	-4.5102810375397e-17 	0.000184708099551602 	0.0159541405165287 	15.8551589774256 	0.00682217405879451 	0
1.00000000000266e-06 	1.04903311422875 	-4.5102810375397e-17 	0.000625656645017451 	0.0177363646531614 	12.9881323547625 	0.00506611679711924 	0
1.00000000000266e-06 	1.05474047047133 	-4.16333634234434e-17 	0.00109503820528057 	0.0193406504202111 	10.8862199812975 	0.00392364339246194 	0
1.00000000000266e-06 	1.06065690388671 	-4.16333634234434e-17 	0.00159071922690954 	0.0207850384339503 	9.30238708162075 	0.00317786017509423 	0
1.00000000000266e-06 	1.06679007358401 	-4.16333634234434e-17 	0.00211189813448166 	0.0220875022170299 	8.07975968465077 	0.00268356424667891 	0
1.00000000000266e-06 	1.07314791924792 	-4.16333634234434e-17 	0.00265855189729963 	0.0232645527983538 	7.11599797663126 	0.00235067819698916 	0
1.00000000000266e-06 	1.07973867141706 	-4.16333634234434e-17 	0.00323108618856916 	0.0243306394077462 	6.34242501288009 	0.00212407355480533 	0
1.00000000000266e-06 	1.08657086213876 	-4.16333634234434e-17 	0.00383011817448295 	0.0252980457358918 	5.71169502783699 	0.00196960259749862 	0
1.00000000000266e-06 	1.09365333601424 	-4.16333634234434e-17 	0.0044563384838632 	0.0261770302073496 	5.1903556646252 	0.00186562370901792 	0
1.00000000000266e-06 	1.10099526164836 	-4.5102810375397e-17 	0.0051104216621518 	0.0269760603838618 	4.75424405121038 	0.00179804184582294 	0
1.00000000000266e-06 	1.10860614351884 	-4.85722573273506e-17 	0.00579296810108328 	0.0277020650891384 	4.38555857713096 	0.00175740869791212 	0
1.00000000000266e-06 	1.11649583428022 	-5.20417042793042e-17 	0.00650446733717765 	0.0283606700850191 	4.0709472081652 	0.00173720276027623 	0
1.00000000000266e-06 	1.12467454751866 	-5.89805981832114e-17 	0.00724527619061944 	0.028956405034392 	3.80022920524476 	0.00173278723868256 	0
1.00000000000266e-06 	1.13315287097387 	-6.93889390390723e-17 	0.0080156071715522 	0.029492880033108 	3.56552193676022 	0.00174076283891534 	0
1.00000000000266e-06 	1.1419417802455 	-6.93889390390723e-17 	0.00881552368229453 	0.0299729346103592 	3.3606331309898 	0.00175855506866659 	0
1.00000000000266e-06 	1.15105265300151 	-6.24500451351651e-17 	0.00964493922313699 	0.0303987637485998 	3.18063091420368 	0.00178414394836381 	0
1.00000000000266e-06 	1.1604972837072 	-6.24500451351651e-17 	0.0105036183374591 	0.0307720257082832 	3.02153525697912 	0.00181588239415422 	0
1.00000000000266e-06 	1.17028789889366 	-6.24500451351651e-17 	0.0113911775675218 	0.031093936047045 	2.88009374828679 	0.00185237141231905 	0
1.00000000000266e-06 	1.1804371729856 	-5.89805981832114e-17 	0.0123070852974056 	0.0313653515857325 	2.75361682184261 	0.00189237291667302 	0
1.00000000000266e-06 	1.19095824470904 	-5.55111512312578e-17 	0.0132506600136758 	0.0315868473750472 	2.63985546225928 	0.00193474843720213 	0
1.00000000000266e-06 	1.20186473410002 	-6.24500451351651e-17 	0.0142210671341827 	0.0317587890310046 	2.53690964687189 	0.00197841643334069 	0
1.00000000000266e-06 	1.21317076013637 	-6.93889390390723e-17 	0.015217315032296 	0.0318814021693446 	2.44315930262594 	0.00202232359624673 	0
1.00000000000266e-06 	1.22489095901541 	-6.93889390390723e-17 	0.0162382511461922 	0.0319548400900672 	2.35721196716806 	0.00206542715128364 	0
1.00000000000266e-06 	1.23704050310127 	-6.59194920871187e-17 	0.0172825591115733 	0.0319792503175026 	2.27786300757843 	0.00210668619309678 	0
1.00000000000266e-06 	1.24963512056618 	-6.59194920871187e-17 	0.0183487577379261 	0.0319548400579407 	2.20406540378079 	0.00214506074917115 	0
1.00000000000266e-06 	1.26269111575138 	-7.28583859910259e-17 	0.0194352024229704 	0.0318819400940677 	2.13490690006774 	0.00217951771456709 	0
1.00000000000266e-06 	1.27622539027388 	-7.63278329429795e-17 	0.0205400893371649 	0.0317610661085079 	2.06959287094632 	0.00220904309705865 	0
1.00000000000266e-06 	1.29025546490642 	-7.28583859910259e-17 	0.0216614624752458 	0.0315929759411729 	2.00743360930793 	0.00223266015965003 	0
1.00000000000266e-06 	1.30479950225895 	-6.59194920871187e-17 	0.0227972235014467 	0.0313787208702482 	1.94783497937906 	0.00224945301830759 	0
1.00000000000266e-06 	1.31987633029101 	-6.24500451351651e-17 	0.0239451442144347 	0.0311196887051266 	1.89029152591616 	0.00225859502198088 	0
1.00000000000266e-06 	1.33550546668544 	-5.20417042793042e-17 	0.0251028814096844 	0.0308176363339852 	1.8343812290646 	0.00225938081002601 	0
1.00000000000266e-06 	1.35170714411495 	-4.5102810375397e-17 	0.0262679938916384 	0.0304747094159564 	1.77976116998266 	0.00225126035089896 	0
1.00000000000266e-06 	1.3685023364343 	-4.85722573273506e-17 	0.0274379613574851 	0.0300934471709951 	1.72616344907627 	0.00223387260238995 	0
1.00000000000266e-06 	1.38591278583198 	-4.5102810375397e-17 	0.0286102048245504 	0.0296767707014365 	1.67339079345914 	0.00220707581921548 	0
1.00000000000266e-06 	1.40396103097652 	-4.16333634234434e-17 	0.0297821082089771 	0.0292279539545208 	1.62131141233932 	0.00217097110395912 	0
1.00000000000266e-06 	1.42267043619387 	-4.5102810375397e-17 	0.0309510406020949 	0.0287505772577638 	1.56985280928656 	0.0021259156786749 	0
1.00000000000266e-06 	1.44206522171365 	-4.85722573273506e-17 	0.0321143787513825 	0.0282484642664866 	1.51899443170823 	0.00207252264947219 	0
1.00000000000266e-06 	1.46217049502345 	-4.5102810375397e-17 	0.0332695292464574 	0.0277256040919329 	1.46875921772517 	0.0020116448249986 	0
1.00000000000266e-06 	1.48301228337162 	-4.16333634234434e-17 	0.0344139499386237 	0.0271860612824965 	1.41920427439931 	0.00194434150174255 	0
1.00000000000266e-06 	1.50461756746086 	-4.16333634234434e-17 	0.0355451701775249 	0.0266338771875588 	1.37041107551625 	0.00187182909320699 	0
1.00000000000266e-06 	1.52701431637602 	-4.16333634234434e-17 	0.0366608095087081 	0.0260729670257062 	1.32247568929838 	0.00179541899118507 	0
1.00000000000266e-06 	1.55023152379143 	-3.81639164714898e-17 	0.0377585945483932 	0.0255070176276328 	1.27549961871891 	0.00171644873149623 	0
1.00000000000266e-06 	1.57429924550461 	-3.12250225675825e-17 	0.0388363739857458 	0.0249393911006742 	1.2295818286715 	0.00163621450997459 	0
1.00000000000266e-06 	1.59924863834497 	-3.46944695195361e-17 	0.03989213220907 	0.0243730392095663 	1.18481240750072 	0.00155591311695268 	0
1.00000000000266e-06 	1.62511200050781 	-4.16333634234434e-17 	0.0409240025539808 	0.0238104319247774 	1.1412680595411 	0.00147659875156057 	0
1.00000000000266e-06 	1.65192281336592 	-3.81639164714898e-17 	0.0419302809733417 	0.0232535019056396 	1.09900932687535 	0.00139915578039451 	0
1.00000000000266e-06 	1.67971578481282 	-3.46944695195361e-17 	0.0429094401050646 	0.0227036059111984 	1.05807923321162 	0.00132428455375705 	0
1.00000000000266e-06 	1.70852689419381 	-3.81639164714898e-17 	0.0438601430687649 	0.0221615052622423 	1.01850301776907 	0.00125249606570532 	0
1.00000000000266e-06 	1.73839343888296 	-4.5102810375397e-17 	0.0447812562181907 	0.0216273700862013 	0.980288722294908 	0.00118411269723054 	0
1.00000000000266e-06 	1.76935408256639 	-4.85722573273506e-17 	0.0456718593612149 	0.0211008131457399 	0.94342845309416 	0.00111927505107235 	0
1.00000000000266e-06 	1.80144890529425 	-5.55111512312578e-17 	0.0465312517628493 	0.0205809522181986 	0.907900056869144 	0.0010579551595482 	0
1.00000000000266e-06 	1.83471945536633 	-6.24500451351651e-17 	0.0473589520101634 	0.020066504539006 	0.873668855755588 	0.000999971021658337 	0
1.00000000000266e-06 	1.86920880311829 	-6.24500451351651e-17 	0.0481547164260849 	0.0195559393334793 	0.840689304469679 	0.000944990369368726 	0
1.00000000000266e-06 	1.9049615966783 	-6.59194920871187e-17 	0.0489187131686809 	0.0190476967079434 	0.808906953312779 	0.00089252823152868 	0
1.00000000000266e-06 	1.94202411976624 	-6.59194920871187e-17 	0.049651350049727 	0.0185403948913253 	0.778261246272857 	0.000842090169264511 	0
1.00000000000266e-06 	1.98044435161018 	-5.89805981832114e-17 	0.0504269090580896 	0.0179746427962968 	0.745419334783531 	0.000788428350149112 	0
1.00000000000266e-06 	2.04004996790234 	-5.55111512312578e-17 	0.0513800047000626 	0.0172320656417952 	0.704264368879697 	0.000719876261850809 	0
1.00000000000266e-06 	2.11873460271874 	-5.55111512312578e-17 	0.0524283858117805 	0.0163498276778801 	0.657922444028187 	0.000638489922966848 	0
1.00000000000266e-06 	2.19463865000284 	-5.55111512312578e-17 	0.0533659562938649 	0.0154780930912204 	0.615115893734781 	0.000559434947329877 	0
1.00000000000266e-06 	2.26786037121375 	-5.55111512312578e-17 	0.0541479470963201 	0.0146662876175086 	0.578051025224367 	0.000489006389419588 	0
1.00000000000266e-06 	2.33849455540975 	-5.55111512312578e-17 	0.054806275694049 	0.0139078697324781 	0.545738843567279 	0.000426698202209909 	0
1.00000000000266e-06 	2.40663264195736 	-4.85722573273506e-17 	0.0553647928171573 	0.0131982754261502 	0.517464157340715 	0.000371723998440597 	0
1.00000000000266e-06 	2.47236283890404 	-4.5102810375397e-17 	0.0558421974854285 	0.0125338426092406 	0.492709734530931 	0.000323125669527385 	0
1.00000000000266e-06 	2.5357702371677 	-4.85722573273506e-17 	0.0562532002444466 	0.0119114665061102 	0.471102874446464 	0.00027996384918925 	0
1.00000000000266e-06 	2.59693692069107 	-5.20417042793042e-17 	0.0566095072136508 	0.0113284708727624 	0.452368509778946 	0.00024143863404443 	0
1.00000000000266e-06 	2.65594207270333 	-5.55111512312578e-17 	0.0569204781762317 	0.0107825138232565 	0.436291355268778 	0.000206921443499191 	0
1.00000000000266e-06 	2.71286207822658 	-5.55111512312578e-17 	0.0571936211007077 	0.0102715006315996 	0.422691429557358 	0.000175934970192327 	0
1.00000000000266e-06 	2.76777062295999 	-5.55111512312578e-17 	0.0574349736098366 	0.00979351452568417 	0.411412656748198 	0.000148117421162553 	0
1.00000000000266e-06 	2.82073878866949 	-5.55111512312578e-17 	0.0576494099354822 	0.00934677285837168 	0.402320440828363 	0.0001231898686192 	0
1.00000000000266e-06 	2.87183514520654 	-5.20417042793042e-17 	0.0578408879449329 	0.00892960565981963 	0.395303372962188 	0.000100932183840471 	0
1.00000000000266e-06 	2.92112583927514 	-4.85722573273506e-17 	0.058012644829768 	0.00854044985505624 	0.390275821450914 	8.1167386263435e-05 	0
1.00000000000266e-06 	2.9686746800619 	-4.5102810375397e-17 	0.0581673491932618 	0.00817785301991259 	0.387179991834938 	6.37526721268198e-05 	0
