7 	0.00391112967796255 	2.42861286636753e-17 	0.263985890213386 	2.43838260268633e-05 	789.722724916856 	1.11984271176077e-08 	4.49102655645226e-38
7 	0.0118766651674914 	2.42861286636753e-17 	0.263985376601916 	0.000234931736610541 	280.468790598824 	9.50649289459068e-07 	0
7 	0.0201340015485761 	1.04083408558608e-17 	0.263980790826086 	0.00104504161905776 	65.297757735805 	2.02117213576462e-05 	0
7 	0.028693828342395 	6.93889390390723e-18 	0.263971005897918 	0.00271065062058598 	26.3344495642945 	0.000109058811915039 	0
7 	0.0375672266585909 	1.04083408558608e-17 	0.263950775333519 	0.00478812067657635 	14.124064921889 	0.000257348366159369 	0
7 	0.0467656835403032 	1.04083408558608e-17 	0.263917170588165 	0.0067454845759662 	9.17491276901623 	0.000376709095994484 	0
7 	0.0563011068347007 	1.04083408558608e-17 	0.263871533320422 	0.00844337351892426 	6.74965515749769 	0.000457619202812437 	0
7 	0.0661858406082648 	1.04083408558608e-17 	0.263816813853427 	0.0099284232326875 	5.36400452914583 	0.000525140905524801 	0
7 	0.0764326811267815 	2.08166817117217e-17 	0.263755208389976 	0.0112615380157159 	4.47997947934447 	0.000592157271101125 	0
7 	0.0870548934207257 	2.77555756156289e-17 	0.263688033023492 	0.0124867203605526 	3.871170640029 	0.000662796238768052 	0
7 	0.0980662284574838 	2.42861286636753e-17 	0.263616220408277 	0.0136338682761025 	3.42868120390753 	0.000738532970536482 	0
7 	0.109480940942647 	2.08166817117217e-17 	0.263540551885953 	0.0147237073977955 	3.09428580603578 	0.000820118438159758 	0
7 	0.121313807773416 	2.42861286636753e-17 	0.263461712149042 	0.015771118045943 	2.83419514246358 	0.000908118859256965 	0
7 	0.13358014716801 	3.12250225675825e-17 	0.263380314023694 	0.0167871668518462 	2.62750608753346 	0.00100307918961872 	0
7 	0.146295838495838 	3.29597460435593e-17 	0.263296920567116 	0.0177803498665664 	2.46061425189656 	0.00110557706479253 	0
7 	0.159477342834115 	3.46944695195361e-17 	0.263212059834033 	0.0187573719404412 	2.32429550387038 	0.0012162424177279 	0
7 	0.173141724277517 	4.16333634234434e-17 	0.263126232467743 	0.0197236487803238 	2.21208261547608 	0.00133576581030774 	0
7 	0.18730667202848 	4.68375338513738e-17 	0.263039914715498 	0.0206836379077212 	2.1193138673683 	0.00146490269025304 	0
7 	0.201990523296728 	5.03069808033274e-17 	0.262953558486473 	0.0216410601924942 	2.04255036991978 	0.00160447580137736 	0
7 	0.217212287037676 	5.3776427755281e-17 	0.262867589168156 	0.0225990486547536 	1.97920551122837 	0.00175537630254263 	0
7 	0.232991668560441 	5.89805981832114e-17 	0.262782401576038 	0.0235602468616408 	1.92730146854999 	0.00191856348469114 	0
7 	0.249349095037321 	6.07153216591882e-17 	0.262698354269142 	0.0245268707315816 	1.88530450776195 	0.00209506263673245 	0
7 	0.266305741947753 	5.72458747072346e-17 	0.262615762363915 	0.0255007423518856 	1.85201060576202 	0.0022859603808141 	0
7 	0.283883560490999 	5.55111512312578e-17 	0.26253488890267 	0.0264833011321382 	1.82646403351242 	0.00249239659037333 	0
7 	0.30210530600303 	5.3776427755281e-17 	0.262455934775503 	0.027475595486841 	1.80789798186698 	0.00271555178537894 	0
7 	0.320994567414413 	5.03069808033274e-17 	0.262379027147329 	0.028478256832163 	1.79569017018614 	0.00295662865581752 	0
7 	0.340575797787321 	5.03069808033274e-17 	0.262304206298719 	0.0294914567480652 	1.78932875149293 	0.00321682609560709 	0
7 	0.360874345971201 	5.72458747072346e-17 	0.262231410754769 	0.0305148475641846 	1.78838532526836 	0.00349730384122939 	0
7 	0.38191648941809 	5.89805981832114e-17 	0.262160460545654 	0.0315474863112 	1.79249283601862 	0.00379913552217248 	0
7 	0.403729468200046 	5.8113236445223e-17 	0.262091038296734 	0.0325877419219936 	1.80132677587374 	0.00412324770153124 	0
7 	0.426341520272733 	6.76542155630955e-17 	0.262022667347317 	0.033633185787063 	1.81458854621429 	0.00447034241608163 	0
7 	0.449781918030829 	7.54604712049911e-17 	0.261954686183197 	0.0346804663120609 	1.83199014455658 	0.00484080070451868 	0
7 	0.474081006202548 	7.63278329429795e-17 	0.261886224080099 	0.0357251690669811 	1.85323958063046 	0.00523456370402218 	0
7 	0.499270241132364 	7.97972798949331e-17 	0.261816192628034 	0.0367616655960546 	1.87802662918905 	0.00565098639657138 	0
7 	0.525382231502763 	8.32667268468867e-17 	0.261743256055056 	0.0377829561956018 	1.90600873158076 	0.00608867230650813 	0
7.00000000000001 	0.552450780547767 	7.67615138119737e-17 	0.261665507495739 	0.0387805147006724 	1.9367970731606 	0.00654536454026167 	0
7.00000000000001 	0.58051092981285 	6.57026516526216e-17 	0.26157974929032 	0.0397441437814736 	1.96994299020696 	0.00701815319586541 	0
7.00000000000001 	0.609599004517911 	5.63785129692462e-17 	0.26148363507298 	0.0406618499358648 	2.00492505114711 	0.00750559564182515 	0
7.00000000000001 	0.639752660582033 	4.96564594998361e-17 	0.261389613679169 	0.0415197307527099 	2.04113689933997 	0.00813908597766286 	0
7.00000000000001 	0.671010933370887 	5.50774703622636e-17 	0.261310143808987 	0.0423074673164308 	2.07817852050193 	0.00878587564338816 	0
7.00000000000001 	0.703414288229901 	6.93889390390723e-17 	0.261217608129777 	0.0430074183899782 	2.1145662493112 	0.00951939660468791 	0
7.00000000000001 	0.737004672868607 	7.28583859910259e-17 	0.261074519059389 	0.0435703397900298 	2.14667895267314 	0.0101705929796775 	0
7.00000000000001 	0.771825571663977 	6.59194920871187e-17 	0.260869366193037 	0.0439390947929235 	2.17030242368735 	0.0106476271259281 	0
7.00000000000001 	0.807922061953054 	5.89805981832114e-17 	0.260602592247805 	0.0440667647175805 	2.18190230972281 	0.0109275617386181 	0
7.00000000000001 	0.845340872387743 	5.89805981832114e-17 	0.26027468444949 	0.0439222010845903 	2.17915331116775 	0.0110239065304172 	0
7.00000000000001 	0.88413044342731 	5.89805981832114e-17 	0.259882437323528 	0.0434881532102633 	2.16086169752595 	0.0109552187648826 	0
7.00000000000001 	0.924340990046898 	5.89805981832114e-17 	0.259418888251498 	0.0427584569696591 	2.12670410546749 	0.0107307882678159 	0
7.00000000000001 	0.966024566743243 	6.24500451351651e-17 	0.258874493077273 	0.0417376089267671 	2.07702652156174 	0.0103526332438888 	0
7.00000000000001 	1.00923513492173 	5.55111512312578e-17 	0.258238635213599 	0.0404424716670088 	2.01274739273498 	0.00982491951855878 	0
7.00000000000001 	1.05402863275206 	6.24500451351651e-17 	0.257500999746002 	0.038904116833733 	1.93532737553873 	0.00916240229973238 	0
7.00000000000001 	1.10046304758287 	7.63278329429795e-17 	0.256652600318822 	0.0371678097662536 	1.84675370597027 	0.00839326696750269 	0
7.00000000000001 	1.14859849100923 	7.97972798949331e-17 	0.255686344054274 	0.0352912062614837 	1.74969580857919 	0.00755603840256764 	0
7.00000000000001 	1.19849727668995 	8.67361737988404e-17 	0.254597192665594 	0.0333458880251175 	1.64863039222249 	0.00669494873882152 	0
7.00000000000001 	1.25022400101563 	8.67361737988404e-17 	0.253383251438142 	0.031409192173873 	1.54890606682839 	0.00585466568990554 	0
7.00000000000001 	1.30384562673186 	8.67361737988404e-17 	0.252046930971624 	0.0295365597717242 	1.45283615256689 	0.00507142507873215 	0
7.00000000000001 	1.35943156962566 	9.36750677027476e-17 	0.250593924787425 	0.0277576304458449 	1.36063627259353 	0.00436751278982939 	0
7.00000000000001 	1.41705378838763 	9.71445146547012e-17 	0.249031708572708 	0.026087706450706 	1.27264241742504 	0.00375076705449725 	0
7.00000000000001 	1.47678687776592 	9.71445146547012e-17 	0.247368890295592 	0.0245304284688816 	1.18928788482148 	0.00321754079754984 	0
7.00000000000001 	1.50779776549243 	9.85539774789324e-17 	0.24649544557527 	0.0237658148156691 	1.14805196786765 	0.00296651674381436 	0
7.00000000000001 	1.53931529845551 	9.16150835750251e-17 	0.24559901435894 	0.0230604659084468 	1.10925909419566 	0.00275213939344855 	0
7.00000000000001 	1.60289781058851 	9.0205620750794e-17 	0.243783917673589 	0.0216986549903264 	1.03337598885286 	0.00235521847591433 	0
7.00000000000001 	1.66943891073267 	9.0205620750794e-17 	0.241881878982782 	0.0203854738458053 	0.958747592828328 	0.00200497903388309 	0
7.00000000000001 	1.73841760623657 	9.0205620750794e-17 	0.239925221260862 	0.0191225719205857 	0.887844997595151 	0.00169874999100604 	0
7.00000000000001 	1.8099231933566 	9.54097911787244e-17 	0.237938986827371 	0.0179041916249373 	0.824294193742047 	0.00143093827544684 	0
7.00000000000001 	1.88404823953249 	9.36750677027476e-17 	0.235959740037727 	0.0167175400729498 	0.770348168390304 	0.00118485891415328 	0
7.00000000000001 	1.96088870322038 	9.54097911787244e-17 	0.234038692046079 	0.0155729443337085 	0.726536641199036 	0.000960561873100571 	0
7.00000000000001 	2.02025965173185 	9.36750677027476e-17 	0.232581542717236 	0.0146901295819545 	0.69894415991731 	0.000798400777001976 	0
7.00000000000001 	2.06006301192217 	8.84708972748172e-17 	0.231573497768287 	0.0140850113086488 	0.68277357956757 	0.000692154435403472 	0
7.00000000000001 	2.09845978584128 	8.67361737988404e-17 	0.230666387125599 	0.0135346404621083 	0.670276000701012 	0.000599967974836948 	0
7.00000000000001 	2.13549967996946 	8.67361737988404e-17 	0.229812642441479 	0.013012390310396 	0.660479157890545 	0.000516274044900522 	0
7.00000000000001 	2.17123064424048 	8.67361737988404e-17 	0.229009088722145 	0.0125168542297169 	0.653234454602591 	0.000440389827305455 	0
7.00000000000001 	2.20569893411516 	8.67361737988404e-17 	0.228253559675342 	0.0120467955785723 	0.648444904013532 	0.000371768340985534 	0
7.00000000000001 	2.23894917046123 	8.67361737988404e-17 	0.227543741408151 	0.011601121942077 	0.64605646712654 	0.000309920701611178 	0
7.00000000000001 	2.27102439731726 	8.67361737988404e-17 	0.226877296939779 	0.0111788665149976 	0.646052256472553 	0.00025441723223199 	0
7.00000000000001 	2.30196613761522 	8.67361737988404e-17 	0.2262519524333 	0.0107792217038595 	0.648449012584807 	0.000204891746382218 	0
7.00000000000001 	2.33181444693392 	8.84708972748172e-17 	0.225665508960193 	0.0104014698143838 	0.653295348031108 	0.000161042767685349 	0
7.00000000000001 	2.3606079653529 	9.0205620750794e-17 	0.225115846262351 	0.0100449772231276 	0.660671404467749 	0.000122635753504557 	0
7.00000000000001 	2.38838396747391 	8.84708972748172e-17 	0.224600928427201 	0.00970922248461893 	0.670689660463619 	8.95056426300149e-05 	0
7.00000000000001 	2.41517841067461 	8.84708972748172e-17 	0.224118808133972 	0.00939379432178864 	0.683496695477951 	6.1559904218e-05 	0
7.00000000000001 	2.44102598165722 	9.0205620750794e-17 	0.22366762859945 	0.00909839087014454 	0.699275785396635 	3.8782623731164e-05 	0
7.00000000000001 	2.46596014135208 	9.0205620750794e-17 	0.223245623910581 	0.00882282029088014 	0.718250236999801 	2.12394242783393e-05 	0
7.00000000000001 	2.49001316823444 	9.0205620750794e-17 	0.22285111814715 	0.00856700138416451 	0.740687382094767 	9.08320894896e-06 	0
7.00000000000001 	2.51321620011054 	9.19403442267708e-17 	0.222482523525142 	0.00833096394529498 	0.766903143986465 	2.5606224704091e-06 	0
7.00000000000001 	2.53559927442701 	9.36750677027476e-17 	0.222138337751862 	0.00811485125575649 	0.797267048453523 	2.0190324181423e-06 	0
7.00000000000001 	2.55719136715571 	9.36750677027476e-17 	0.221817140885984 	0.00791891735558477 	0.832207491757611 	7.9136840066815e-06 	0
7.00000000000001 	2.57802043030466 	9.36750677027476e-17 	0.221517591776535 	0.00774350228912019 	0.872217074232462 	2.0814549810808e-05 	0
7.00000000000001 	2.59811342810315 	9.36750677027476e-17 	0.221238423925426 	0.00758902601255545 	0.917857685852039 	4.14122783873986e-05 	0
7.00000000000001 	2.61749637190832 	9.36750677027476e-17 	0.220978441383757 	0.00745597469651705 	0.969764857091444 	7.05224369312952e-05 	0
7.00000000000001 	2.63619435387806 	9.36750677027476e-17 	0.220736514554259 	0.00734487622274239 	1.02865085479743 	0.000109087073182291 	0
7.00000000000001 	2.65423157945406 	9.36750677027476e-17 	0.22051157600302 	0.00725626854483196 	1.09530591390735 	0.00015817253403271 	0
7.00000000000001 	2.67163139869691 	9.36750677027476e-17 	0.220302616394941 	0.00719066086805659 	1.17059694754278 	0.00021896245460738 	0
7.00000000000001 	2.68841633651388 	9.36750677027476e-17 	0.220108680655992 	0.00714848795689636 	1.25546312040749 	0.000292744925363757 	0
7.00000000000001 	2.70460812181851 	9.71445146547012e-17 	0.21992886446503 	0.00713005821305636 	1.35090784070707 	0.000380893128273034 	0
7.00000000000001 	2.72022771565972 	1.02348685082632e-16 	0.21976231104625 	0.00713549742896997 	1.45798705575926 	0.000484839100294058 	0
7.00000000000001 	2.73529533835695 	1.04083408558608e-16 	0.219608208268546 	0.00716469348869239 	1.57779419001678 	0.000606040786861534 	0
7.00000000000001 	2.74983049567626 	1.04083408558608e-16 	0.219465786264907 	0.00721724429458545 	1.711442662969 	0.000745943136869831 	0
7.00000000000001 	2.76385200408157 	1.05818132034585e-16 	0.219334315484795 	0.0072924123717832 	1.86004766829333 	0.000905934890180878 	0
7.00000000000001 	2.77737801509344 	1.04083408558608e-16 	0.219213105031945 	0.00738909060374983 	2.02470963363381 	0.00108730340939441 	0
7.00000000000001 	2.79042603878708 	1.04083408558608e-16 	0.219101501117314 	0.00750578340286498 	2.20650239355143 	0.00129119043258015 	0
7.00000000000001 	2.80301296646003 	1.07552855510562e-16 	0.218998885744952 	0.00764060661435297 	2.40646949840248 	0.00151855226053587 	0
7.00000000000001 	2.81515509249873 	1.07552855510562e-16 	0.21890467658746 	0.00779130662883491 	2.62563224494831 	0.001770128568834 	0
7.00000000000001 	2.82686813547238 	1.07552855510562e-16 	0.218818327641915 	0.0079552979296978 	2.86501295816749 	0.00204642444490141 	0
7.00000000000001 	2.83816725848143 	1.07552855510562e-16 	0.218739317769147 	0.00812971769307309 	3.12567677369305 	0.00234945133659288 	0
7.00000000000001 	2.84906708878692 	1.07552855510562e-16 	0.218667119660667 	0.00831151868956723 	3.40894107404267 	0.00269304111946962 	0
7.00000000000001 	2.85958173674617 	1.05818132034585e-16 	0.218601248067513 	0.00849772387566586 	3.71755828755244 	0.00307813795210012 	0
7.00000000000001 	2.86972481407933 	1.05818132034585e-16 	0.218541298917987 	0.00868514151285972 	4.05499756512499 	0.00350747598436162 	0
7.00000000000001 	2.87950945149043 	1.07552855510562e-16 	0.21848691073252 	0.00886833148706526 	4.42223227683273 	0.00397441973668235 	0
7.00000000000001 	2.88894831566567 	1.07552855510562e-16 	0.218437725862136 	0.00903971336916324 	4.81752662191694 	0.00445818434764337 	0
7.00000000000001 	2.89805362567107 	1.09287578986539e-16 	0.218393383354237 	0.00919163047619827 	5.23877833106987 	0.00494550665559153 	0
7.00000000000001 	2.90683716877067 	1.11022302462516e-16 	0.218353550884709 	0.00931753336229669 	5.68526312631503 	0.0054306658465209 	0
7.00000000000001 	2.9153103156857 	1.11022302462516e-16 	0.218317939109774 	0.00941226925776881 	6.15856138725268 	0.00591263338147022 	0
7.00000000000001 	2.92348403531449 	1.11022302462516e-16 	0.21828629937761 	0.00947190000283361 	6.66301887700689 	0.00639317828949146 	0
7.00000000000001 	2.9313689089323 	1.11022302462516e-16 	0.218258417937026 	0.00949335143724343 	7.20609242528028 	0.00687602412080195 	0
7.00000000000001 	2.93897514388925 	1.11022302462516e-16 	0.218234111242588 	0.00947403469070026 	7.7988373155837 	0.00736677067098148 	0
7.00000000000001 	2.94631258682425 	1.14491749414469e-16 	0.218213222141788 	0.00941146581397957 	8.45672354931197 	0.00787321120112056 	0
7.00000000000001 	2.95339073641193 	1.14491749414469e-16 	0.218195615287021 	0.00930285254097182 	9.2009874909686 	0.00840572600263108 	0
7.00000000000001 	2.96021875565916 	1.14491749414469e-16 	0.21818116979446 	0.00914459626762335 	10.0607395300254 	0.00897745942208798 	0
7.00000000000001 	2.96680548376697 	1.17961196366423e-16 	0.218169767502903 	0.00893166481543336 	11.0759628201836 	0.00960391854489356 	0
7.00000000000001 	2.97315944757337 	1.17961196366423e-16 	0.2181612756725 	0.00865674933223616 	12.3025955125373 	0.010301324319649 	0
7.00000000000001 	2.97928887259171 	1.17961196366423e-16 	0.218155523943536 	0.00830912924704565 	13.8206636720747 	0.0110824365165058 	0
7.00000000000001 	2.98520169365903 	1.17961196366423e-16 	0.218152280283118 	0.00787325217052793 	15.7472722967466 	0.0119476550651805 	0
7.00000000000001 	2.99090556520807 	1.196959198424e-16 	0.218151241193265 	0.00732708294939932 	18.258981672915 	0.0128684584310894 	0
7.00000000000001 	2.99640787117634 	1.21430643318376e-16 	0.218152045430515 	0.00664038435985174 	21.6331361547129 	0.0137519458844185 	0
7.00000000000001 	3.00171573456493 	1.2490009027033e-16 	0.218154245998929 	0.00577363554371962 	26.3313212689757 	0.0143077496111626 	0
7.00000000000001 	3.00683602665963 	1.28369537222284e-16 	0.218157223876364 	0.00468794523311259 	33.1844237275988 	0.0138928574938411 	0
7.00000000000001 	3.01177537592613 	1.33573707650214e-16 	0.218160257937075 	0.00338918863287516 	43.9069785808255 	0.0115404946650432 	0
7.00000000000001 	3.01654017659086 	1.38777878078145e-16 	0.218162760862231 	0.00202333904656026 	62.9117153005659 	0.00705645729159843 	0
7.00000000000001 	3.02113659691865 	1.38777878078145e-16 	0.218164562946106 	0.000909643062999259 	104.52175794031 	0.00265017486391637 	0
7.00000000000001 	3.02557058719785 	1.35308431126191e-16 	0.218165982999234 	0.000279890137626602 	228.063282098407 	0.000531797281201859 	0
7.00000000000001 	3.02984788744325 	1.31838984174237e-16 	0.218167448862184 	5.02688426959756e-05 	840.60230184381 	5.04115418626951e-05 	0
