0 	6.72159e-06 	4.70511e-05 	48.2488 	-1.56736e-16 	-1.384e-15
0 	2.00755e-05 	0.000140529 	48.2359 	-1.83643e-16 	-2.6344e-15
0 	3.32521e-05 	0.000232765 	48.2231 	-1.33848e-16 	-1.97794e-15
0 	4.62538e-05 	0.000323776 	48.2102 	-9.4552e-17 	-1.08918e-15
0 	5.90828e-05 	0.00041358 	48.1974 	-7.03269e-17 	-5.9754e-16
0 	7.17415e-05 	0.00050219 	48.1844 	-4.86034e-17 	-3.5625e-16
0 	8.42321e-05 	0.000589625 	48.1715 	-4.46946e-17 	-2.94221e-16
0 	9.11937e-05 	0.000638356 	48.1642 	-4.96459e-17 	-2.94838e-16
0 	9.73149e-05 	0.000681204 	48.1471 	-5.65753e-17 	-2.87173e-16
0 	0.000108718 	0.000761026 	48.1123 	-6.34674e-17 	-2.73394e-16
0 	0.000120718 	0.000845023 	48.0755 	-6.01315e-17 	-3.17685e-16
0 	0.000132558 	0.000927906 	48.0389 	-2.04039e-17 	-4.52732e-16
0 	0.000144241 	0.00100969 	48.0027 	3.08312e-17 	-5.80641e-16
0 	0.000155769 	0.00109038 	47.9666 	8.60172e-17 	-6.65315e-16
0 	0.000167144 	0.00117001 	47.9308 	1.50815e-16 	-7.3105e-16
0 	0.000174169 	0.00121918 	47.9086 	1.96933e-16 	-7.65127e-16
0 	0.000179743 	0.0012582 	47.8828 	2.39391e-16 	-7.78552e-16
0 	0.000189443 	0.0013261 	47.8332 	3.00947e-16 	-8.26267e-16
0 	0.00020037 	0.00140259 	47.777 	3.4696e-16 	-9.40819e-16
0 	0.000211153 	0.00147807 	47.7213 	3.70621e-16 	-1.05007e-15
0 	0.000221793 	0.00155255 	47.666 	3.50744e-16 	-1.04208e-15
0 	0.000232291 	0.00162604 	47.6111 	2.9631e-16 	-9.46949e-16
0 	0.00024265 	0.00169855 	47.5567 	2.36448e-16 	-9.02793e-16
0 	0.000249666 	0.00174766 	47.5196 	2.13469e-16 	-9.40769e-16
0 	0.000254742 	0.0017832 	47.4865 	2.07024e-16 	-1.02664e-15
0 	0.000262957 	0.0018407 	47.4269 	1.94266e-16 	-1.16722e-15
0 	0.000272908 	0.00191036 	47.3544 	1.57561e-16 	-1.28517e-15
0 	0.000282728 	0.0019791 	47.2825 	9.20188e-17 	-1.32883e-15
0 	0.000292417 	0.00204692 	47.2111 	3.72632e-17 	-1.36168e-15
0 	0.000301978 	0.00211384 	47.1403 	3.24427e-17 	-1.34687e-15
0 	0.000311411 	0.00217988 	47.0699 	6.05585e-17 	-1.21893e-15
0 	0.000318359 	0.00222851 	47.0177 	8.45246e-17 	-1.09186e-15
0 	0.000322982 	0.00226088 	46.9783 	9.84989e-17 	-1.02637e-15
0 	0.000329904 	0.00230933 	46.9124 	1.05002e-16 	-1.00638e-15
0 	0.000338967 	0.00237277 	46.8257 	1.1785e-16 	-1.05261e-15
0 	0.00034791 	0.00243537 	46.7396 	1.57437e-16 	-1.10243e-15
0 	0.000356733 	0.00249713 	46.6541 	1.95137e-16 	-1.11078e-15
0 	0.00036544 	0.00255808 	46.5692 	2.08541e-16 	-1.10762e-15
0 	0.000374031 	0.00261822 	46.4848 	1.98151e-16 	-1.13051e-15
0 	0.000380862 	0.00266603 	46.4172 	1.82075e-16 	-1.15828e-15
0 	0.000385072 	0.0026955 	46.372 	1.73743e-16 	-1.17113e-15
0 	0.000390872 	0.0027361 	46.3024 	1.64543e-16 	-1.1686e-15
0 	0.000399125 	0.00279388 	46.2029 	1.48458e-16 	-1.12144e-15
0 	0.000407269 	0.00285088 	46.104 	1.33205e-16 	-1.01251e-15
0 	0.000415305 	0.00290713 	46.0058 	9.74796e-17 	-8.8648e-16
0 	0.000423234 	0.00296263 	45.908 	4.90703e-17 	-7.80567e-16
0 	0.000431057 	0.0030174 	45.8108 	4.91533e-17 	-6.766e-16
0 	0.000437732 	0.00306412 	45.7272 	1.0062e-16 	-5.63123e-16
0 	0.000441566 	0.00309096 	45.6768 	1.39715e-16 	-4.92237e-16
0 	0.000446394 	0.00312476 	45.6056 	1.56764e-16 	-4.14909e-16
0 	0.00045391 	0.00317737 	45.4942 	1.4244e-16 	-3.28688e-16
0 	0.000461326 	0.00322928 	45.3834 	8.88349e-17 	-2.98917e-16
0 	0.000468644 	0.00328051 	45.2732 	3.7259e-17 	-3.16466e-16
0 	0.000475865 	0.00333105 	45.1636 	1.01788e-17 	-3.43686e-16
0 	0.00048299 	0.00338093 	45.0545 	1.99482e-17 	-3.5732e-16
0 	0.000489477 	0.00342634 	44.9543 	6.18294e-17 	-3.53285e-16
0 	0.000492968 	0.00345078 	44.899 	9.52064e-17 	-3.45031e-16
0 	0.000496957 	0.0034787 	44.8278 	1.17978e-16 	-3.46056e-16
0 	0.000503801 	0.00352661 	44.7051 	1.26626e-16 	-3.63611e-16
0 	0.000510555 	0.00357389 	44.5831 	9.69289e-17 	-3.56028e-16
0 	0.000517219 	0.00362053 	44.4617 	6.37538e-17 	-2.87193e-16
0 	0.000523795 	0.00366656 	44.3408 	5.27228e-17 	-1.95368e-16
0 	0.000530283 	0.00371198 	44.2204 	6.36422e-17 	-1.26724e-16
0 	0.000536558 	0.00375591 	44.103 	7.56937e-17 	-1.1343e-16
0 	0.000539738 	0.00377817 	44.0429 	8.03697e-17 	-1.22437e-16
0 	0.000543003 	0.00380102 	43.9732 	1.0078e-16 	-1.46092e-16
0 	0.000549236 	0.00384465 	43.8397 	1.54498e-16 	-1.81661e-16
0 	0.000555387 	0.00388771 	43.7068 	2.08698e-16 	-1.86762e-16
0 	0.000561456 	0.00393019 	43.5745 	2.29968e-16 	-1.77318e-16
0 	0.000567444 	0.00397211 	43.4428 	2.27985e-16 	-2.27601e-16
0 	0.000573353 	0.00401347 	43.3117 	2.18453e-16 	-3.54517e-16
0 	0.000579183 	0.00405428 	43.1812 	2.18474e-16 	-4.47323e-16
0 	0.000582293 	0.00407605 	43.1112 	2.22698e-16 	-4.62795e-16
0 	0.00058515 	0.00409605 	43.0394 	2.22901e-16 	-4.32281e-16
0 	0.000590612 	0.00413429 	42.9006 	2.2054e-16 	-3.81314e-16
0 	0.000596214 	0.0041735 	42.757 	2.23922e-16 	-3.56423e-16
0 	0.00060174 	0.00421218 	42.6142 	2.30476e-16 	-3.66308e-16
0 	0.000607194 	0.00425036 	42.4721 	2.3069e-16 	-3.79927e-16
0 	0.000612575 	0.00428802 	42.3306 	2.30969e-16 	-3.82369e-16
0 	0.000617884 	0.00432519 	42.1899 	2.43626e-16 	-3.72984e-16
0 	0.000621012 	0.00434709 	42.1065 	2.56004e-16 	-3.6174e-16
0 	0.000623614 	0.0043653 	42.0303 	2.73003e-16 	-3.40495e-16
0 	0.000628293 	0.00439805 	41.8903 	3.05582e-16 	-2.9898e-16
0 	0.000633394 	0.00443376 	41.7365 	3.34624e-16 	-2.75159e-16
0 	0.000638427 	0.00446899 	41.5836 	3.50873e-16 	-2.80758e-16
0 	0.000643393 	0.00450375 	41.4315 	3.53897e-16 	-2.80671e-16
0 	0.000648294 	0.00453806 	41.2802 	3.45359e-16 	-2.48776e-16
0 	0.000653129 	0.0045719 	41.1298 	3.40036e-16 	-1.92139e-16
0 	0.000656243 	0.0045937 	41.0323 	3.44194e-16 	-1.53346e-16
0 	0.000658612 	0.00461029 	40.9522 	3.58322e-16 	-1.28835e-16
0 	0.000662608 	0.00463825 	40.8127 	3.77498e-16 	-8.69382e-17
0 	0.000667253 	0.00467077 	40.6495 	3.81918e-16 	-4.64791e-17
0 	0.000671837 	0.00470286 	40.4873 	3.60097e-16 	-3.22429e-17
0 	0.000676359 	0.00473452 	40.3261 	3.26066e-16 	-4.1053e-17
0 	0.000680822 	0.00476575 	40.1658 	2.91172e-16 	-4.84316e-17
0 	0.000685225 	0.00479658 	40.0065 	2.56833e-16 	-5.03192e-17
0 	0.000688298 	0.00481808 	39.8948 	2.36181e-16 	-5.69656e-17
0 	0.000690456 	0.00483319 	39.8114 	2.28122e-16 	-6.52504e-17
0 	0.000693858 	0.004857 	39.6744 	2.3059e-16 	-7.17199e-17
0 	0.000698088 	0.00488662 	39.5032 	2.39577e-16 	-7.62876e-17
0 	0.000702262 	0.00491583 	39.3331 	2.31065e-16 	-7.45716e-17
0 	0.000706381 	0.00494467 	39.1642 	2.02531e-16 	-4.89207e-17
0 	0.000710445 	0.00497311 	38.9964 	1.71379e-16 	-3.11251e-18
0 	0.000714455 	0.00500118 	38.8299 	1.40693e-16 	4.38724e-17
0 	0.000717464 	0.00502225 	38.7043 	1.12327e-16 	6.94364e-17
0 	0.000719429 	0.00503601 	38.6182 	9.23307e-17 	8.00347e-17
0 	0.000722316 	0.00505621 	38.4853 	6.80006e-17 	9.36251e-17
0 	0.000726168 	0.00508318 	38.3072 	4.13542e-17 	1.16383e-16
0 	0.00072997 	0.00510979 	38.1305 	1.73925e-17 	1.37541e-16
0 	0.000733721 	0.00513604 	37.9551 	-1.16179e-17 	1.30099e-16
0 	0.000737422 	0.00516195 	37.7809 	-4.25075e-17 	9.28168e-17
0 	0.000741073 	0.00518751 	37.6081 	-6.52551e-17 	5.49941e-17
0 	0.000744002 	0.00520801 	37.4688 	-7.6919e-17 	3.97184e-17
0 	0.000745792 	0.00522054 	37.3805 	-8.08668e-17 	3.87861e-17
0 	0.000748232 	0.00523763 	37.2529 	-8.16918e-17 	4.06324e-17
0 	0.000751741 	0.00526219 	37.0687 	-7.62236e-17 	4.462e-17
0 	0.000755203 	0.00528642 	36.8861 	-6.7208e-17 	5.75465e-17
0 	0.000758618 	0.00531033 	36.7049 	-6.63128e-17 	9.01713e-17
0 	0.000761989 	0.00533392 	36.525 	-7.37751e-17 	1.22542e-16
0 	0.000765314 	0.0053572 	36.3467 	-7.75654e-17 	1.32097e-16
0 	0.000768148 	0.00537704 	36.1941 	-7.06105e-17 	1.35718e-16
0 	0.000769778 	0.00538845 	36.1038 	-6.0826e-17 	1.4287e-16
0 	0.000771834 	0.00540284 	35.9822 	-5.03388e-17 	1.50078e-16
0 	0.000775029 	0.0054252 	35.7926 	-4.06313e-17 	1.43124e-16
0 	0.000778181 	0.00544727 	35.6046 	-2.4909e-17 	1.05369e-16
0 	0.000781292 	0.00546904 	35.4182 	6.79313e-18 	5.39081e-17
0 	0.000784361 	0.00549053 	35.2333 	3.50497e-17 	2.2837e-17
0 	0.00078739 	0.00551173 	35.05 	5.15106e-17 	2.05354e-17
0 	0.000790119 	0.00553083 	34.8841 	6.66997e-17 	4.00312e-17
0 	0.000791603 	0.00554122 	34.7923 	7.87339e-17 	5.88944e-17
0 	0.000793327 	0.00555329 	34.6771 	9.31706e-17 	8.27118e-17
0 	0.000796237 	0.00557366 	34.4823 	1.13786e-16 	1.08887e-16
0 	0.000799108 	0.00559375 	34.2892 	1.34612e-16 	1.0973e-16
0 	0.000801941 	0.00561358 	34.0979 	1.59073e-16 	1.0006e-16
0 	0.000804736 	0.00563315 	33.9081 	1.81971e-16 	1.00431e-16
0 	0.000807494 	0.00565246 	33.72 	1.96544e-16 	1.07385e-16
0 	0.000810109 	0.00567076 	33.5409 	1.98098e-16 	1.11917e-16
0 	0.000811461 	0.00568023 	33.4475 	1.95639e-16 	1.13666e-16
0 	0.000812901 	0.00569031 	33.339 	1.93297e-16 	1.242e-16
0 	0.00081555 	0.00570885 	33.1391 	1.89923e-16 	1.39067e-16
0 	0.000818165 	0.00572715 	32.941 	1.90017e-16 	1.37205e-16
0 	0.000820745 	0.00574521 	32.7448 	1.9516e-16 	1.25019e-16
0 	0.00082329 	0.00576303 	32.5501 	1.99146e-16 	1.20056e-16
0 	0.000825802 	0.00578061 	32.3572 	1.96991e-16 	1.2339e-16
0 	0.00082828 	0.00579796 	32.1661 	1.87584e-16 	1.29762e-16
0 	0.000829529 	0.0058067 	32.0697 	1.80806e-16 	1.335e-16
0 	0.000830744 	0.00581521 	31.9666 	1.77584e-16 	1.38877e-16
0 	0.000833139 	0.00583197 	31.7629 	1.74269e-16 	1.53484e-16
0 	0.00083552 	0.00584864 	31.5596 	1.72915e-16 	1.76124e-16
0 	0.000837869 	0.00586508 	31.3583 	1.7006e-16 	1.96517e-16
0 	0.000840187 	0.00588131 	31.1585 	1.67836e-16 	1.97206e-16
0 	0.000842475 	0.00589732 	30.9606 	1.58397e-16 	1.82019e-16
0 	0.000844732 	0.00591312 	30.7646 	1.4565e-16 	1.61794e-16
0 	0.000845969 	0.00592178 	30.6569 	1.39683e-16 	1.51265e-16
0 	0.000847075 	0.00592953 	30.5519 	1.36552e-16 	1.46232e-16
0 	0.000849156 	0.00594409 	30.3522 	1.31194e-16 	1.40646e-16
0 	0.000851325 	0.00595927 	30.1434 	1.22849e-16 	1.39897e-16
0 	0.000853464 	0.00597425 	29.9367 	1.12599e-16 	1.42622e-16
0 	0.000855575 	0.00598903 	29.7315 	1.05759e-16 	1.43534e-16
0 	0.000857658 	0.00600361 	29.5283 	1.02772e-16 	1.41828e-16
0 	0.000859714 	0.006018 	29.3271 	1.01835e-16 	1.41168e-16
0 	0.000860927 	0.00602649 	29.208 	1.01336e-16 	1.41672e-16
0 	0.000861935 	0.00603354 	29.1009 	1.00124e-16 	1.42339e-16
0 	0.000863743 	0.0060462 	28.9049 	9.51433e-17 	1.42479e-16
0 	0.000865718 	0.00606002 	28.6902 	8.34238e-17 	1.40763e-16
0 	0.000867666 	0.00607366 	28.4776 	6.74588e-17 	1.31445e-16
0 	0.000869589 	0.00608712 	28.2667 	5.45933e-17 	1.0995e-16
0 	0.000871486 	0.0061004 	28.0578 	4.78502e-17 	8.99712e-17
0 	0.000873357 	0.0061135 	27.8509 	4.62456e-17 	8.9753e-17
0 	0.000874538 	0.00612176 	27.7202 	4.58269e-17 	9.80856e-17
0 	0.000875455 	0.00612818 	27.6108 	4.29563e-17 	1.05115e-16
0 	0.000877027 	0.00613919 	27.4182 	3.48291e-17 	1.07321e-16
0 	0.000878825 	0.00615178 	27.1972 	2.50465e-17 	9.38525e-17
0 	0.000880599 	0.0061642 	26.9784 	2.03994e-17 	6.94965e-17
0 	0.00088235 	0.00617645 	26.7614 	1.95184e-17 	4.78961e-17
0 	0.000884078 	0.00618854 	26.5464 	2.23153e-17 	3.6803e-17
0 	0.000885782 	0.00620048 	26.3336 	3.1932e-17 	3.27843e-17
0 	0.000886921 	0.00620845 	26.191 	4.09267e-17 	3.00676e-17
0 	0.000887757 	0.0062143 	26.0791 	4.73791e-17 	2.57062e-17
0 	0.000889124 	0.00622387 	25.8896 	5.53115e-17 	1.94288e-17
0 	0.000890762 	0.00623533 	25.662 	5.97193e-17 	1.38985e-17
0 	0.000892378 	0.00624664 	25.4367 	6.19678e-17 	7.53945e-18
0 	0.000893972 	0.0062578 	25.2133 	6.82314e-17 	1.87133e-18
0 	0.000895545 	0.00626882 	24.992 	7.72451e-17 	6.24163e-18
0 	0.000897098 	0.00627968 	24.7729 	8.44588e-17 	1.79875e-17
0 	0.000898189 	0.00628732 	24.6184 	8.78408e-17 	2.72141e-17
0 	0.00089895 	0.00629265 	24.504 	8.8795e-17 	3.35254e-17
0 	0.000900141 	0.00630099 	24.3174 	8.75862e-17 	3.89828e-17
0 	0.000901632 	0.00631142 	24.083 	8.25599e-17 	3.84807e-17
0 	0.000903104 	0.00632173 	23.851 	7.52057e-17 	3.54926e-17
0 	0.000904556 	0.00633189 	23.6211 	6.77144e-17 	3.71723e-17
0 	0.000905988 	0.00634192 	23.3933 	6.07488e-17 	4.35539e-17
0 	0.000907402 	0.00635181 	23.1678 	5.48718e-17 	5.00923e-17
0 	0.000908441 	0.00635909 	23.0016 	5.10979e-17 	5.22782e-17
0 	0.000909134 	0.00636394 	22.8847 	4.95115e-17 	5.13891e-17
0 	0.000910173 	0.00637121 	22.7007 	4.69235e-17 	4.58996e-17
0 	0.000911532 	0.00638072 	22.4598 	4.45207e-17 	3.55221e-17
0 	0.000912872 	0.0063901 	22.2213 	4.4733e-17 	2.54883e-17
0 	0.000914194 	0.00639936 	21.985 	4.80289e-17 	1.51727e-17
0 	0.000915499 	0.00640849 	21.7509 	5.32154e-17 	6.06222e-18
0 	0.000916786 	0.0064175 	21.5192 	5.83519e-17 	3.61038e-19
0 	0.00091777 	0.00642439 	21.3417 	6.24962e-17 	-2.46649e-18
0 	0.000918401 	0.0064288 	21.2225 	6.56311e-17 	-3.58436e-18
0 	0.00091931 	0.00643517 	21.0413 	7.23414e-17 	-3.06901e-18
0 	0.000920547 	0.00644383 	20.7944 	8.24654e-17 	-4.89066e-19
0 	0.000921767 	0.00645237 	20.5501 	9.0083e-17 	2.70289e-18
0 	0.000922971 	0.0064608 	20.3082 	9.64742e-17 	4.70052e-18
0 	0.00092416 	0.00646912 	20.0685 	1.04288e-16 	6.42599e-18
0 	0.000925332 	0.00647732 	19.8313 	1.12109e-16 	1.44144e-17
0 	0.000926257 	0.0064838 	19.6437 	1.15585e-16 	2.59809e-17
0 	0.000926832 	0.00648782 	19.5225 	1.15743e-16 	3.46956e-17
0 	0.00092763 	0.00649341 	19.3444 	1.1305e-16 	4.60757e-17
0 	0.000928757 	0.0065013 	19.0928 	1.0715e-16 	6.05448e-17
0 	0.000929868 	0.00650908 	18.8439 	1.00006e-16 	7.21769e-17
0 	0.000930965 	0.00651675 	18.5975 	9.17036e-17 	8.2735e-17
0 	0.000932047 	0.00652433 	18.3535 	8.39396e-17 	9.26328e-17
0 	0.000933114 	0.0065318 	18.1121 	7.9087e-17 	1.00029e-16
0 	0.00093398 	0.00653786 	17.916 	7.58251e-17 	1.03803e-16
0 	0.000934503 	0.00654152 	17.7933 	7.31355e-17 	1.04842e-16
0 	0.000935207 	0.00654645 	17.6185 	6.80224e-17 	1.06404e-16
0 	0.000936233 	0.00655363 	17.3635 	5.96733e-17 	1.09036e-16
0 	0.000937245 	0.00656072 	17.1114 	5.19371e-17 	1.10645e-16
0 	0.000938244 	0.00656771 	16.8618 	4.57134e-17 	1.10333e-16
0 	0.000939229 	0.00657461 	16.6147 	3.98542e-17 	1.10055e-16
0 	0.000940202 	0.00658141 	16.3703 	3.42877e-17 	1.10627e-16
0 	0.000941007 	0.00658705 	16.1674 	3.14669e-17 	1.12668e-16
0 	0.000941484 	0.00659039 	16.0437 	3.11068e-17 	1.15178e-16
0 	0.000942108 	0.00659476 	15.8718 	3.07936e-17 	1.20671e-16
0 	0.000943042 	0.00660129 	15.6143 	2.80638e-17 	1.28033e-16
0 	0.000943964 	0.00660775 	15.3598 	2.32187e-17 	1.31195e-16
0 	0.000944873 	0.00661411 	15.1079 	1.88969e-17 	1.30691e-16
0 	0.000945771 	0.00662039 	14.8585 	1.61602e-17 	1.28549e-16
0 	0.000946656 	0.00662659 	14.6119 	1.60887e-17 	1.25378e-16
0 	0.000947401 	0.00663181 	14.4041 	1.78811e-17 	1.23158e-16
0 	0.000947835 	0.00663484 	14.28 	1.92841e-17 	1.22207e-16
0 	0.000948392 	0.00663874 	14.1118 	2.02829e-17 	1.19886e-16
0 	0.000949243 	0.0066447 	13.8547 	2.18263e-17 	1.14881e-16
0 	0.000950082 	0.00665057 	13.6008 	2.41048e-17 	1.0895e-16
0 	0.00095091 	0.00665637 	13.3497 	2.57792e-17 	1.03815e-16
0 	0.000951727 	0.00666209 	13.1012 	2.59877e-17 	9.8557e-17
0 	0.000952534 	0.00666774 	12.8557 	2.59078e-17 	9.22867e-17
0 	0.000953218 	0.00667253 	12.647 	2.63111e-17 	8.74071e-17
0 	0.000953614 	0.00667529 	12.5243 	2.66492e-17 	8.49235e-17
0 	0.000954115 	0.0066788 	12.3616 	2.67481e-17 	8.15505e-17
0 	0.000954889 	0.00668423 	12.11 	2.64786e-17 	7.62812e-17
0 	0.000955654 	0.00668958 	11.8618 	2.58999e-17 	7.14711e-17
0 	0.000956408 	0.00669486 	11.6165 	2.56141e-17 	6.70553e-17
0 	0.000957152 	0.00670007 	11.3739 	2.55444e-17 	6.26251e-17
0 	0.000957887 	0.00670521 	11.1345 	2.51897e-17 	5.81515e-17
0 	0.000958512 	0.00670958 	10.9307 	2.49896e-17 	5.42912e-17
0 	0.000958872 	0.0067121 	10.812 	2.49733e-17 	5.20823e-17
0 	0.000959326 	0.00671528 	10.6571 	2.51152e-17 	4.95677e-17
0 	0.000960032 	0.00672022 	10.417 	2.52841e-17 	4.60459e-17
0 	0.000960728 	0.00672509 	10.1805 	2.50308e-17 	4.26024e-17
0 	0.000961415 	0.0067299 	9.94712 	2.47523e-17 	3.90455e-17
0 	0.000962092 	0.00673465 	9.71652 	2.48578e-17 	3.59223e-17
0 	0.000962761 	0.00673933 	9.48933 	2.50955e-17 	3.34318e-17
0 	0.000963328 	0.0067433 	9.29706 	2.52053e-17 	3.14788e-17
0 	0.000963656 	0.00674559 	9.18523 	2.51825e-17 	3.03641e-17
0 	0.000964072 	0.00674851 	9.0403 	2.50764e-17 	2.91787e-17
0 	0.000964715 	0.006753 	8.81737 	2.53005e-17 	2.75164e-17
0 	0.000965349 	0.00675744 	8.59809 	2.63306e-17 	2.56216e-17
0 	0.000965974 	0.00676182 	8.382 	2.7752e-17 	2.38241e-17
0 	0.000966591 	0.00676614 	8.16877 	2.88794e-17 	2.25964e-17
0 	0.0009672 	0.0067704 	7.95909 	2.96728e-17 	2.13098e-17
0 	0.00096771 	0.00677397 	7.78407 	3.0238e-17 	2.00091e-17
0 	0.000968009 	0.00677606 	7.6815 	3.05795e-17 	1.9223e-17
0 	0.000968394 	0.00677876 	7.54785 	3.1002e-17 	1.79755e-17
0 	0.000968979 	0.00678286 	7.34586 	3.16038e-17 	1.55396e-17
0 	0.000969557 	0.0067869 	7.1475 	3.20423e-17 	1.24252e-17
0 	0.000970126 	0.00679088 	6.95226 	3.22414e-17 	9.48232e-18
0 	0.000970688 	0.00679482 	6.75985 	3.224e-17 	7.40411e-18
0 	0.000971243 	0.0067987 	6.57095 	3.20548e-17 	6.08153e-18
0 	0.000971698 	0.00680188 	6.41682 	3.17781e-17 	5.22635e-18
0 	0.000971969 	0.00680379 	6.32489 	3.1538e-17 	4.70323e-18
0 	0.00097233 	0.00680631 	6.20272 	3.11549e-17 	3.88456e-18
0 	0.000972863 	0.00681004 	6.02327 	3.0446e-17 	2.64819e-18
0 	0.000973389 	0.00681372 	5.84732 	2.94952e-17 	1.43174e-18
0 	0.000973908 	0.00681735 	5.67429 	2.84424e-17 	1.65389e-19
0 	0.00097442 	0.00682094 	5.50402 	2.74698e-17 	-1.07939e-18
0 	0.000974925 	0.00682447 	5.33713 	2.66632e-17 	-1.93195e-18
0 	0.000975326 	0.00682728 	5.20537 	2.61332e-17 	-2.28911e-18
0 	0.000975573 	0.00682901 	5.12448 	2.58616e-17 	-2.43208e-18
0 	0.000975915 	0.0068314 	5.01333 	2.54202e-17 	-2.88927e-18
0 	0.0009764 	0.0068348 	4.85642 	2.4562e-17 	-3.63343e-18
0 	0.000976879 	0.00683815 	4.70282 	2.33355e-17 	-3.98568e-18
0 	0.000977351 	0.00684146 	4.55188 	2.18077e-17 	-3.83177e-18
0 	0.000977817 	0.00684472 	4.40361 	2.01246e-17 	-3.577e-18
0 	0.000978277 	0.00684794 	4.25853 	1.82908e-17 	-3.44496e-18
0 	0.000978627 	0.00685039 	4.14909 	1.68659e-17 	-3.35851e-18
0 	0.000978852 	0.00685197 	4.07903 	1.60658e-17 	-3.23029e-18
0 	0.000979179 	0.00685425 	3.97824 	1.51083e-17 	-2.99906e-18
0 	0.000979621 	0.00685735 	3.84301 	1.39376e-17 	-2.70992e-18
0 	0.000980057 	0.0068604 	3.71087 	1.28153e-17 	-2.48775e-18
0 	0.000980487 	0.00686341 	3.58113 	1.14473e-17 	-2.22197e-18
0 	0.000980912 	0.00686638 	3.45395 	9.79396e-18 	-2.01865e-18
0 	0.000981331 	0.00686931 	3.32978 	8.25381e-18 	-1.8815e-18
0 	0.000981631 	0.00687141 	3.24164 	7.30447e-18 	-1.7004e-18
0 	0.000981836 	0.00687285 	3.1819 	6.77403e-18 	-1.4874e-18
0 	0.000982152 	0.00687506 	3.09091 	6.04096e-18 	-1.24055e-18
0 	0.000982554 	0.00687788 	2.97613 	5.15628e-18 	-1.09769e-18
0 	0.000982951 	0.00688066 	2.86423 	4.36759e-18 	-1.03199e-18
0 	0.000983343 	0.0068834 	2.75445 	3.70701e-18 	-8.74967e-19
0 	0.00098373 	0.00688611 	2.64716 	3.22758e-18 	-6.5251e-19
0 	0.000984111 	0.00688878 	2.54266 	2.91171e-18 	-4.19901e-19
0 	0.000984364 	0.00689055 	2.47424 	2.75009e-18 	-2.89377e-19
0 	0.000984551 	0.00689185 	2.42418 	2.64184e-18 	-2.31078e-19
0 	0.000984859 	0.00689401 	2.34263 	2.43189e-18 	-2.86809e-19
0 	0.000985225 	0.00689658 	2.24693 	2.21191e-18 	-4.92795e-19
0 	0.000985587 	0.00689911 	2.15389 	2.13539e-18 	-6.18519e-19
0 	0.000985944 	0.00690161 	2.06269 	2.18856e-18 	-5.91545e-19
0 	0.000986296 	0.00690407 	1.9739 	2.30467e-18 	-4.49502e-19
0 	0.000986643 	0.0069065 	1.88767 	2.4454e-18 	-3.32586e-19
0 	0.00098685 	0.00690795 	1.83694 	2.56059e-18 	-3.10499e-19
0 	0.000987021 	0.00690915 	1.79583 	2.65831e-18 	-3.74546e-19
0 	0.000987324 	0.00691127 	1.72358 	2.78294e-18 	-6.38057e-19
0 	0.000987658 	0.00691361 	1.64546 	2.88386e-18 	-1.16112e-18
0 	0.000987987 	0.00691591 	1.56976 	3.00077e-18 	-1.7851e-18
0 	0.000988312 	0.00691819 	1.49559 	3.1872e-18 	-2.36221e-18
0 	0.000988633 	0.00692043 	1.42374 	3.45895e-18 	-2.79337e-18
0 	0.000988949 	0.00692265 	1.35421 	3.77284e-18 	-3.08638e-18
0 	0.000989113 	0.00692379 	1.31878 	3.93824e-18 	-3.2113e-18
0 	0.000989268 	0.00692488 	1.28581 	4.02948e-18 	-3.33978e-18
0 	0.00098957 	0.00692699 	1.22281 	4.20307e-18 	-3.65976e-18
0 	0.000989873 	0.00692911 	1.16059 	4.39247e-18 	-4.08172e-18
0 	0.000990173 	0.00693121 	1.10042 	4.60637e-18 	-4.46848e-18
0 	0.000990469 	0.00693328 	1.04168 	4.83295e-18 	-4.73778e-18
0 	0.000990761 	0.00693533 	0.985029 	5.05372e-18 	-4.91062e-18
0 	0.000991029 	0.0069372 	0.934245 	5.18663e-18 	-5.06311e-18
0 	0.000991172 	0.0069382 	0.907633 	5.22518e-18 	-5.1579e-18
0 	0.000991334 	0.00693934 	0.878199 	5.19477e-18 	-5.28614e-18
0 	0.000991614 	0.0069413 	0.828116 	5.09988e-18 	-5.57855e-18
0 	0.000991891 	0.00694324 	0.779958 	4.95382e-18 	-5.96607e-18
0 	0.000992164 	0.00694515 	0.733448 	4.77926e-18 	-6.37765e-18
0 	0.000992434 	0.00694703 	0.688307 	4.59648e-18 	-6.71936e-18
0 	0.000992699 	0.0069489 	0.644987 	4.41584e-18 	-6.94932e-18
0 	0.000992915 	0.00695041 	0.610729 	4.27178e-18 	-7.06567e-18
0 	0.000993045 	0.00695132 	0.590533 	4.17802e-18 	-7.10242e-18
0 	0.000993221 	0.00695254 	0.564057 	4.03135e-18 	-7.10888e-18
0 	0.000993476 	0.00695433 	0.526425 	3.81255e-18 	-7.10491e-18
0 	0.000993728 	0.0069561 	0.490446 	3.58478e-18 	-7.08217e-18
0 	0.000993977 	0.00695784 	0.455722 	3.35495e-18 	-7.00482e-18
0 	0.000994222 	0.00695956 	0.422303 	3.14803e-18 	-6.83585e-18
0 	0.000994464 	0.00696125 	0.390436 	2.97426e-18 	-6.56144e-18
0 	0.000994631 	0.00696242 	0.369117 	2.86756e-18 	-6.31663e-18
0 	0.00099475 	0.00696325 	0.354415 	2.7821e-18 	-6.08923e-18
0 	0.000994939 	0.00696457 	0.331695 	2.63258e-18 	-5.6865e-18
0 	0.000995172 	0.0069662 	0.304692 	2.43782e-18 	-5.19011e-18
0 	0.000995401 	0.00696781 	0.279089 	2.22861e-18 	-4.73333e-18
0 	0.000995628 	0.00696939 	0.254381 	2.00941e-18 	-4.28204e-18
0 	0.000995851 	0.00697096 	0.230918 	1.79815e-18 	-3.80277e-18
0 	0.000996072 	0.0069725 	0.208767 	1.6132e-18 	-3.28245e-18
0 	0.000996193 	0.00697335 	0.197052 	1.5226e-18 	-2.98552e-18
0 	0.000996301 	0.00697411 	0.187004 	1.42798e-18 	-2.68469e-18
0 	0.000996504 	0.00697553 	0.168829 	1.24858e-18 	-2.13282e-18
0 	0.000996716 	0.00697701 	0.150817 	1.05411e-18 	-1.58925e-18
0 	0.000996925 	0.00697848 	0.133921 	8.45384e-19 	-1.09569e-18
0 	0.000997131 	0.00697992 	0.117735 	6.15664e-19 	-6.30922e-19
0 	0.000997335 	0.00698134 	0.102686 	3.89872e-19 	-1.90786e-19
0 	0.000997514 	0.0069826 	0.0901998 	2.07708e-19 	1.9806e-19
0 	0.000997614 	0.00698329 	0.0836146 	1.15619e-19 	4.10128e-19
0 	0.000997734 	0.00698414 	0.0761622 	1.74625e-20 	6.40947e-19
0 	0.000997929 	0.00698551 	0.0647417 	-1.16094e-19 	9.75849e-19
0 	0.000998122 	0.00698686 	0.0543566 	-2.11142e-19 	1.24661e-18
0 	0.000998313 	0.00698819 	0.044759 	-2.76698e-19 	1.45307e-18
0 	0.0009985 	0.0069895 	0.0359075 	-3.26022e-19 	1.5762e-18
0 	0.000998686 	0.0069908 	0.0280333 	-3.67298e-19 	1.59436e-18
0 	0.000998816 	0.00699171 	0.0230158 	-3.93054e-19 	1.55445e-18
0 	0.000998906 	0.00699234 	0.0198637 	-4.02695e-19 	1.46348e-18
0 	0.000999049 	0.00699334 	0.0154897 	-3.98068e-19 	1.26116e-18
0 	0.000999227 	0.00699459 	0.0108005 	-3.70093e-19 	9.90714e-19
0 	0.000999403 	0.00699582 	0.00707393 	-3.15443e-19 	7.22302e-19
0 	0.000999576 	0.00699703 	0.00388733 	-2.40689e-19 	4.4886e-19
0 	0.000999747 	0.00699823 	0.00159157 	-1.38215e-19 	2.06171e-19
