0 	6.72159e-06 	4.70511e-05 	1.02479e-13 	6.65931 	20715.1
0 	2.00755e-05 	0.000140529 	1.1449e-13 	6.68392 	20820.8
0 	3.32521e-05 	0.000232765 	1.1517e-13 	6.70813 	20925.1
0 	4.62538e-05 	0.000323776 	1.08099e-13 	6.73195 	21027.8
0 	5.90828e-05 	0.00041358 	1.03455e-13 	6.75538 	21129.1
0 	7.17415e-05 	0.00050219 	1.00052e-13 	6.77842 	21228.9
0 	8.42321e-05 	0.000589625 	9.72939e-14 	6.80108 	21327.3
0 	9.11937e-05 	0.000638356 	9.59891e-14 	6.81368 	21382.2
0 	9.73149e-05 	0.000681204 	9.51598e-14 	6.84437 	21517.9
0 	0.000108718 	0.000761026 	9.32678e-14 	6.90667 	21793.7
0 	0.000120718 	0.000845023 	9.08169e-14 	6.97213 	22083.9
0 	0.000132558 	0.000927906 	8.87181e-14 	7.03662 	22370
0 	0.000144241 	0.00100969 	8.71216e-14 	7.10016 	22652.3
0 	0.000155769 	0.00109038 	8.57106e-14 	7.16274 	22930.6
0 	0.000167144 	0.00117001 	8.45821e-14 	7.22437 	23205.1
0 	0.000174169 	0.00121918 	8.39392e-14 	7.26237 	23374.5
0 	0.000179743 	0.0012582 	8.33918e-14 	7.30587 	23576.2
0 	0.000189443 	0.0013261 	8.19694e-14 	7.38911 	23965.5
0 	0.00020037 	0.00140259 	8.05083e-14 	7.48275 	24403.8
0 	0.000211153 	0.00147807 	8.02695e-14 	7.57499 	24836.2
0 	0.000221793 	0.00155255 	8.08214e-14 	7.66585 	25262.6
0 	0.000232291 	0.00162604 	8.03679e-14 	7.75533 	25683.1
0 	0.00024265 	0.00169855 	7.86923e-14 	7.84343 	26097.7
0 	0.000249666 	0.00174766 	7.73901e-14 	7.903 	26378.4
0 	0.000254742 	0.0017832 	7.6365e-14 	7.95464 	26634
0 	0.000262957 	0.0018407 	7.53571e-14 	8.04623 	27097.1
0 	0.000272908 	0.00191036 	7.47476e-14 	8.15698 	27657.9
0 	0.000282728 	0.0019791 	7.42269e-14 	8.26602 	28210.9
0 	0.000292417 	0.00204692 	7.38729e-14 	8.37337 	28756.2
0 	0.000301978 	0.00211384 	7.46364e-14 	8.47903 	29293.8
0 	0.000311411 	0.00217988 	7.55349e-14 	8.583 	29824
0 	0.000318359 	0.00222851 	7.5415e-14 	8.65939 	30214.1
0 	0.000322982 	0.00226088 	7.46116e-14 	8.71529 	30514.9
0 	0.000329904 	0.00230933 	7.34054e-14 	8.80625 	31024.2
0 	0.000338967 	0.00237277 	7.2453e-14 	8.92505 	31690.6
0 	0.00034791 	0.00243537 	7.21216e-14 	9.0419 	32347.6
0 	0.000356733 	0.00249713 	7.1685e-14 	9.15685 	32995.3
0 	0.00036544 	0.00255808 	7.07017e-14 	9.26989 	33633.8
0 	0.000374031 	0.00261822 	6.94351e-14 	9.38101 	34263.1
0 	0.000380862 	0.00266603 	6.85168e-14 	9.46906 	34763
0 	0.000385072 	0.0026955 	6.81407e-14 	9.52604 	35102.8
0 	0.000390872 	0.0027361 	6.7309e-14 	9.6104 	35639.2
0 	0.000399125 	0.00279388 	6.57273e-14 	9.73006 	36401.8
0 	0.000407269 	0.00285088 	6.42066e-14 	9.8476 	37153.3
0 	0.000415305 	0.00290713 	6.35712e-14 	9.96308 	37894
0 	0.000423234 	0.00296263 	6.39455e-14 	10.0765 	38623.9
0 	0.000431057 	0.0030174 	6.55225e-14 	10.1878 	39343.1
0 	0.000437732 	0.00306412 	6.67968e-14 	10.2824 	39955.8
0 	0.000441566 	0.00309096 	6.71786e-14 	10.3378 	40330.7
0 	0.000446394 	0.00312476 	6.71864e-14 	10.412 	40880.6
0 	0.00045391 	0.00317737 	6.70091e-14 	10.527 	41735.6
0 	0.000461326 	0.00322928 	6.676e-14 	10.6397 	42577.9
0 	0.000468644 	0.00328051 	6.7155e-14 	10.7503 	43407.6
0 	0.000475865 	0.00333105 	6.80198e-14 	10.8587 	44225.1
0 	0.00048299 	0.00338093 	6.89615e-14 	10.9649 	45030.1
0 	0.000489477 	0.00342634 	7.03675e-14 	11.0609 	45761.6
0 	0.000492968 	0.00345078 	7.12498e-14 	11.1129 	46169.1
0 	0.000496957 	0.0034787 	7.1945e-14 	11.1751 	46722.7
0 	0.000503801 	0.00352661 	7.37073e-14 	11.2812 	47671.3
0 	0.000510555 	0.00357389 	7.6552e-14 	11.3851 	48605.4
0 	0.000517219 	0.00362053 	7.89976e-14 	11.4867 	49525.1
0 	0.000523795 	0.00366656 	8.0181e-14 	11.5862 	50430.8
0 	0.000530283 	0.00371198 	8.04607e-14 	11.6833 	51322.3
0 	0.000536558 	0.00375591 	8.06741e-14 	11.7764 	52182.2
0 	0.000539738 	0.00377817 	8.10073e-14 	11.8233 	52621.3
0 	0.000543003 	0.00380102 	8.15778e-14 	11.8731 	53171.4
0 	0.000549236 	0.00384465 	8.29901e-14 	11.9675 	54220.1
0 	0.000555387 	0.00388771 	8.45048e-14 	12.0596 	55252.2
0 	0.000561456 	0.00393019 	8.54207e-14 	12.1494 	56267.7
0 	0.000567444 	0.00397211 	8.55455e-14 	12.2371 	57267.3
0 	0.000573353 	0.00401347 	8.63241e-14 	12.3225 	58250.6
0 	0.000579183 	0.00405428 	8.91438e-14 	12.4057 	59217.6
0 	0.000582293 	0.00407605 	9.11043e-14 	12.4496 	59732.3
0 	0.00058515 	0.00409605 	9.18297e-14 	12.4906 	60308.9
0 	0.000590612 	0.00413429 	9.29532e-14 	12.5683 	61425.4
0 	0.000596214 	0.0041735 	9.38928e-14 	12.6467 	62566.5
0 	0.00060174 	0.00421218 	9.51533e-14 	12.7229 	63688.5
0 	0.000607194 	0.00425036 	9.64181e-14 	12.7971 	64792.4
0 	0.000612575 	0.00428802 	9.75632e-14 	12.869 	65877.4
0 	0.000617884 	0.00432519 	9.87551e-14 	12.9387 	66943.8
0 	0.000621012 	0.00434709 	9.955e-14 	12.9792 	67570.2
0 	0.000623614 	0.0043653 	1.0056e-13 	13.0127 	68194.2
0 	0.000628293 	0.00439805 	1.01775e-13 	13.0722 	69357.3
0 	0.000633394 	0.00443376 	1.02416e-13 	13.1359 	70620.9
0 	0.000638427 	0.00446899 	1.03089e-13 	13.1974 	71862.8
0 	0.000643393 	0.00450375 	1.04058e-13 	13.257 	73084
0 	0.000648294 	0.00453806 	1.05014e-13 	13.3145 	74284.1
0 	0.000653129 	0.0045719 	1.05774e-13 	13.3698 	75462.9
0 	0.000656243 	0.0045937 	1.06131e-13 	13.4048 	76219.5
0 	0.000658612 	0.00461029 	1.0658e-13 	13.4305 	76894.6
0 	0.000662608 	0.00463825 	1.07558e-13 	13.473 	78103.4
0 	0.000667253 	0.00467077 	1.08719e-13 	13.5212 	79503.7
0 	0.000671837 	0.00470286 	1.09531e-13 	13.5674 	80879.5
0 	0.000676359 	0.00473452 	1.10565e-13 	13.6117 	82231.9
0 	0.000680822 	0.00476575 	1.12095e-13 	13.6542 	83560.4
0 	0.000685225 	0.00479658 	1.13539e-13 	13.6948 	84864.9
0 	0.000688298 	0.00481808 	1.14365e-13 	13.7223 	85771.5
0 	0.000690456 	0.00483319 	1.14946e-13 	13.7404 	86501.3
0 	0.000693858 	0.004857 	1.15813e-13 	13.7673 	87753.1
0 	0.000698088 	0.00488662 	1.16717e-13 	13.7997 	89304.2
0 	0.000702262 	0.00491583 	1.17686e-13 	13.8303 	90828.2
0 	0.000706381 	0.00494467 	1.18592e-13 	13.8594 	92325.9
0 	0.000710445 	0.00497311 	1.19082e-13 	13.8869 	93797.3
0 	0.000714455 	0.00500118 	1.19439e-13 	13.9128 	95242.3
0 	0.000717464 	0.00502225 	1.19801e-13 	13.9314 	96322.1
0 	0.000719429 	0.00503601 	1.20127e-13 	13.9421 	97113.3
0 	0.000722316 	0.00505621 	1.2046e-13 	13.9558 	98411.5
0 	0.000726168 	0.00508318 	1.2068e-13 	13.9729 	100138
0 	0.00072997 	0.00510979 	1.20489e-13 	13.9887 	101835
0 	0.000733721 	0.00513604 	1.20178e-13 	14.0032 	103503
0 	0.000737422 	0.00516195 	1.20018e-13 	14.0165 	105142
0 	0.000741073 	0.00518751 	1.20316e-13 	14.0284 	106752
0 	0.000744002 	0.00520801 	1.20683e-13 	14.0371 	108038
0 	0.000745792 	0.00522054 	1.20834e-13 	14.041 	108901
0 	0.000748232 	0.00523763 	1.20963e-13 	14.0435 	110251
0 	0.000751741 	0.00526219 	1.21163e-13 	14.0463 	112185
0 	0.000755203 	0.00528642 	1.21511e-13 	14.0479 	114086
0 	0.000758618 	0.00531033 	1.21923e-13 	14.0485 	115954
0 	0.000761989 	0.00533392 	1.21838e-13 	14.0482 	117790
0 	0.000765314 	0.0053572 	1.21765e-13 	14.0468 	119594
0 	0.000768148 	0.00537704 	1.22151e-13 	14.0448 	121124
0 	0.000769778 	0.00538845 	1.2242e-13 	14.0424 	122068
0 	0.000771834 	0.00540284 	1.22345e-13 	14.0359 	123474
0 	0.000775029 	0.0054252 	1.22019e-13 	14.025 	125654
0 	0.000778181 	0.00544727 	1.21756e-13 	14.0133 	127797
0 	0.000781292 	0.00546904 	1.22032e-13 	14.0009 	129902
0 	0.000784361 	0.00549053 	1.22751e-13 	13.9877 	131972
0 	0.00078739 	0.00551173 	1.23224e-13 	13.9738 	134005
0 	0.000790119 	0.00553083 	1.23553e-13 	13.9604 	135828
0 	0.000791603 	0.00554122 	1.23735e-13 	13.9521 	136865
0 	0.000793327 	0.00555329 	1.23743e-13 	13.9383 	138333
0 	0.000796237 	0.00557366 	1.23775e-13 	13.9143 	140802
0 	0.000799108 	0.00559375 	1.23994e-13 	13.8897 	143228
0 	0.000801941 	0.00561358 	1.24531e-13 	13.8646 	145612
0 	0.000804736 	0.00563315 	1.25018e-13 	13.8391 	147955
0 	0.000807494 	0.00565246 	1.25157e-13 	13.813 	150257
0 	0.000810109 	0.00567076 	1.25388e-13 	13.7874 	152429
0 	0.000811461 	0.00568023 	1.25667e-13 	13.7735 	153573
0 	0.000812901 	0.00569031 	1.25892e-13 	13.7537 	155104
0 	0.00081555 	0.00570885 	1.26018e-13 	13.7167 	157913
0 	0.000818165 	0.00572715 	1.25966e-13 	13.6793 	160672
0 	0.000820745 	0.00574521 	1.26136e-13 	13.6416 	163384
0 	0.00082329 	0.00576303 	1.26415e-13 	13.6038 	166048
0 	0.000825802 	0.00578061 	1.26591e-13 	13.5655 	168665
0 	0.00082828 	0.00579796 	1.26777e-13 	13.5269 	171233
0 	0.000829529 	0.0058067 	1.26899e-13 	13.5072 	172524
0 	0.000830744 	0.00581521 	1.27038e-13 	13.4823 	174136
0 	0.000833139 	0.00583197 	1.27359e-13 	13.4324 	177318
0 	0.00083552 	0.00584864 	1.27764e-13 	13.3821 	180466
0 	0.000837869 	0.00586508 	1.27909e-13 	13.3315 	183558
0 	0.000840187 	0.00588131 	1.28023e-13 	13.2811 	186597
0 	0.000842475 	0.00589732 	1.28339e-13 	13.2304 	189581
0 	0.000844732 	0.00591312 	1.2879e-13 	13.1796 	192509
0 	0.000845969 	0.00592178 	1.29059e-13 	13.1514 	194108
0 	0.000847075 	0.00592953 	1.29402e-13 	13.1201 	195913
0 	0.000849156 	0.00594409 	1.29967e-13 	13.0594 	199384
0 	0.000851325 	0.00595927 	1.30526e-13 	12.9955 	202983
0 	0.000853464 	0.00597425 	1.31108e-13 	12.9315 	206516
0 	0.000855575 	0.00598903 	1.31703e-13 	12.8678 	209988
0 	0.000857658 	0.00600361 	1.32429e-13 	12.8042 	213397
0 	0.000859714 	0.006018 	1.33226e-13 	12.7405 	216740
0 	0.000860927 	0.00602649 	1.33695e-13 	12.7025 	218707
0 	0.000861935 	0.00603354 	1.34056e-13 	12.6646 	220730
0 	0.000863743 	0.0060462 	1.34702e-13 	12.5935 	224520
0 	0.000865718 	0.00606002 	1.35391e-13 	12.5151 	228639
0 	0.000867666 	0.00607366 	1.35945e-13 	12.4369 	232681
0 	0.000869589 	0.00608712 	1.36509e-13 	12.3591 	236653
0 	0.000871486 	0.0061004 	1.37319e-13 	12.2816 	240550
0 	0.000873357 	0.0061135 	1.38238e-13 	12.2042 	244373
0 	0.000874538 	0.00612176 	1.38726e-13 	12.1551 	246772
0 	0.000875455 	0.00612818 	1.38941e-13 	12.1102 	249042
0 	0.000877027 	0.00613919 	1.39272e-13 	12.0288 	253183
0 	0.000878825 	0.00615178 	1.3964e-13 	11.9349 	257897
0 	0.000880599 	0.0061642 	1.40111e-13 	11.8415 	262523
0 	0.00088235 	0.00617645 	1.40696e-13 	11.7487 	267066
0 	0.000884078 	0.00618854 	1.41285e-13 	11.6563 	271524
0 	0.000885782 	0.00620048 	1.41823e-13 	11.5643 	275895
0 	0.000886921 	0.00620845 	1.42114e-13 	11.5024 	278801
0 	0.000887757 	0.0062143 	1.42294e-13 	11.4502 	281347
0 	0.000889124 	0.00622387 	1.42655e-13 	11.3586 	285873
0 	0.000890762 	0.00623533 	1.43111e-13 	11.2483 	291265
0 	0.000892378 	0.00624664 	1.43554e-13 	11.1386 	296555
0 	0.000893972 	0.0062578 	1.44105e-13 	11.0296 	301748
0 	0.000895545 	0.00626882 	1.44688e-13 	10.9213 	306843
0 	0.000897098 	0.00627968 	1.45156e-13 	10.8136 	311838
0 	0.000898189 	0.00628732 	1.45436e-13 	10.7374 	315331
0 	0.00089895 	0.00629265 	1.4558e-13 	10.6776 	318187
0 	0.000900141 	0.00630099 	1.45786e-13 	10.5763 	323135
0 	0.000901632 	0.00631142 	1.46127e-13 	10.4489 	329299
0 	0.000903104 	0.00632173 	1.46615e-13 	10.3223 	335344
0 	0.000904556 	0.00633189 	1.47112e-13 	10.1968 	341278
0 	0.000905988 	0.00634192 	1.47565e-13 	10.0722 	347098
0 	0.000907402 	0.00635181 	1.4798e-13 	9.94849 	352804
0 	0.000908441 	0.00635909 	1.48302e-13 	9.85705 	356974
0 	0.000909134 	0.00636394 	1.48529e-13 	9.78974 	360182
0 	0.000910173 	0.00637121 	1.48847e-13 	9.67979 	365602
0 	0.000911532 	0.00638072 	1.49275e-13 	9.53561 	372648
0 	0.000912872 	0.0063901 	1.49628e-13 	9.39272 	379558
0 	0.000914194 	0.00639936 	1.49894e-13 	9.25109 	386337
0 	0.000915499 	0.00640849 	1.50168e-13 	9.11069 	392988
0 	0.000916786 	0.0064175 	1.50434e-13 	8.9715 	399505
0 	0.00091777 	0.00642439 	1.50589e-13 	8.86472 	404454
0 	0.000918401 	0.0064288 	1.50675e-13 	8.79049 	408067
0 	0.00091931 	0.00643517 	1.50815e-13 	8.67375 	414033
0 	0.000920547 	0.00644383 	1.51009e-13 	8.51461 	422107
0 	0.000921767 	0.00645237 	1.512e-13 	8.35713 	430023
0 	0.000922971 	0.0064608 	1.5134e-13 	8.20124 	437790
0 	0.00092416 	0.00646912 	1.51501e-13 	8.04689 	445410
0 	0.000925332 	0.00647732 	1.51704e-13 	7.89412 	452877
0 	0.000926257 	0.0064838 	1.51854e-13 	7.77319 	458734
0 	0.000926832 	0.00648782 	1.51947e-13 	7.69328 	462828
0 	0.00092763 	0.00649341 	1.52094e-13 	7.57247 	469468
0 	0.000928757 	0.0065013 	1.5233e-13 	7.4019 	478790
0 	0.000929868 	0.00650908 	1.52613e-13 	7.2334 	487933
0 	0.000930965 	0.00651675 	1.52928e-13 	7.06682 	496905
0 	0.000932047 	0.00652433 	1.53218e-13 	6.90209 	505709
0 	0.000933114 	0.0065318 	1.53473e-13 	6.73932 	514339
0 	0.00093398 	0.00653786 	1.53671e-13 	6.60715 	521296
0 	0.000934503 	0.00654152 	1.53795e-13 	6.52348 	525998
0 	0.000935207 	0.00654645 	1.5397e-13 	6.40191 	533542
0 	0.000936233 	0.00655363 	1.54214e-13 	6.22486 	544487
0 	0.000937245 	0.00656072 	1.5443e-13 	6.0502 	555230
0 	0.000938244 	0.00656771 	1.54639e-13 	5.87767 	565779
0 	0.000939229 	0.00657461 	1.54864e-13 	5.70715 	576140
0 	0.000940202 	0.00658141 	1.55097e-13 	5.53882 	586307
0 	0.000941007 	0.00658705 	1.55312e-13 	5.39933 	594686
0 	0.000941484 	0.00659039 	1.55458e-13 	5.31423 	600215
0 	0.000942108 	0.00659476 	1.55619e-13 	5.19572 	609051
0 	0.000943042 	0.00660129 	1.55814e-13 	5.01877 	622228
0 	0.000943964 	0.00660775 	1.55979e-13 	4.84464 	635169
0 	0.000944873 	0.00661411 	1.56167e-13 	4.67307 	647883
0 	0.000945771 	0.00662039 	1.56358e-13 	4.50389 	660376
0 	0.000946656 	0.00662659 	1.56554e-13 	4.33743 	672640
0 	0.000947401 	0.00663181 	1.5674e-13 	4.19777 	682908
0 	0.000947835 	0.00663484 	1.56846e-13 	4.11542 	689578
0 	0.000948392 	0.00663874 	1.56963e-13 	4.00641 	700270
0 	0.000949243 	0.0066447 	1.5713e-13 	3.84078 	716548
0 	0.000950082 	0.00665057 	1.57291e-13 	3.67834 	732549
0 	0.00095091 	0.00665637 	1.5743e-13 	3.51874 	748281
0 	0.000951727 	0.00666209 	1.57512e-13 	3.36172 	763751
0 	0.000952534 	0.00666774 	1.5758e-13 	3.20777 	778953
0 	0.000953218 	0.00667253 	1.57634e-13 	3.07782 	791809
0 	0.000953614 	0.00667529 	1.57655e-13 	3.00335 	800128
0 	0.000954115 	0.0066788 	1.57677e-13 	2.90997 	813627
0 	0.000954889 	0.00668423 	1.5771e-13 	2.76674 	834459
0 	0.000955654 	0.00668958 	1.57731e-13 	2.62685 	854962
0 	0.000956408 	0.00669486 	1.57733e-13 	2.48991 	875144
0 	0.000957152 	0.00670007 	1.57734e-13 	2.35561 	895011
0 	0.000957887 	0.00670521 	1.57743e-13 	2.22456 	914564
0 	0.000958512 	0.00670958 	1.57753e-13 	2.11417 	931165
0 	0.000958872 	0.0067121 	1.57757e-13 	2.05233 	941984
0 	0.000959326 	0.00671528 	1.57764e-13 	1.97867 	959865
0 	0.000960032 	0.00672022 	1.57763e-13 	1.8657 	987594
0 	0.000960728 	0.00672509 	1.5774e-13 	1.75595 	1.01493e+06
0 	0.000961415 	0.0067299 	1.57705e-13 	1.64901 	1.04187e+06
0 	0.000962092 	0.00673465 	1.57659e-13 	1.54454 	1.06842e+06
0 	0.000962761 	0.00673933 	1.57605e-13 	1.44319 	1.09459e+06
0 	0.000963328 	0.0067433 	1.57558e-13 	1.35864 	1.11675e+06
0 	0.000963656 	0.00674559 	1.57531e-13 	1.31201 	1.13145e+06
0 	0.000964072 	0.00674851 	1.57502e-13 	1.25859 	1.15617e+06
0 	0.000964715 	0.006753 	1.57457e-13 	1.17751 	1.19433e+06
0 	0.000965349 	0.00675744 	1.57411e-13 	1.09918 	1.23198e+06
0 	0.000965974 	0.00676182 	1.57374e-13 	1.02321 	1.26912e+06
0 	0.000966591 	0.00676614 	1.57339e-13 	0.949326 	1.30577e+06
0 	0.0009672 	0.0067704 	1.57297e-13 	0.878091 	1.34194e+06
0 	0.00096771 	0.00677397 	1.57265e-13 	0.819708 	1.37222e+06
0 	0.000968009 	0.00677606 	1.57248e-13 	0.787755 	1.39288e+06
0 	0.000968394 	0.00677876 	1.57227e-13 	0.751812 	1.42821e+06
0 	0.000968979 	0.00678286 	1.57195e-13 	0.698373 	1.48184e+06
0 	0.000969557 	0.0067869 	1.57169e-13 	0.647025 	1.53479e+06
0 	0.000970126 	0.00679088 	1.57147e-13 	0.59743 	1.58707e+06
0 	0.000970688 	0.00679482 	1.57125e-13 	0.549414 	1.63866e+06
0 	0.000971243 	0.0067987 	1.57101e-13 	0.503385 	1.68961e+06
0 	0.000971698 	0.00680188 	1.5708e-13 	0.466636 	1.73139e+06
0 	0.000971969 	0.00680379 	1.57067e-13 	0.446506 	1.76114e+06
0 	0.00097233 	0.00680631 	1.57054e-13 	0.423733 	1.81285e+06
0 	0.000972863 	0.00681004 	1.57037e-13 	0.390923 	1.88924e+06
0 	0.000973389 	0.00681372 	1.57017e-13 	0.359559 	1.96467e+06
0 	0.000973908 	0.00681735 	1.56994e-13 	0.329373 	2.03913e+06
0 	0.00097442 	0.00682094 	1.56972e-13 	0.300287 	2.11265e+06
0 	0.000974925 	0.00682447 	1.56953e-13 	0.272565 	2.18525e+06
0 	0.000975326 	0.00682728 	1.56936e-13 	0.25122 	2.24293e+06
0 	0.000975573 	0.00682901 	1.5692e-13 	0.239423 	2.28661e+06
0 	0.000975915 	0.0068314 	1.56899e-13 	0.225679 	2.36406e+06
0 	0.0009764 	0.0068348 	1.56878e-13 	0.20671 	2.47415e+06
0 	0.000976879 	0.00683815 	1.56863e-13 	0.188675 	2.58286e+06
0 	0.000977351 	0.00684146 	1.56844e-13 	0.171374 	2.69016e+06
0 	0.000977817 	0.00684472 	1.56824e-13 	0.154798 	2.79608e+06
0 	0.000978277 	0.00684794 	1.56807e-13 	0.139095 	2.90066e+06
0 	0.000978627 	0.00685039 	1.56798e-13 	0.127582 	2.98018e+06
0 	0.000978852 	0.00685197 	1.56794e-13 	0.121107 	3.04578e+06
0 	0.000979179 	0.00685425 	1.56784e-13 	0.113176 	3.16496e+06
0 	0.000979621 	0.00685735 	1.56766e-13 	0.102813 	3.3262e+06
0 	0.000980057 	0.0068604 	1.56746e-13 	0.0930214 	3.48536e+06
0 	0.000980487 	0.00686341 	1.56725e-13 	0.0836594 	3.64245e+06
0 	0.000980912 	0.00686638 	1.56698e-13 	0.0747544 	3.7975e+06
0 	0.000981331 	0.00686931 	1.56672e-13 	0.066381 	3.95056e+06
0 	0.000981631 	0.00687141 	1.56652e-13 	0.0606254 	4.06021e+06
0 	0.000981836 	0.00687285 	1.56636e-13 	0.0573048 	4.16187e+06
0 	0.000982152 	0.00687506 	1.56604e-13 	0.0529466 	4.35158e+06
0 	0.000982554 	0.00687788 	1.56561e-13 	0.0476216 	4.5933e+06
0 	0.000982951 	0.00688066 	1.5652e-13 	0.0426294 	4.83186e+06
0 	0.000983343 	0.0068834 	1.56479e-13 	0.0378735 	5.0673e+06
0 	0.00098373 	0.00688611 	1.56439e-13 	0.0333946 	5.29965e+06
0 	0.000984111 	0.00688878 	1.56402e-13 	0.029222 	5.52898e+06
0 	0.000984364 	0.00689055 	1.56376e-13 	0.0265883 	5.6808e+06
0 	0.000984551 	0.00689185 	1.56355e-13 	0.0250146 	5.84531e+06
0 	0.000984859 	0.00689401 	1.56316e-13 	0.0227629 	6.16042e+06
0 	0.000985225 	0.00689658 	1.56267e-13 	0.0202222 	6.53496e+06
0 	0.000985587 	0.00689911 	1.56216e-13 	0.0178641 	6.90457e+06
0 	0.000985944 	0.00690161 	1.56162e-13 	0.015627 	7.2693e+06
0 	0.000986296 	0.00690407 	1.56104e-13 	0.013549 	7.62923e+06
0 	0.000986643 	0.0069065 	1.56043e-13 	0.0116365 	7.98442e+06
0 	0.00098685 	0.00690795 	1.56005e-13 	0.0105578 	8.1962e+06
0 	0.000987021 	0.00690915 	1.55972e-13 	0.00988297 	8.47836e+06
0 	0.000987324 	0.00691127 	1.55911e-13 	0.00881116 	9.03076e+06
0 	0.000987658 	0.00691361 	1.55844e-13 	0.00770826 	9.63794e+06
0 	0.000987987 	0.00691591 	1.55777e-13 	0.00669783 	1.02371e+07
0 	0.000988312 	0.00691819 	1.55709e-13 	0.00574355 	1.08283e+07
0 	0.000988633 	0.00692043 	1.55639e-13 	0.00487369 	1.14117e+07
0 	0.000988949 	0.00692265 	1.55565e-13 	0.00408534 	1.19874e+07
0 	0.000989113 	0.00692379 	1.55525e-13 	0.00370294 	1.22855e+07
0 	0.000989268 	0.00692488 	1.55485e-13 	0.00344909 	1.28086e+07
0 	0.00098957 	0.00692699 	1.55403e-13 	0.00299146 	1.38465e+07
0 	0.000989873 	0.00692911 	1.55318e-13 	0.00256744 	1.48934e+07
0 	0.000990173 	0.00693121 	1.55231e-13 	0.00218324 	1.59264e+07
0 	0.000990469 	0.00693328 	1.5514e-13 	0.00182568 	1.69457e+07
0 	0.000990761 	0.00693533 	1.55048e-13 	0.00150613 	1.79515e+07
0 	0.000991029 	0.0069372 	1.5496e-13 	0.0012408 	1.88736e+07
0 	0.000991172 	0.0069382 	1.54913e-13 	0.0011152 	1.94414e+07
0 	0.000991334 	0.00693934 	1.54859e-13 	0.0010177 	2.05899e+07
0 	0.000991614 	0.0069413 	1.54761e-13 	0.00086052 	2.25832e+07
0 	0.000991891 	0.00694324 	1.5466e-13 	0.000720885 	2.45499e+07
0 	0.000992164 	0.00694515 	1.54556e-13 	0.000595559 	2.64906e+07
0 	0.000992434 	0.00694703 	1.54451e-13 	0.00048173 	2.84056e+07
0 	0.000992699 	0.0069489 	1.54343e-13 	0.000382282 	3.0295e+07
0 	0.000992915 	0.00695041 	1.54253e-13 	0.000310257 	3.1827e+07
0 	0.000993045 	0.00695132 	1.54198e-13 	0.000275357 	3.31974e+07
0 	0.000993221 	0.00695254 	1.54122e-13 	0.000242584 	3.61093e+07
0 	0.000993476 	0.00695433 	1.5401e-13 	0.000199242 	4.0351e+07
0 	0.000993728 	0.0069561 	1.53896e-13 	0.000161634 	4.45363e+07
0 	0.000993977 	0.00695784 	1.53783e-13 	0.000128194 	4.86661e+07
0 	0.000994222 	0.00695956 	1.5367e-13 	9.88513e-05 	5.2741e+07
0 	0.000994464 	0.00696125 	1.53558e-13 	7.39816e-05 	5.67619e+07
0 	0.000994631 	0.00696242 	1.5348e-13 	5.89512e-05 	5.95298e+07
0 	0.00099475 	0.00696325 	1.53426e-13 	5.16331e-05 	6.37016e+07
0 	0.000994939 	0.00696457 	1.53339e-13 	4.31558e-05 	7.2615e+07
0 	0.000995172 	0.0069662 	1.53234e-13 	3.40295e-05 	8.35667e+07
0 	0.000995401 	0.00696781 	1.53132e-13 	2.63656e-05 	9.4373e+07
0 	0.000995628 	0.00696939 	1.53033e-13 	1.96208e-05 	1.05036e+08
0 	0.000995851 	0.00697096 	1.52939e-13 	1.40133e-05 	1.15557e+08
0 	0.000996072 	0.0069725 	1.52848e-13 	9.47716e-06 	1.25939e+08
0 	0.000996193 	0.00697335 	1.52799e-13 	7.35714e-06 	1.31627e+08
0 	0.000996301 	0.00697411 	1.52757e-13 	6.38373e-06 	1.50108e+08
0 	0.000996504 	0.00697553 	1.52679e-13 	4.9027e-06 	1.87837e+08
0 	0.000996716 	0.00697701 	1.52602e-13 	3.62966e-06 	2.27136e+08
0 	0.000996925 	0.00697848 	1.5253e-13 	2.60469e-06 	2.65913e+08
0 	0.000997131 	0.00697992 	1.52463e-13 	1.7377e-06 	3.04176e+08
0 	0.000997335 	0.00698134 	1.52402e-13 	1.07614e-06 	3.4193e+08
0 	0.000997514 	0.0069826 	1.52352e-13 	6.30031e-07 	3.75126e+08
0 	0.000997614 	0.00698329 	1.52326e-13 	4.56308e-07 	4.19606e+08
0 	0.000997734 	0.00698414 	1.52298e-13 	3.69229e-07 	5.84796e+08
0 	0.000997929 	0.00698551 	1.52255e-13 	2.5272e-07 	8.53314e+08
0 	0.000998122 	0.00698686 	1.5222e-13 	1.66716e-07 	1.11827e+09
0 	0.000998313 	0.00698819 	1.52192e-13 	1.01733e-07 	1.3797e+09
0 	0.0009985 	0.0069895 	1.52171e-13 	5.42482e-08 	1.63767e+09
0 	0.000998686 	0.0069908 	1.52155e-13 	2.39193e-08 	1.89221e+09
0 	0.000998816 	0.00699171 	1.52147e-13 	1.01123e-08 	2.07033e+09
0 	0.000998906 	0.00699234 	1.52143e-13 	6.27654e-09 	2.19288e+09
0 	0.000999049 	0.00699334 	1.52137e-13 	3.89615e-09 	2.38318e+09
0 	0.000999227 	0.00699459 	1.52133e-13 	1.95202e-09 	2.62055e+09
0 	0.000999403 	0.00699582 	1.52132e-13 	8.74353e-10 	2.85496e+09
0 	0.000999576 	0.00699703 	1.52133e-13 	2.70728e-10 	3.08787e+09
0 	0.000999747 	0.00699823 	1.52135e-13 	4.87996e-11 	3.30699e+09
