4 	0.00273779077457394 	-8.67361737988404e-18 	0.279965648586823 	2.08373657642945e-05 	1688.41485598986 	8.64855007165613e-06 	3.32504925149669e-38
4 	0.00831366561724409 	-1.21430643318376e-17 	0.279963006785129 	0.000230379564801803 	513.299970348049 	0.000147824074974165 	0
4 	0.0140938010840032 	-1.73472347597681e-17 	0.279961716623392 	0.00114597223475881 	129.614356288625 	0.000821131222758702 	0
4 	0.0200856798396765 	-2.08166817117217e-17 	0.279952877124826 	0.00324357450263058 	54.439813199698 	0.00172424501954147 	0
4 	0.0262970586610138 	-2.77555756156289e-17 	0.279932063831038 	0.00612848464250489 	29.0368853367675 	0.00143576308969946 	0
4 	0.0327359784782123 	-3.98986399474666e-17 	0.279895442037145 	0.00904747170934522 	18.248481399882 	0.000593190741757318 	0
4 	0.0394107747842904 	-3.64291929955129e-17 	0.279842463848675 	0.0116779778706512 	12.9700074137517 	0.000134313726006077 	0
4 	0.0463300884257854 	-2.77555756156289e-17 	0.279775532633071 	0.0140085517847519 	10.0303715418876 	5.19801180960172e-05 	0
4 	0.0535028767887472 	-3.12250225675825e-17 	0.279697481072501 	0.0161036872204312 	8.20577288463546 	0.000149084432553709 	0
4 	0.0609384253945081 	-2.94902990916057e-17 	0.279610363240014 	0.0180238426926176 	6.97722653985337 	0.000323021787137274 	0
4 	0.0686463599202389 	-2.25514051876985e-17 	0.279515580177591 	0.0198140446976726 	6.09931486991473 	0.000533031499290162 	0
4 	0.0766366586598533 	-1.38777878078145e-17 	0.279414199406755 	0.0215067553055876 	5.44382910280407 	0.000763186486994121 	0
4 	0.0849196654413918 	-1.38777878078145e-17 	0.279307108633864 	0.0231257091317505 	4.93804628530564 	0.00100728825094537 	0
4 	0.0935061030176072 	-1.04083408558608e-17 	0.279195077084134 	0.024688718279923 	4.53789019670644 	0.00126320590445408 	0
4 	0.102407086947087 	3.46944695195361e-18 	0.279078792449161 	0.0262095321020035 	4.21518118640684 	0.00153065356205085 	0
4 	0.111634139983881 	5.20417042793042e-18 	0.278958887533097 	0.0276990566236297 	3.95110290534301 	0.00181026020368951 	0
4 	0.121199206994262 	1.73472347597681e-18 	0.278835958038595 	0.0291661648043904 	3.7326346702481 	0.00210316009430139 	0
4 	0.131114670419936 	-8.67361737988404e-19 	0.278710573893061 	0.0306182459412663 	3.55049615393689 	0.00241080785826743 	0
4 	0.14139336630771 	3.46944695195361e-18 	0.278583286552931 	0.0320615860986134 	3.39790843305411 	0.00273489664163586 	0
4 	0.152048600926373 	9.54097911787244e-18 	0.278454633833324 	0.0335016365948877 	3.26981769521696 	0.00307732627553275 	0
4 	0.163094167992309 	1.47451495458029e-17 	0.278325143193814 	0.0349432064405973 	3.16239239215946 	0.00344019702757885 	0
4 	0.174544366526125 	1.99493199737333e-17 	0.278195334128494 	0.0363906017085136 	3.0726880136075 	0.00382581720560927 	0
4 	0.186414019363428 	1.82145964977565e-17 	0.278065720171712 	0.0378477267873801 	2.99841795246837 	0.0042367187546601 	0
4 	0.198718492343699 	2.08166817117217e-17 	0.277936810955573 	0.03931815736603 	2.93779344672902 	0.00467567782257096 	0
4 	0.211473714202121 	3.03576608295941e-17 	0.277809114718745 	0.0408051916692957 	2.88940965131267 	0.00514573867587901 	0
4 	0.224696197190089 	3.20923843055709e-17 	0.277683141657328 	0.0423118842410504 	2.85216323042825 	0.00565024005220349 	0
4 	0.238403058451125 	3.12250225675825e-17 	0.277559408518551 	0.043841065033505 	2.82519194678789 	0.00619284337749185 	0
4 	0.252612042179841 	3.55618312575245e-17 	0.277438444860561 	0.0453953454629307 	2.80782990829544 	0.00677756241826513 	0
4 	0.267341542592663 	3.20923843055709e-17 	0.277320801431526 	0.0469771122703067 	2.7995741741581 	0.00740879395684947 	0
4 	0.282610627740032 	2.64545330086463e-17 	0.277207061155784 	0.0485885093760928 	2.80005976078901 	0.00809134899445596 	0
4 	0.298439064190913 	2.55871712706579e-17 	0.277097853256646 	0.0502314073676736 	2.80904097940074 	0.00883048380302187 	0
4 	0.31484734262158 	2.55871712706579e-17 	0.276993871094403 	0.0519073597489892 	2.82637764204987 	0.00963192982632872 	0
4 	0.331856704341784 	1.86482773667507e-17 	0.276895894273998 	0.0536175445646746 	2.85202508641877 	0.0105019209219603 	0
4 	0.349489168792655 	1.21430643318376e-17 	0.276804815274352 	0.0553626894334328 	2.88602724854174 	0.0114472156256706 	0
4 	0.367767562051934 	1.75640751942652e-17 	0.276721670761624 	0.0571429773247738 	2.92851218934866 	0.0124751106627373 	0
4 	0.386715546383437 	2.6779793660392e-17 	0.276647681203168 	0.0589579295128246 	2.97968956982984 	0.0135934391732301 	0
4 	0.406357650868995 	1.88922228555599e-17 	0.276584309715701 	0.0608062609519954 	3.03984956897481 	0.0148105437653959 	0
4 	0.419443217632082 	6.20705743747951e-18 	0.276548875838338 	0.0620207341510607 	3.08328373400081 	0.0156505408084383 	0
4 	0.429807166358512 	6.93889390390723e-18 	0.276526653313922 	0.0629677937913103 	3.12039175685254 	0.0163404864194925 	0
4 	0.447826862407423 	1.38777878078145e-17 	0.276496423099524 	0.0645922285078419 	3.18853881688042 	0.0175750219080991 	0
4 	0.469707653359621 	1.73472347597681e-17 	0.276475738526905 	0.0665209044667958 	3.27805171233791 	0.0191410021485891 	0
4 	0.49239000176093 	1.04083408558608e-17 	0.276473983196293 	0.0684648448665683 	3.37847828612546 	0.02085217923739 	0
4 	0.515903271008024 	3.46944695195361e-18 	0.27650039294126 	0.0704164476181274 	3.49050810332921 	0.0228339365441966 	0
4 	0.540277900164784 	6.93889390390723e-18 	0.27657626350118 	0.0723705906678248 	3.61526113115323 	0.0252747478950291 	0
4 	0.565545443367138 	1.73472347597681e-17 	0.276720037138529 	0.0743272527357023 	3.75436064264162 	0.0281670201429326 	0
4 	0.59173861067142 	2.42861286636753e-17 	0.276924324639265 	0.0762660443265818 	3.90728577358466 	0.0315063156710573 	0
4 	0.618891310399116 	2.77555756156289e-17 	0.277170831092607 	0.0781065311930413 	4.06779356754856 	0.0349853829018841 	0
4 	0.647038693032828 	2.77555756156289e-17 	0.277456149141867 	0.079722350994657 	4.22465316951458 	0.0382432766128899 	0
4 	0.676217196720269 	3.12250225675825e-17 	0.277787843358166 	0.0809766500216501 	4.3657386531807 	0.0410609742574316 	0
4 	0.706464594445212 	3.81639164714898e-17 	0.27817157354374 	0.0817449318039116 	4.48234495372813 	0.0433095034220635 	0
4 	0.737820042926439 	4.16333634234434e-17 	0.278606336836768 	0.0819216605458731 	4.57055990386749 	0.0448829889452042 	0
4 	0.77032413330801 	4.33680868994202e-17 	0.279085835747591 	0.0814187791299727 	4.62954109086147 	0.045663740765093 	0
4 	0.804018943706461 	4.33680868994202e-17 	0.279602171358976 	0.0801671911566583 	4.6593377415867 	0.0455332527685188 	0
4 	0.838948093682961 	4.33680868994202e-17 	0.280149517945801 	0.0781249224795782 	4.65984351272409 	0.0444113016743043 	0
4 	0.87515680071094 	4.5102810375397e-17 	0.280726294041205 	0.0752883490409578 	4.6307225868888 	0.0423010987968464 	0
4 	0.912691938712297 	4.33680868994202e-17 	0.281334174250413 	0.071699664615775 	4.571665895015 	0.0393347483222442 	0
4 	0.951602098737956 	4.16333634234434e-17 	0.281972026987445 	0.0674401604793392 	4.482269593649 	0.0358260489188863 	0
4 	0.991937651871334 	4.5102810375397e-17 	0.28263033223996 	0.0625874542903512 	4.36006371994524 	0.0322060833323922 	0
4 	1.03375081443614 	5.20417042793042e-17 	0.283311240813048 	0.0571214773598761 	4.19404163257756 	0.0281038531199396 	0
4 	1.07709571559294 	5.29090660172926e-17 	0.2840481139862 	0.0510635784864912 	3.96374590965861 	0.0231648417485655 	0
4 	1.12202846741196 	5.03069808033274e-17 	0.284879254433931 	0.0447582822501074 	3.65571562137763 	0.0176895832054667 	0
4 	1.16860723751287 	5.29090660172926e-17 	0.2858132579481 	0.0388143462623226 	3.27867480716321 	0.0124743380494543 	0
4 	1.2168923243656 	5.20417042793042e-17 	0.286770635230924 	0.0336818303045272 	2.86375046116378 	0.00792926369874692 	0
4 	1.26694623534962 	4.46691295064028e-17 	0.287693372738717 	0.0296051021880016 	2.45442550208901 	0.00480388135947957 	0
4 	1.31883376767274 	4.46691295064028e-17 	0.288615330014244 	0.0265708955592047 	2.09033358619941 	0.00282974874888156 	0
4 	1.37262209225426 	4.85722573273506e-17 	0.289533672445862 	0.0243153914509036 	1.77048564271359 	0.00174360742383642 	0
4 	1.41220272459525 	5.89805981832114e-17 	0.290166839347514 	0.0229912651762045 	1.60367156735645 	0.00122734573116032 	0
4 	1.43617694926587 	6.93889390390723e-17 	0.290512705493367 	0.0222637417308152 	1.52537066089243 	0.00103408984979058 	0
4 	1.45930396367274 	6.24500451351651e-17 	0.290823201625908 	0.0216280950288601 	1.4698765579923 	0.000880070156706843 	0
4 	1.48161370685419 	5.55111512312578e-17 	0.29111207946037 	0.0210501142737212 	1.42994376898256 	0.000759494533942916 	0
4 	1.50313505985141 	5.20417042793042e-17 	0.291374446271042 	0.0205133794326283 	1.40163728085165 	0.000661195735611337 	0
4 	1.52389588309639 	4.85722573273506e-17 	0.291611425126385 	0.0200069734018929 	1.38237807892711 	0.000578336953948461 	0
4 	1.54392305247858 	5.20417042793042e-17 	0.29182558586197 	0.0195235900958841 	1.37045747796038 	0.000506810938836539 	0
4 	1.56324249413704 	5.20417042793042e-17 	0.292018980325559 	0.01905833124192 	1.36474492078458 	0.000443978071882428 	0
4 	1.58187921802306 	4.85722573273506e-17 	0.292193277673466 	0.0186079270265401 	1.36450712357316 	0.000388099272302099 	0
4 	1.5998573502768 	5.20417042793042e-17 	0.29234996648085 	0.0181702222306463 	1.36929365490697 	0.000338045051508095 	0
4 	1.61720016445966 	5.20417042793042e-17 	0.29249040570398 	0.0177438324889266 	1.37886362163981 	0.000293110928322127 	0
4 	1.63393011168312 	4.16333634234434e-17 	0.292615842405118 	0.0173279125664447 	1.39313877093773 	0.000252899582595928 	0
4 	1.65006884967274 	3.81639164714898e-17 	0.292727429657027 	0.0169220001332206 	1.41217424024746 	0.000217249641989452 	0
4 	1.66563727080512 	3.81639164714898e-17 	0.292826242217445 	0.0165259114169281 	1.43614160751506 	0.000186195901531862 	0
4 	1.68065552915415 	3.46944695195361e-17 	0.29291328839216 	0.0161396731485828 	1.46532095199598 	0.000159951473965834 	0
4 	1.69514306658136 	3.46944695195361e-17 	0.292989518912894 	0.0157634803786347 	1.50009992563927 	0.000138906640574189 	0
4 	1.70911863790442 	3.46944695195361e-17 	0.29305583370456 	0.0153976731342479 	1.54097867722013 	0.000123641779551398 	0
4 	1.72260033517611 	3.12250225675825e-17 	0.293113087074092 	0.015042727156835 	1.58858004466544 	0.000114953442952209 	0
4 	1.73560561110537 	2.42861286636753e-17 	0.293162091668033 	0.0146992554850854 	1.64366483529019 	0.000113893891006164 	0
4 	1.74815130165068 	2.42861286636753e-17 	0.293203621442284 	0.0143680186593892 	1.70715230215376 	0.000121825356449237 	0
4 	1.76025364781503 	2.77555756156289e-17 	0.293238413806475 	0.0140499419467335 	1.78014611928927 	0.000140491060106249 	0
4 	1.77192831667065 	2.77555756156289e-17 	0.293267171038593 	0.0137461382815243 	1.86396625554049 	0.000172105504024225 	0
4 	1.78319042164084 	2.77555756156289e-17 	0.293290561012091 	0.0134579355970586 	1.96018711727446 	0.000219466701866835 	0
4 	1.79405454206499 	2.77555756156289e-17 	0.293309217236269 	0.0131869068528327 	2.07068211694274 	0.000286092512067678 	0
4 	1.80453474207227 	2.08166817117217e-17 	0.293323738181491 	0.0129349002805436 	2.19767433733636 	0.000376381701775515 	0
4 	1.81464458878828 	1.04083408558608e-17 	0.293334685846665 	0.0127040660967481 	2.34379207716983 	0.000495797196196914 	0
4 	1.8243971698984 	3.46944695195361e-18 	0.293342583533556 	0.0124968741013067 	2.51212663694706 	0.000651063427269616 	0
4 	1.83380511059041 	0 	0.293347912829641 	0.0123161142201325 	2.70628760419559 	0.000850361083766985 	0
4 	1.84288058989839 	0 	0.293351109878554 	0.012164869372031 	2.93044809045442 	0.00110349059404688 	0
4 	1.8516353564691 	3.46944695195361e-18 	0.293352561147777 	0.0120464475969196 	3.18936906979762 	0.00142196115683011 	0
4 	1.86008074377114 	6.93889390390723e-18 	0.293352599107451 	0.0119642592230389 	3.48838883852454 	0.00181894790622377 	0
4 	1.8682276847667 	1.04083408558608e-17 	0.293351498485637 	0.0119216265603258 	3.83336200488671 	0.00230905144783349 	0
4 	1.87608672606481 	1.38777878078145e-17 	0.293349473771458 	0.0119215200707568 	4.23053442064772 	0.00290779961513192 	0
4 	1.88366804157438 	1.73472347597681e-17 	0.293346677984839 	0.0119662276385996 	4.68634856867056 	0.00363085916542956 	0
4 	1.89098144567491 	2.08166817117217e-17 	0.293343203671417 	0.0120569822346038 	5.20718995623701 	0.0044929790832313 	0
4 	1.89803640592158 	2.08166817117217e-17 	0.293339097648512 	0.012193594774481 	5.79910851768434 	0.00550675937355591 	0
4 	1.90484205530155 	2.08166817117217e-17 	0.29333440696926 	0.0123741568838225 	6.46757518176397 	0.00668140700528905 	0
4 	1.91140720405698 	2.08166817117217e-17 	0.293329154898428 	0.0125948846198027 	7.21735234487748 	0.00802209997650211 	0
4 	1.91774035109036 	2.08166817117217e-17 	0.293322828016828 	0.0128501596969421 	8.05257014891444 	0.00955667527760245 	0
4 	1.9238496949667 	2.08166817117217e-17 	0.293314227703985 	0.0131328255178555 	8.9788314569191 	0.0113941268894455 	0
4 	1.92974314452705 	2.08166817117217e-17 	0.293302559195118 	0.0134344987652332 	10.0102273000317 	0.0134212578566487 	0
4 	1.9354283291268 	1.38777878078145e-17 	0.29328975241434 	0.0137447634738609 	11.1549377988115 	0.0157353065202884 	0
4 	1.9409126085123 	0 	0.293278113821794 	0.0140439313677414 	12.4003041301117 	0.0181688066609045 	0
4 	1.94620308234835 	-6.93889390390723e-18 	0.293267558685781 	0.0143110528699443 	13.7295750711258 	0.0206278789304511 	0
4 	1.95130659940914 	-6.93889390390723e-18 	0.293257309665193 	0.0145282085374099 	15.1332161985277 	0.023075469354762 	0
4 	1.95622976644424 	-3.46944695195361e-18 	0.293246804444273 	0.0146813812049685 	16.613880993035 	0.0255064754354017 	0
4 	1.96097895673142 	0 	0.293235773147585 	0.0147596545206863 	18.1948276194974 	0.0279300266356606 	0
4 	1.96556031832711 	0 	0.293224133310744 	0.0147536023906913 	19.9075130721618 	0.030358733302815 	0
4 	1.96997978202541 	0 	0.293211914333261 	0.0146542523473874 	21.7829035547199 	0.0328028487953694 	0
4 	1.97424306903575 	0 	0.293199216958095 	0.0144520841736976 	23.8651433190816 	0.0352655805583151 	0
4 	1.9783556983893 	0 	0.293186189774707 	0.0141357091794592 	26.2182632764832 	0.0377365488671715 	0
4 	1.98232299408358 	3.46944695195361e-18 	0.293173014573264 	0.0136908294255727 	28.9290393912731 	0.040181988064925 	0
4 	1.98615009197469 	1.04083408558608e-17 	0.293159896166976 	0.0130994205681036 	32.1146848853446 	0.0425297317749795 	0
4 	1.98984194642589 	1.04083408558608e-17 	0.293147070708168 	0.0123390678105569 	35.9379970274729 	0.0446236255242723 	0
4 	1.99340333672126 	3.46944695195361e-18 	0.293134810304316 	0.0113835919471052 	40.6343477617639 	0.0462019573579491 	0
4 	1.99683887325273 	3.46944695195361e-18 	0.293123352273317 	0.0102056560692546 	46.5644329773831 	0.0468584602696693 	0
4 	2.00015300348844 	1.04083408558608e-17 	0.29311282173714 	0.00878157154975251 	54.3272421840261 	0.0460572566156819 	0
4 	2.00335001773022 	1.38777878078145e-17 	0.293103600551502 	0.00709237890211934 	65.008441861888 	0.0417906429120308 	0
4 	2.00643405466757 	1.04083408558608e-17 	0.293096124947682 	0.00518942913790064 	80.7256112289586 	0.0328599923435778 	0
4 	2.00940910673542 	1.04083408558608e-17 	0.293090514681275 	0.00327306604083051 	106.224643546468 	0.0200887195252777 	0
4 	2.01227902528252 	1.38777878078145e-17 	0.293086582000471 	0.00168173971363041 	153.894246440581 	0.00836433149497929 	0
4 	2.01504752555717 	1.73472347597681e-17 	0.29308378307339 	0.000664135756434692 	260.067083587563 	0.0021133284093885 	0
4 	2.01771819151684 	1.73472347597681e-17 	0.29308147961856 	0.000181959747215552 	555.323124837178 	0.000284918781426416 	0
4 	2.02029448046774 	1.38777878078145e-17 	0.29307923211156 	2.65610931714533e-05 	1758.0044852772 	1.57475832394367e-05 	0
4 	2.02277972754047 	1.04083408558608e-17 	0.293077265699992 	1.1763123779131e-06 	9437.72187150372 	2.75751163908145e-07 	4.77477862640584e-39
