/*--------------------------------*- C++ -*----------------------------------*\
  =========                 |
  \\      /  F ield         | OpenFOAM: The Open Source CFD Toolbox
   \\    /   O peration     | Website:  https://openfoam.org
    \\  /    A nd           | Version:  7
     \\/     M anipulation  |
\*---------------------------------------------------------------------------*/
FoamFile
{
    version     2.0;
    format      ascii;
    class       volSymmTensorField;
    location    "0";
    object      tauij_LES;
}
// * * * * * * * * * * * * * * * * * * * * * * * * * * * * * * * * * * * * * //

dimensions      [0 2 -2 0 0 0 0];

internalField   nonuniform List<symmTensor>
15600
(
(0.00631184 -0.00013630 0.00000000 0.00006484 0.00000000 0.00442667)
(0.00035466 -0.00005348 0.00000000 0.00000986 0.00000000 0.00016508)
(0.00003865 0.00000070 0.00000000 -0.00005441 0.00000000 0.00000793)
(0.00005081 0.00000815 0.00000000 -0.00006323 0.00000000 0.00013019)
(0.00000499 -0.00001041 0.00000000 0.00001678 0.00000000 0.00016272)
(0.00000115 -0.00000405 0.00000000 0.00000809 0.00000000 0.00024350)
(-0.00000884 0.00001040 0.00000000 -0.00000498 0.00000000 0.00023653)
(-0.00000458 0.00000404 0.00000000 0.00000263 0.00000000 0.00025549)
(0.00000702 -0.00000636 0.00000000 0.00000748 0.00000000 0.00023834)
(0.00001534 -0.00001618 0.00000000 0.00001764 0.00000000 0.00018971)
(0.00001693 -0.00001753 0.00000000 0.00001755 0.00000000 0.00019497)
(-0.00000998 -0.00000166 0.00000000 0.00003122 0.00000000 0.00025657)
(-0.00000184 -0.00000226 0.00000000 0.00001230 0.00000000 0.00035525)
(0.00002769 -0.00003031 0.00000000 0.00003566 0.00000000 0.00026798)
(-0.00001286 -0.00000001 0.00000000 0.00002905 0.00000000 0.00031594)
(0.00002143 -0.00002470 0.00000000 0.00003069 0.00000000 0.00044683)
(-0.00000176 -0.00001193 0.00000000 0.00003970 0.00000000 0.00045042)
(0.00006361 -0.00007217 0.00000000 0.00008472 0.00000000 0.00081275)
(0.00003732 -0.00003877 0.00000000 0.00004205 0.00000000 0.00049004)
(0.00024253 -0.00014529 0.00000000 0.00008843 0.00000000 0.00063886)
(0.00027144 -0.00011955 0.00000000 0.00005580 0.00000000 0.00059319)
(0.00025138 -0.00000262 0.00000000 0.00000085 0.00000000 0.00035279)
(0.00013055 -0.00000019 0.00000000 -0.00000015 0.00000000 0.00015371)
(0.00013766 -0.00000011 0.00000000 -0.00000018 0.00000000 0.00015477)
(0.00015293 -0.00000011 0.00000000 -0.00000005 0.00000000 0.00016563)
(0.00016425 -0.00000020 0.00000000 -0.00000017 0.00000000 0.00016554)
(0.00019238 -0.00000024 0.00000000 -0.00000016 0.00000000 0.00017292)
(0.00022634 -0.00000019 0.00000000 -0.00000013 0.00000000 0.00018635)
(0.00025561 -0.00000005 0.00000000 -0.00000016 0.00000000 0.00020616)
(0.00029236 -0.00000015 0.00000000 -0.00000019 0.00000000 0.00022580)
(0.00033723 -0.00000010 0.00000000 -0.00000033 0.00000000 0.00024805)
(0.00040678 0.00000008 0.00000000 -0.00000017 0.00000000 0.00028705)
(0.00045004 0.00000018 0.00000000 -0.00000046 0.00000000 0.00031515)
(0.00051665 0.00000023 0.00000000 -0.00000041 0.00000000 0.00035754)
(0.00056628 0.00000051 0.00000000 -0.00000047 0.00000000 0.00040205)
(0.00060046 0.00000057 0.00000000 -0.00000059 0.00000000 0.00044529)
(0.00064097 0.00000086 0.00000000 -0.00000067 0.00000000 0.00049494)
(0.00067198 0.00000083 0.00000000 -0.00000082 0.00000000 0.00054580)
(0.00075135 0.00000124 0.00000000 -0.00000059 0.00000000 0.00061811)
(0.00082593 0.00000212 0.00000000 0.00000023 0.00000000 0.00071232)
(0.00090205 0.00000214 0.00000000 0.00000015 0.00000000 0.00078718)
(0.00093211 0.00000172 0.00000000 -0.00000070 0.00000000 0.00082573)
(0.00102582 0.00000278 0.00000000 0.00000012 0.00000000 0.00093258)
(0.00105442 0.00000275 0.00000000 -0.00000053 0.00000000 0.00099084)
(0.00103084 0.00000215 0.00000000 -0.00000145 0.00000000 0.00101788)
(0.00105757 0.00000237 0.00000000 -0.00000108 0.00000000 0.00107254)
(0.00108317 0.00000178 0.00000000 -0.00000127 0.00000000 0.00108161)
(0.00107522 0.00000208 0.00000000 -0.00000145 0.00000000 0.00110370)
(0.00104983 0.00000229 0.00000000 -0.00000140 0.00000000 0.00112467)
(0.00104551 0.00000197 0.00000000 -0.00000164 0.00000000 0.00114008)
(0.00104844 0.00000207 0.00000000 -0.00000137 0.00000000 0.00118315)
(0.00106786 0.00000176 0.00000000 -0.00000124 0.00000000 0.00117121)
(0.00106937 0.00000150 0.00000000 -0.00000108 0.00000000 0.00116934)
(0.00110417 0.00000162 0.00000000 -0.00000105 0.00000000 0.00119413)
(0.00117983 0.00000154 0.00000000 0.00000035 0.00000000 0.00122934)
(0.00118285 0.00000148 0.00000000 -0.00000157 0.00000000 0.00119840)
(0.00121468 0.00000177 0.00000000 -0.00000143 0.00000000 0.00120544)
(0.00123076 0.00000154 0.00000000 -0.00000173 0.00000000 0.00121114)
(0.00119791 0.00000243 0.00000000 -0.00000158 0.00000000 0.00122428)
(0.00118125 0.00000188 0.00000000 -0.00000149 0.00000000 0.00126058)
(0.00118171 0.00000179 0.00000000 -0.00000151 0.00000000 0.00127386)
(0.00118094 0.00000155 0.00000000 -0.00000165 0.00000000 0.00129327)
(0.00118324 0.00000157 0.00000000 -0.00000085 0.00000000 0.00131668)
(0.00116532 0.00000089 0.00000000 -0.00000164 0.00000000 0.00127248)
(0.00122875 0.00000118 0.00000000 0.00000010 0.00000000 0.00133728)
(0.00119540 0.00000094 0.00000000 -0.00000118 0.00000000 0.00129190)
(0.00120042 0.00000129 0.00000000 0.00000011 0.00000000 0.00129163)
(0.00114673 0.00000137 0.00000000 -0.00000117 0.00000000 0.00124823)
(0.00112416 0.00000081 0.00000000 -0.00000175 0.00000000 0.00122163)
(0.00117274 0.00000095 0.00000000 -0.00000038 0.00000000 0.00128724)
(0.00112087 0.00000113 0.00000000 -0.00000081 0.00000000 0.00129293)
(0.00106437 0.00000085 0.00000000 -0.00000191 0.00000000 0.00123508)
(0.00108250 0.00000060 0.00000000 -0.00000151 0.00000000 0.00124417)
(0.00106808 0.00000089 0.00000000 -0.00000154 0.00000000 0.00125010)
(0.00105910 0.00000035 0.00000000 -0.00000121 0.00000000 0.00122218)
(0.00101983 0.00000030 0.00000000 -0.00000128 0.00000000 0.00118148)
(0.00105718 -0.00000028 0.00000000 -0.00000037 0.00000000 0.00118778)
(0.00102855 0.00000011 0.00000000 -0.00000133 0.00000000 0.00113661)
(0.00102229 0.00000038 0.00000000 -0.00000063 0.00000000 0.00115416)
(0.00098416 0.00000044 0.00000000 -0.00000124 0.00000000 0.00111974)
(0.00100663 -0.00000072 0.00000000 0.00000019 0.00000000 0.00115770)
(0.00097081 -0.00000001 0.00000000 -0.00000094 0.00000000 0.00107277)
(0.00095747 -0.00000047 0.00000000 -0.00000080 0.00000000 0.00103052)
(0.00092986 0.00000053 0.00000000 -0.00000135 0.00000000 0.00100773)
(0.00090440 0.00000015 0.00000000 -0.00000144 0.00000000 0.00100929)
(0.00090920 0.00000001 0.00000000 -0.00000109 0.00000000 0.00102002)
(0.00090857 0.00000039 0.00000000 -0.00000119 0.00000000 0.00101808)
(0.00088035 0.00000027 0.00000000 -0.00000132 0.00000000 0.00102518)
(0.00090225 0.00000021 0.00000000 -0.00000114 0.00000000 0.00104384)
(0.00091356 0.00000041 0.00000000 -0.00000141 0.00000000 0.00106796)
(0.00092435 0.00000073 0.00000000 -0.00000152 0.00000000 0.00109999)
(0.00096994 0.00000009 0.00000000 -0.00000110 0.00000000 0.00113875)
(0.00104704 0.00000005 0.00000000 -0.00000096 0.00000000 0.00119367)
(0.00106177 0.00000075 0.00000000 -0.00000107 0.00000000 0.00120579)
(0.00110909 0.00000005 0.00000000 -0.00000172 0.00000000 0.00120221)
(0.00129388 0.00000021 0.00000000 -0.00000205 0.00000000 0.00124910)
(0.00161525 0.00000008 0.00000000 -0.00000196 0.00000000 0.00139783)
(0.00199585 -0.00000115 0.00000000 -0.00000167 0.00000000 0.00162790)
(0.00224253 0.00011323 0.00000000 0.00001632 0.00000000 0.00339205)
(0.00039441 0.00019900 0.00000000 0.00009924 0.00000000 0.00095023)
(0.00000781 -0.00002766 0.00000000 -0.00004106 0.00000000 0.00012308)
(-0.00003201 -0.00002620 0.00000000 -0.00002112 0.00000000 -0.00016267)
(-0.00003324 -0.00005214 0.00000000 -0.00007880 0.00000000 -0.00021463)
(0.00001042 0.00000689 0.00000000 0.00000135 0.00000000 -0.00022022)
(0.00001229 0.00000956 0.00000000 0.00000586 0.00000000 0.00001576)
(-0.00002545 -0.00004015 0.00000000 -0.00007523 0.00000000 -0.00044937)
(-0.00001149 -0.00003023 0.00000000 -0.00006412 0.00000000 -0.00014155)
(0.00002645 0.00001645 0.00000000 -0.00000861 0.00000000 -0.00038649)
(-0.00005839 -0.00010244 0.00000000 -0.00019487 0.00000000 -0.00119201)
(-0.00003059 -0.00004992 0.00000000 -0.00008095 0.00000000 -0.00048848)
(-0.00000114 -0.00000310 0.00000000 -0.00000621 0.00000000 -0.00000005)
(0.00001327 0.00002180 0.00000000 0.00003631 0.00000000 -0.00007835)
(0.00004140 0.00002992 0.00000000 -0.00001339 0.00000000 -0.00066995)
(0.00004539 0.00002042 0.00000000 -0.00006604 0.00000000 -0.00129862)
(-0.00007665 -0.00009214 0.00000000 -0.00010364 0.00000000 -0.00204776)
(-0.00006362 -0.00008207 0.00000000 -0.00009767 0.00000000 -0.00125730)
(-0.00000231 0.00006060 0.00000000 0.00013133 0.00000000 -0.00051440)
(-0.00038690 -0.00030630 0.00000000 -0.00018326 0.00000000 -0.00052452)
(0.00011690 -0.00003174 0.00000000 -0.00001196 0.00000000 0.00006031)
(0.00506839 -0.00005540 0.00000000 0.00003714 0.00000000 0.00434604)
(0.01387639 -0.00037759 0.00000000 0.00024294 0.00000000 0.00860739)
(0.00363846 -0.00040133 0.00000000 0.00007004 0.00000000 0.00153302)
(0.00024862 -0.00016414 0.00000000 0.00008283 0.00000000 0.00034986)
(0.00032901 -0.00026849 0.00000000 0.00020025 0.00000000 0.00098061)
(0.00005647 -0.00007043 0.00000000 0.00008979 0.00000000 0.00044203)
(0.00005146 -0.00007881 0.00000000 0.00012081 0.00000000 0.00050166)
(0.00000079 -0.00002719 0.00000000 0.00010280 0.00000000 0.00041437)
(0.00000549 -0.00003707 0.00000000 0.00012458 0.00000000 0.00045734)
(0.00001555 -0.00004392 0.00000000 0.00011063 0.00000000 0.00051424)
(0.00003781 -0.00006052 0.00000000 0.00010272 0.00000000 0.00057504)
(0.00007459 -0.00009797 0.00000000 0.00013328 0.00000000 0.00065511)
(0.00008163 -0.00011602 0.00000000 0.00017700 0.00000000 0.00069781)
(0.00004618 -0.00008870 0.00000000 0.00017385 0.00000000 0.00077012)
(0.00008544 -0.00012240 0.00000000 0.00018504 0.00000000 0.00101922)
(0.00010973 -0.00014983 0.00000000 0.00021819 0.00000000 0.00099777)
(0.00008211 -0.00012503 0.00000000 0.00020738 0.00000000 0.00124209)
(0.00015404 -0.00020027 0.00000000 0.00027668 0.00000000 0.00135555)
(0.00021515 -0.00024801 0.00000000 0.00032118 0.00000000 0.00222510)
(0.00032942 -0.00030685 0.00000000 0.00031741 0.00000000 0.00178375)
(0.00063991 -0.00037613 0.00000000 0.00025201 0.00000000 0.00201923)
(0.00074341 -0.00028527 0.00000000 0.00014084 0.00000000 0.00170078)
(0.00078164 -0.00001676 0.00000000 0.00001778 0.00000000 0.00129190)
(0.00069736 0.00000391 0.00000000 0.00000983 0.00000000 0.00088936)
(0.00075754 0.00000373 0.00000000 0.00001029 0.00000000 0.00088994)
(0.00083435 0.00000182 0.00000000 0.00001077 0.00000000 0.00090175)
(0.00094847 -0.00000025 0.00000000 0.00001156 0.00000000 0.00092194)
(0.00112043 -0.00000165 0.00000000 0.00001188 0.00000000 0.00095865)
(0.00132742 0.00000071 0.00000000 0.00001353 0.00000000 0.00103041)
(0.00152634 0.00000360 0.00000000 0.00001523 0.00000000 0.00113518)
(0.00176591 0.00000138 0.00000000 0.00001697 0.00000000 0.00124212)
(0.00205964 0.00000439 0.00000000 0.00002035 0.00000000 0.00138269)
(0.00236111 0.00000703 0.00000000 0.00002310 0.00000000 0.00154177)
(0.00265926 0.00001129 0.00000000 0.00002659 0.00000000 0.00172539)
(0.00295443 0.00001500 0.00000000 0.00003102 0.00000000 0.00192566)
(0.00315770 0.00002443 0.00000000 0.00003466 0.00000000 0.00213975)
(0.00332950 0.00002579 0.00000000 0.00003937 0.00000000 0.00238506)
(0.00351653 0.00003105 0.00000000 0.00004332 0.00000000 0.00263614)
(0.00368438 0.00003077 0.00000000 0.00004937 0.00000000 0.00290045)
(0.00393671 0.00003187 0.00000000 0.00005371 0.00000000 0.00319737)
(0.00415002 0.00003370 0.00000000 0.00005944 0.00000000 0.00354594)
(0.00443974 0.00003317 0.00000000 0.00006187 0.00000000 0.00387602)
(0.00465069 0.00003527 0.00000000 0.00006734 0.00000000 0.00420611)
(0.00483671 0.00003945 0.00000000 0.00007301 0.00000000 0.00456471)
(0.00494107 0.00004223 0.00000000 0.00008139 0.00000000 0.00487102)
(0.00496507 0.00004136 0.00000000 0.00008898 0.00000000 0.00509333)
(0.00504821 0.00003445 0.00000000 0.00009192 0.00000000 0.00525075)
(0.00516927 0.00003370 0.00000000 0.00009224 0.00000000 0.00535119)
(0.00512626 0.00004157 0.00000000 0.00009440 0.00000000 0.00547542)
(0.00504820 0.00003840 0.00000000 0.00009518 0.00000000 0.00557978)
(0.00503744 0.00003264 0.00000000 0.00010027 0.00000000 0.00565991)
(0.00503567 0.00002565 0.00000000 0.00010115 0.00000000 0.00577012)
(0.00518563 0.00002177 0.00000000 0.00010021 0.00000000 0.00574904)
(0.00524285 0.00001703 0.00000000 0.00010097 0.00000000 0.00572290)
(0.00540785 0.00001326 0.00000000 0.00009842 0.00000000 0.00583278)
(0.00559631 0.00000837 0.00000000 0.00010197 0.00000000 0.00584936)
(0.00575131 0.00000909 0.00000000 0.00010593 0.00000000 0.00588687)
(0.00584404 0.00001312 0.00000000 0.00010870 0.00000000 0.00592729)
(0.00587711 0.00001149 0.00000000 0.00011168 0.00000000 0.00598757)
(0.00573111 0.00002108 0.00000000 0.00010861 0.00000000 0.00606116)
(0.00560101 0.00000905 0.00000000 0.00010831 0.00000000 0.00616849)
(0.00560588 0.00000630 0.00000000 0.00011048 0.00000000 0.00623249)
(0.00561661 -0.00000201 0.00000000 0.00011109 0.00000000 0.00635136)
(0.00563310 0.00000049 0.00000000 0.00010861 0.00000000 0.00639566)
(0.00562604 -0.00000838 0.00000000 0.00010703 0.00000000 0.00635919)
(0.00566183 -0.00000845 0.00000000 0.00010914 0.00000000 0.00639250)
(0.00569841 -0.00000905 0.00000000 0.00010568 0.00000000 0.00636785)
(0.00563511 -0.00000253 0.00000000 0.00010360 0.00000000 0.00623962)
(0.00550769 -0.00000161 0.00000000 0.00010575 0.00000000 0.00615762)
(0.00546742 -0.00001550 0.00000000 0.00010861 0.00000000 0.00612721)
(0.00546971 -0.00001277 0.00000000 0.00010439 0.00000000 0.00624995)
(0.00535536 -0.00001453 0.00000000 0.00010480 0.00000000 0.00631861)
(0.00527759 -0.00001696 0.00000000 0.00010156 0.00000000 0.00624310)
(0.00524825 -0.00002268 0.00000000 0.00010294 0.00000000 0.00623936)
(0.00520073 -0.00002102 0.00000000 0.00010236 0.00000000 0.00625393)
(0.00515293 -0.00002550 0.00000000 0.00009757 0.00000000 0.00608291)
(0.00508945 -0.00002644 0.00000000 0.00009440 0.00000000 0.00590925)
(0.00512448 -0.00003260 0.00000000 0.00009113 0.00000000 0.00583881)
(0.00510106 -0.00003097 0.00000000 0.00009211 0.00000000 0.00575583)
(0.00498792 -0.00002733 0.00000000 0.00009162 0.00000000 0.00572146)
(0.00489981 -0.00002948 0.00000000 0.00009175 0.00000000 0.00567150)
(0.00487066 -0.00003818 0.00000000 0.00008837 0.00000000 0.00559492)
(0.00488398 -0.00003323 0.00000000 0.00008550 0.00000000 0.00540843)
(0.00488049 -0.00003437 0.00000000 0.00008115 0.00000000 0.00524936)
(0.00476991 -0.00001907 0.00000000 0.00008209 0.00000000 0.00524463)
(0.00460797 -0.00002840 0.00000000 0.00008525 0.00000000 0.00522798)
(0.00460329 -0.00003245 0.00000000 0.00008424 0.00000000 0.00527351)
(0.00456930 -0.00002361 0.00000000 0.00008318 0.00000000 0.00528960)
(0.00449419 -0.00003054 0.00000000 0.00008234 0.00000000 0.00535519)
(0.00457404 -0.00002927 0.00000000 0.00008185 0.00000000 0.00546211)
(0.00460761 -0.00002571 0.00000000 0.00008631 0.00000000 0.00561811)
(0.00462174 -0.00002182 0.00000000 0.00009309 0.00000000 0.00576896)
(0.00478504 -0.00003300 0.00000000 0.00009720 0.00000000 0.00584659)
(0.00504216 -0.00003470 0.00000000 0.00010175 0.00000000 0.00605181)
(0.00523722 -0.00002874 0.00000000 0.00010256 0.00000000 0.00621543)
(0.00568184 -0.00006051 0.00000000 0.00010368 0.00000000 0.00639858)
(0.00658032 -0.00007988 0.00000000 0.00010774 0.00000000 0.00679469)
(0.00777270 -0.00009015 0.00000000 0.00012294 0.00000000 0.00764513)
(0.00852828 -0.00002356 0.00000000 0.00012714 0.00000000 0.00887180)
(0.00669780 0.00068618 0.00000000 0.00023056 0.00000000 0.01150750)
(0.00369507 0.00174189 0.00000000 0.00088954 0.00000000 0.00756379)
(0.00144293 0.00106920 0.00000000 0.00082283 0.00000000 0.00586871)
(0.00024060 0.00016698 0.00000000 0.00011425 0.00000000 0.00113814)
(-0.00000966 0.00001619 0.00000000 0.00006153 0.00000000 0.00186539)
(-0.00002019 -0.00013933 0.00000000 -0.00028032 0.00000000 -0.00032525)
(-0.00003643 -0.00000684 0.00000000 0.00003599 0.00000000 0.00011005)
(0.00001691 -0.00005128 0.00000000 -0.00015505 0.00000000 -0.00018007)
(-0.00001785 -0.00002609 0.00000000 -0.00003847 0.00000000 0.00056993)
(-0.00002007 -0.00003040 0.00000000 -0.00005633 0.00000000 -0.00039538)
(-0.00000906 -0.00010071 0.00000000 -0.00026534 0.00000000 -0.00055775)
(-0.00005427 -0.00008080 0.00000000 -0.00012276 0.00000000 0.00098799)
(-0.00000421 -0.00000887 0.00000000 -0.00001495 0.00000000 0.00018980)
(-0.00002496 -0.00003817 0.00000000 -0.00007107 0.00000000 -0.00076779)
(-0.00000496 -0.00001104 0.00000000 -0.00004485 0.00000000 -0.00096252)
(-0.00001164 -0.00003197 0.00000000 -0.00011018 0.00000000 -0.00140827)
(-0.00003857 -0.00005653 0.00000000 -0.00007038 0.00000000 -0.00153162)
(-0.00004104 -0.00006504 0.00000000 -0.00008877 0.00000000 -0.00080746)
(-0.00004418 -0.00004544 0.00000000 -0.00003896 0.00000000 0.00058749)
(-0.00014812 -0.00003174 0.00000000 0.00000864 0.00000000 -0.00045104)
(0.00282643 -0.00007265 0.00000000 -0.00005614 0.00000000 0.00151772)
(0.01304437 -0.00004900 0.00000000 0.00015030 0.00000000 0.00865735)
(0.02351851 -0.00069786 0.00000000 0.00054958 0.00000000 0.01264157)
(0.01013234 -0.00104373 0.00000000 0.00030173 0.00000000 0.00431128)
(0.00078185 -0.00058625 0.00000000 0.00041696 0.00000000 0.00119935)
(0.00062838 -0.00059537 0.00000000 0.00057798 0.00000000 0.00207214)
(0.00018730 -0.00024035 0.00000000 0.00032477 0.00000000 0.00097024)
(0.00016469 -0.00022633 0.00000000 0.00031876 0.00000000 0.00093003)
(0.00005004 -0.00011736 0.00000000 0.00028470 0.00000000 0.00064160)
(0.00007632 -0.00015188 0.00000000 0.00032153 0.00000000 0.00075509)
(0.00007518 -0.00015166 0.00000000 0.00032094 0.00000000 0.00082904)
(0.00009319 -0.00016693 0.00000000 0.00031577 0.00000000 0.00096847)
(0.00015877 -0.00024162 0.00000000 0.00038918 0.00000000 0.00128808)
(0.00022102 -0.00031702 0.00000000 0.00047789 0.00000000 0.00157024)
(0.00026116 -0.00035588 0.00000000 0.00051345 0.00000000 0.00165222)
(0.00022473 -0.00033847 0.00000000 0.00055315 0.00000000 0.00187029)
(0.00030177 -0.00040931 0.00000000 0.00059885 0.00000000 0.00230416)
(0.00037880 -0.00046833 0.00000000 0.00063721 0.00000000 0.00257111)
(0.00046246 -0.00051328 0.00000000 0.00063541 0.00000000 0.00302379)
(0.00052175 -0.00054759 0.00000000 0.00069992 0.00000000 0.00371239)
(0.00076857 -0.00060112 0.00000000 0.00058929 0.00000000 0.00354499)
(0.00097156 -0.00054774 0.00000000 0.00043265 0.00000000 0.00347847)
(0.00118784 -0.00038287 0.00000000 0.00023050 0.00000000 0.00289792)
(0.00127617 -0.00003024 0.00000000 0.00007059 0.00000000 0.00232983)
(0.00138438 0.00001829 0.00000000 0.00005432 0.00000000 0.00184314)
(0.00155706 0.00001591 0.00000000 0.00005510 0.00000000 0.00182144)
(0.00176887 0.00000771 0.00000000 0.00005785 0.00000000 0.00182390)
(0.00205709 -0.00000036 0.00000000 0.00006170 0.00000000 0.00185943)
(0.00245745 -0.00000585 0.00000000 0.00006497 0.00000000 0.00194451)
(0.00290602 0.00000172 0.00000000 0.00007288 0.00000000 0.00208841)
(0.00335623 0.00000739 0.00000000 0.00008147 0.00000000 0.00228606)
(0.00385981 0.00000051 0.00000000 0.00009041 0.00000000 0.00248488)
(0.00441393 0.00000945 0.00000000 0.00010449 0.00000000 0.00274346)
(0.00495235 0.00001459 0.00000000 0.00011989 0.00000000 0.00303480)
(0.00546368 0.00002542 0.00000000 0.00013606 0.00000000 0.00336983)
(0.00591317 0.00003901 0.00000000 0.00015687 0.00000000 0.00372395)
(0.00618036 0.00006572 0.00000000 0.00017513 0.00000000 0.00409749)
(0.00640001 0.00006280 0.00000000 0.00019626 0.00000000 0.00454670)
(0.00665939 0.00006912 0.00000000 0.00021875 0.00000000 0.00497749)
(0.00689943 0.00006229 0.00000000 0.00024405 0.00000000 0.00543504)
(0.00722317 0.00005807 0.00000000 0.00026701 0.00000000 0.00594808)
(0.00754798 0.00005101 0.00000000 0.00029271 0.00000000 0.00655265)
(0.00792607 0.00004996 0.00000000 0.00030796 0.00000000 0.00711138)
(0.00816803 0.00005433 0.00000000 0.00032867 0.00000000 0.00767619)
(0.00833814 0.00005541 0.00000000 0.00035828 0.00000000 0.00823639)
(0.00844050 0.00005754 0.00000000 0.00038573 0.00000000 0.00868639)
(0.00851832 0.00004999 0.00000000 0.00041076 0.00000000 0.00902208)
(0.00866134 0.00002756 0.00000000 0.00042890 0.00000000 0.00927837)
(0.00881845 0.00003620 0.00000000 0.00043088 0.00000000 0.00945993)
(0.00876922 0.00005487 0.00000000 0.00043814 0.00000000 0.00966998)
(0.00870634 0.00003918 0.00000000 0.00044385 0.00000000 0.00986286)
(0.00875131 0.00002459 0.00000000 0.00045651 0.00000000 0.00997289)
(0.00881581 0.00000188 0.00000000 0.00047024 0.00000000 0.01009771)
(0.00908790 -0.00001046 0.00000000 0.00046939 0.00000000 0.01007815)
(0.00929487 -0.00002030 0.00000000 0.00046705 0.00000000 0.01009097)
(0.00955380 -0.00003066 0.00000000 0.00046680 0.00000000 0.01026436)
(0.00984334 -0.00004330 0.00000000 0.00047388 0.00000000 0.01032706)
(0.01005927 -0.00003987 0.00000000 0.00048548 0.00000000 0.01038462)
(0.01013855 -0.00003076 0.00000000 0.00049941 0.00000000 0.01043740)
(0.01011849 -0.00002574 0.00000000 0.00050906 0.00000000 0.01055579)
(0.00987882 -0.00001187 0.00000000 0.00049601 0.00000000 0.01070177)
(0.00966400 -0.00004058 0.00000000 0.00049780 0.00000000 0.01083824)
(0.00968312 -0.00005184 0.00000000 0.00050461 0.00000000 0.01097304)
(0.00971903 -0.00007351 0.00000000 0.00050865 0.00000000 0.01119570)
(0.00977114 -0.00007068 0.00000000 0.00050608 0.00000000 0.01127771)
(0.00977728 -0.00008042 0.00000000 0.00049433 0.00000000 0.01127884)
(0.00982670 -0.00008545 0.00000000 0.00049986 0.00000000 0.01134486)
(0.00988837 -0.00008499 0.00000000 0.00049479 0.00000000 0.01127617)
(0.00985436 -0.00006604 0.00000000 0.00048214 0.00000000 0.01114651)
(0.00970965 -0.00005704 0.00000000 0.00048620 0.00000000 0.01101672)
(0.00962613 -0.00008770 0.00000000 0.00049220 0.00000000 0.01092957)
(0.00956763 -0.00008673 0.00000000 0.00048383 0.00000000 0.01110895)
(0.00946954 -0.00009848 0.00000000 0.00048045 0.00000000 0.01123070)
(0.00937478 -0.00009155 0.00000000 0.00046231 0.00000000 0.01116923)
(0.00927834 -0.00010773 0.00000000 0.00046940 0.00000000 0.01117173)
(0.00921245 -0.00011159 0.00000000 0.00046882 0.00000000 0.01116485)
(0.00917233 -0.00011946 0.00000000 0.00045147 0.00000000 0.01087436)
(0.00917906 -0.00011608 0.00000000 0.00044010 0.00000000 0.01060866)
(0.00922914 -0.00012924 0.00000000 0.00043117 0.00000000 0.01052419)
(0.00919940 -0.00012111 0.00000000 0.00042948 0.00000000 0.01042434)
(0.00904376 -0.00011671 0.00000000 0.00043079 0.00000000 0.01035256)
(0.00895637 -0.00012184 0.00000000 0.00041970 0.00000000 0.01031033)
(0.00893916 -0.00014636 0.00000000 0.00042026 0.00000000 0.01009495)
(0.00902358 -0.00013144 0.00000000 0.00040057 0.00000000 0.00986255)
(0.00901886 -0.00012211 0.00000000 0.00038472 0.00000000 0.00966799)
(0.00880824 -0.00008407 0.00000000 0.00038834 0.00000000 0.00964617)
(0.00854743 -0.00010336 0.00000000 0.00039460 0.00000000 0.00962910)
(0.00847838 -0.00012339 0.00000000 0.00039553 0.00000000 0.00970411)
(0.00840062 -0.00010292 0.00000000 0.00039037 0.00000000 0.00976890)
(0.00835141 -0.00012209 0.00000000 0.00038925 0.00000000 0.00991201)
(0.00846991 -0.00011675 0.00000000 0.00038784 0.00000000 0.01015594)
(0.00847271 -0.00010641 0.00000000 0.00040819 0.00000000 0.01042414)
(0.00851583 -0.00010768 0.00000000 0.00042587 0.00000000 0.01069390)
(0.00881438 -0.00014096 0.00000000 0.00044458 0.00000000 0.01079980)
(0.00921074 -0.00015323 0.00000000 0.00046587 0.00000000 0.01115361)
(0.00965644 -0.00016038 0.00000000 0.00047713 0.00000000 0.01150259)
(0.01055375 -0.00026051 0.00000000 0.00048448 0.00000000 0.01198530)
(0.01189979 -0.00032885 0.00000000 0.00051243 0.00000000 0.01284143)
(0.01331843 -0.00034133 0.00000000 0.00056671 0.00000000 0.01451148)
(0.01336063 -0.00007439 0.00000000 0.00058130 0.00000000 0.01657728)
(0.01028536 0.00125594 0.00000000 0.00072489 0.00000000 0.01858581)
(0.00735464 0.00318830 0.00000000 0.00180135 0.00000000 0.01572804)
(0.00468593 0.00328357 0.00000000 0.00259015 0.00000000 0.01389187)
(0.00256488 0.00237064 0.00000000 0.00230307 0.00000000 0.00826910)
(0.00083396 0.00115359 0.00000000 0.00170383 0.00000000 0.00553262)
(0.00048430 0.00060434 0.00000000 0.00079458 0.00000000 0.00469226)
(0.00055900 0.00059249 0.00000000 0.00069668 0.00000000 0.00310393)
(-0.00012407 -0.00015053 0.00000000 -0.00016244 0.00000000 0.00254797)
(0.00002384 0.00011376 0.00000000 0.00030271 0.00000000 0.00158698)
(0.00019153 0.00012307 0.00000000 0.00003344 0.00000000 0.00187785)
(0.00002828 -0.00000296 0.00000000 -0.00002817 0.00000000 0.00308409)
(-0.00004019 0.00002431 0.00000000 0.00018933 0.00000000 0.00268190)
(-0.00005373 -0.00000581 0.00000000 0.00008969 0.00000000 0.00077447)
(-0.00000814 -0.00003996 0.00000000 -0.00010754 0.00000000 -0.00049890)
(-0.00000884 -0.00009961 0.00000000 -0.00030488 0.00000000 -0.00101409)
(-0.00002860 -0.00010357 0.00000000 -0.00029436 0.00000000 -0.00113204)
(-0.00012387 -0.00021105 0.00000000 -0.00035805 0.00000000 0.00034876)
(-0.00012167 -0.00016715 0.00000000 -0.00024943 0.00000000 0.00124226)
(-0.00010627 -0.00010738 0.00000000 -0.00008479 0.00000000 0.00395722)
(0.00049843 0.00065528 0.00000000 0.00048025 0.00000000 -0.00038310)
(0.01309254 0.00129011 0.00000000 0.00027404 0.00000000 0.00709854)
(0.02436661 0.00015199 0.00000000 0.00036140 0.00000000 0.01311055)
(0.03388180 -0.00101042 0.00000000 0.00097670 0.00000000 0.01535244)
(0.02016162 -0.00212131 0.00000000 0.00087989 0.00000000 0.00870640)
(0.00192719 -0.00133655 0.00000000 0.00106186 0.00000000 0.00283204)
(0.00088886 -0.00092735 0.00000000 0.00110847 0.00000000 0.00321680)
(0.00033470 -0.00046059 0.00000000 0.00067794 0.00000000 0.00177921)
(0.00030606 -0.00041463 0.00000000 0.00059176 0.00000000 0.00161619)
(0.00021019 -0.00034014 0.00000000 0.00057397 0.00000000 0.00120381)
(0.00024068 -0.00037774 0.00000000 0.00061856 0.00000000 0.00136071)
(0.00026537 -0.00041108 0.00000000 0.00066512 0.00000000 0.00149397)
(0.00028834 -0.00043140 0.00000000 0.00068272 0.00000000 0.00162566)
(0.00031756 -0.00048121 0.00000000 0.00078084 0.00000000 0.00192912)
(0.00040859 -0.00060728 0.00000000 0.00097306 0.00000000 0.00248612)
(0.00049752 -0.00067655 0.00000000 0.00099688 0.00000000 0.00276854)
(0.00054700 -0.00074291 0.00000000 0.00110194 0.00000000 0.00311978)
(0.00058764 -0.00077757 0.00000000 0.00115949 0.00000000 0.00362094)
(0.00073394 -0.00081498 0.00000000 0.00106065 0.00000000 0.00411657)
(0.00078156 -0.00080652 0.00000000 0.00101788 0.00000000 0.00452643)
(0.00087712 -0.00077906 0.00000000 0.00095730 0.00000000 0.00496348)
(0.00111213 -0.00074591 0.00000000 0.00077105 0.00000000 0.00489750)
(0.00131788 -0.00063015 0.00000000 0.00056967 0.00000000 0.00471275)
(0.00156139 -0.00040170 0.00000000 0.00032263 0.00000000 0.00396070)
(0.00171601 -0.00003811 0.00000000 0.00016404 0.00000000 0.00325785)
(0.00204698 0.00004115 0.00000000 0.00014405 0.00000000 0.00272989)
(0.00238792 0.00003457 0.00000000 0.00014571 0.00000000 0.00266399)
(0.00277934 0.00001427 0.00000000 0.00015144 0.00000000 0.00264711)
(0.00328264 -0.00000527 0.00000000 0.00016227 0.00000000 0.00269460)
(0.00390765 -0.00001706 0.00000000 0.00017166 0.00000000 0.00282769)
(0.00458564 -0.00000608 0.00000000 0.00019110 0.00000000 0.00303947)
(0.00527470 -0.00000226 0.00000000 0.00021414 0.00000000 0.00330591)
(0.00598185 -0.00001469 0.00000000 0.00023677 0.00000000 0.00357293)
(0.00669204 -0.00000045 0.00000000 0.00027118 0.00000000 0.00391030)
(0.00734131 0.00000359 0.00000000 0.00030818 0.00000000 0.00430071)
(0.00791738 0.00002061 0.00000000 0.00034836 0.00000000 0.00474023)
(0.00835216 0.00004660 0.00000000 0.00039669 0.00000000 0.00520034)
(0.00856643 0.00008455 0.00000000 0.00044161 0.00000000 0.00568661)
(0.00872208 0.00006831 0.00000000 0.00049548 0.00000000 0.00626921)
(0.00897278 0.00006219 0.00000000 0.00054855 0.00000000 0.00681583)
(0.00918676 0.00003964 0.00000000 0.00060878 0.00000000 0.00737923)
(0.00947907 0.00001855 0.00000000 0.00066073 0.00000000 0.00803460)
(0.00981959 -0.00001132 0.00000000 0.00072377 0.00000000 0.00878477)
(0.01019789 -0.00001293 0.00000000 0.00075724 0.00000000 0.00946959)
(0.01041996 -0.00000680 0.00000000 0.00080267 0.00000000 0.01016061)
(0.01054671 -0.00001286 0.00000000 0.00086505 0.00000000 0.01080988)
(0.01064141 -0.00002119 0.00000000 0.00092268 0.00000000 0.01131155)
(0.01077458 -0.00004082 0.00000000 0.00097210 0.00000000 0.01170023)
(0.01093773 -0.00007796 0.00000000 0.00101612 0.00000000 0.01202602)
(0.01109979 -0.00005642 0.00000000 0.00102138 0.00000000 0.01224978)
(0.01108055 -0.00003119 0.00000000 0.00103713 0.00000000 0.01249330)
(0.01106853 -0.00006154 0.00000000 0.00105253 0.00000000 0.01274161)
(0.01120756 -0.00008764 0.00000000 0.00107837 0.00000000 0.01284715)
(0.01141687 -0.00012791 0.00000000 0.00110825 0.00000000 0.01299052)
(0.01176502 -0.00014770 0.00000000 0.00110263 0.00000000 0.01301566)
(0.01209490 -0.00016240 0.00000000 0.00110073 0.00000000 0.01306848)
(0.01239102 -0.00017541 0.00000000 0.00110368 0.00000000 0.01328025)
(0.01270256 -0.00019129 0.00000000 0.00111751 0.00000000 0.01337719)
(0.01289623 -0.00018656 0.00000000 0.00114591 0.00000000 0.01341984)
(0.01296055 -0.00016804 0.00000000 0.00116988 0.00000000 0.01350187)
(0.01288132 -0.00014656 0.00000000 0.00118840 0.00000000 0.01366429)
(0.01257124 -0.00013627 0.00000000 0.00116734 0.00000000 0.01384324)
(0.01235953 -0.00017879 0.00000000 0.00116677 0.00000000 0.01401393)
(0.01240036 -0.00020443 0.00000000 0.00117710 0.00000000 0.01422085)
(0.01246449 -0.00023302 0.00000000 0.00118808 0.00000000 0.01451129)
(0.01253150 -0.00023212 0.00000000 0.00118111 0.00000000 0.01464372)
(0.01255078 -0.00023504 0.00000000 0.00116502 0.00000000 0.01462804)