/*--------------------------------*- C++ -*----------------------------------*\
  =========                 |
  \\      /  F ield         | OpenFOAM: The Open Source CFD Toolbox
   \\    /   O peration     | Website:  https://openfoam.org
    \\  /    A nd           | Version:  7
     \\/     M anipulation  |
\*---------------------------------------------------------------------------*/
FoamFile
{
    version     2.0;
    format      ascii;
    class       volVectorField;
    location    "0";
    object      U_LES;
}
// * * * * * * * * * * * * * * * * * * * * * * * * * * * * * * * * * * * * * //

dimensions      [0 1 -1 0 0 0 0];

internalField   nonuniform List<vector>
15600
(
(0.01077150 0.00000941 0.00000000)
(-0.00007401 0.00023025 0.00000000)
(-0.00173372 0.00091223 0.00000000)
(-0.00178403 0.00088175 0.00000000)
(-0.00086063 0.00121167 0.00000000)
(-0.00148498 0.00209807 0.00000000)
(-0.00116164 0.00285533 0.00000000)
(-0.00144481 0.00318565 0.00000000)
(-0.00201270 0.00314600 0.00000000)
(-0.00208959 0.00268243 0.00000000)
(-0.00215098 0.00255667 0.00000000)
(-0.00173771 0.00373706 0.00000000)
(-0.00165289 0.00324484 0.00000000)
(-0.00228966 0.00247950 0.00000000)
(-0.00121975 0.00252897 0.00000000)
(-0.00103150 0.00137701 0.00000000)
(-0.00018566 0.00018264 0.00000000)
(0.00155129 -0.00213498 0.00000000)
(0.00303534 -0.00304714 0.00000000)
(0.00874417 -0.00519449 0.00000000)
(0.01022210 -0.00453835 0.00000000)
(0.01021154 -0.00011522 0.00000000)
(0.00529665 0.00001706 0.00000000)
(0.00389616 0.00001994 0.00000000)
(0.00265165 0.00002657 0.00000000)
(0.00141800 0.00002841 0.00000000)
(0.00002162 0.00003238 0.00000000)
(-0.00154403 0.00003923 0.00000000)
(-0.00338083 0.00004407 0.00000000)
(-0.00535677 0.00004559 0.00000000)
(-0.00748555 0.00004606 0.00000000)
(-0.00980317 0.00005502 0.00000000)
(-0.01219640 0.00005352 0.00000000)
(-0.01469894 0.00005614 0.00000000)
(-0.01731112 0.00005761 0.00000000)
(-0.01984920 0.00005506 0.00000000)
(-0.02241211 0.00005509 0.00000000)
(-0.02484562 0.00004765 0.00000000)
(-0.02690475 0.00004695 0.00000000)
(-0.02871401 0.00004388 0.00000000)
(-0.03030504 0.00003944 0.00000000)
(-0.03181719 0.00002890 0.00000000)
(-0.03280404 0.00002601 0.00000000)
(-0.03355024 0.00000910 0.00000000)
(-0.03378611 -0.00000403 0.00000000)
(-0.03345040 -0.00000812 0.00000000)
(-0.03309977 -0.00000697 0.00000000)
(-0.03283735 -0.00000942 0.00000000)
(-0.03233833 -0.00001157 0.00000000)
(-0.03175465 -0.00001459 0.00000000)
(-0.03087758 -0.00002250 0.00000000)
(-0.03005511 -0.00001108 0.00000000)
(-0.02963982 -0.00000749 0.00000000)
(-0.02936260 -0.00000979 0.00000000)
(-0.02876387 -0.00000554 0.00000000)
(-0.02869812 -0.00001017 0.00000000)
(-0.02818444 -0.00001173 0.00000000)
(-0.02757747 -0.00001372 0.00000000)
(-0.02698506 -0.00001357 0.00000000)
(-0.02610424 -0.00002325 0.00000000)
(-0.02518367 -0.00001446 0.00000000)
(-0.02445623 -0.00001696 0.00000000)
(-0.02342903 -0.00002278 0.00000000)
(-0.02260074 -0.00001934 0.00000000)
(-0.02131366 -0.00003104 0.00000000)
(-0.02004636 -0.00002894 0.00000000)
(-0.01897170 -0.00001722 0.00000000)
(-0.01846386 -0.00001829 0.00000000)
(-0.01773437 -0.00001585 0.00000000)
(-0.01696732 -0.00001460 0.00000000)
(-0.01617214 -0.00002445 0.00000000)
(-0.01548704 -0.00001009 0.00000000)
(-0.01508171 -0.00001321 0.00000000)
(-0.01421679 -0.00002546 0.00000000)
(-0.01282019 -0.00003209 0.00000000)
(-0.01181456 -0.00001492 0.00000000)
(-0.01118800 -0.00001546 0.00000000)
(-0.01053301 -0.00001509 0.00000000)
(-0.00989942 -0.00001544 0.00000000)
(-0.00930460 -0.00001428 0.00000000)
(-0.00844013 -0.00001930 0.00000000)
(-0.00792288 -0.00000843 0.00000000)
(-0.00780027 0.00000379 0.00000000)
(-0.00795251 -0.00000099 0.00000000)
(-0.00758128 -0.00000788 0.00000000)
(-0.00720344 -0.00000408 0.00000000)
(-0.00717332 0.00000413 0.00000000)
(-0.00721031 0.00000483 0.00000000)
(-0.00739401 0.00000565 0.00000000)
(-0.00764854 0.00000657 0.00000000)
(-0.00793145 0.00000256 0.00000000)
(-0.00839612 0.00002476 0.00000000)
(-0.00947790 0.00002632 0.00000000)
(-0.01107531 0.00004537 0.00000000)
(-0.01366221 0.00006940 0.00000000)
(-0.01752782 0.00010100 0.00000000)
(-0.02266765 0.00013555 0.00000000)
(-0.02685948 0.00009747 0.00000000)
(-0.03064084 -0.00152261 0.00000000)
(-0.00846898 -0.00419224 0.00000000)
(-0.00378019 -0.00171926 0.00000000)
(0.00095197 0.00071848 0.00000000)
(0.00019441 0.00036393 0.00000000)
(0.00040971 0.00063848 0.00000000)
(-0.00008482 -0.00001210 0.00000000)
(0.00090040 0.00112735 0.00000000)
(0.00003134 0.00016820 0.00000000)
(0.00018760 0.00033579 0.00000000)
(0.00021199 0.00025941 0.00000000)
(-0.00007749 0.00000987 0.00000000)
(0.00002241 0.00001543 0.00000000)
(-0.00013570 -0.00013000 0.00000000)
(-0.00051552 -0.00171968 0.00000000)
(-0.00134018 -0.00410015 0.00000000)
(-0.00574033 -0.00697737 0.00000000)
(-0.00432189 -0.00561540 0.00000000)
(-0.00744036 -0.00359262 0.00000000)
(-0.01586492 -0.01127678 0.00000000)
(0.00382626 0.00011472 0.00000000)
(0.02325904 0.00054400 0.00000000)
(0.02977356 0.00092753 0.00000000)
(0.00086250 0.00156027 0.00000000)
(-0.00460570 0.00313499 0.00000000)
(-0.00521401 0.00405703 0.00000000)
(-0.00248030 0.00320926 0.00000000)
(-0.00273284 0.00421808 0.00000000)
(-0.00180614 0.00527808 0.00000000)
(-0.00245483 0.00646775 0.00000000)
(-0.00284879 0.00678948 0.00000000)
(-0.00359758 0.00669792 0.00000000)
(-0.00493842 0.00717492 0.00000000)
(-0.00555359 0.00816474 0.00000000)
(-0.00449217 0.00829290 0.00000000)
(-0.00463961 0.00749627 0.00000000)
(-0.00462491 0.00640451 0.00000000)
(-0.00277279 0.00426050 0.00000000)
(-0.00103736 0.00120479 0.00000000)
(0.00178875 -0.00346458 0.00000000)
(0.00717849 -0.00783584 0.00000000)
(0.01468730 -0.00940997 0.00000000)
(0.01742387 -0.00719344 0.00000000)
(0.01766700 -0.00029979 0.00000000)
(0.01283977 0.00038888 0.00000000)
(0.00891620 0.00031678 0.00000000)
(0.00540969 0.00030757 0.00000000)
(0.00163210 0.00034468 0.00000000)
(-0.00250790 0.00037657 0.00000000)
(-0.00723285 0.00043831 0.00000000)
(-0.01260626 0.00049275 0.00000000)
(-0.01836741 0.00051843 0.00000000)
(-0.02448235 0.00055778 0.00000000)
(-0.03099855 0.00059263 0.00000000)
(-0.03777090 0.00061953 0.00000000)
(-0.04464567 0.00062702 0.00000000)
(-0.05167993 0.00063741 0.00000000)
(-0.05848118 0.00061682 0.00000000)
(-0.06511781 0.00060227 0.00000000)
(-0.07119267 0.00053094 0.00000000)
(-0.07645999 0.00047499 0.00000000)
(-0.08109484 0.00039849 0.00000000)
(-0.08494706 0.00034277 0.00000000)
(-0.08798631 0.00027276 0.00000000)
(-0.09037957 0.00021103 0.00000000)
(-0.09143074 0.00006289 0.00000000)
(-0.09120860 -0.00005438 0.00000000)
(-0.09039391 -0.00009078 0.00000000)
(-0.08918528 -0.00008937 0.00000000)
(-0.08809469 -0.00010786 0.00000000)
(-0.08656325 -0.00013534 0.00000000)
(-0.08464229 -0.00017512 0.00000000)
(-0.08263548 -0.00023037 0.00000000)
(-0.08057305 -0.00012681 0.00000000)
(-0.07927717 -0.00008065 0.00000000)
(-0.07837632 -0.00011439 0.00000000)
(-0.07694025 -0.00007477 0.00000000)
(-0.07576752 -0.00012421 0.00000000)
(-0.07426731 -0.00015076 0.00000000)
(-0.07229453 -0.00017453 0.00000000)
(-0.07036915 -0.00016904 0.00000000)
(-0.06815699 -0.00024789 0.00000000)
(-0.06571134 -0.00018173 0.00000000)
(-0.06352212 -0.00020421 0.00000000)
(-0.06096721 -0.00024274 0.00000000)
(-0.05826736 -0.00023615 0.00000000)
(-0.05529950 -0.00030304 0.00000000)
(-0.05186483 -0.00029777 0.00000000)
(-0.04927871 -0.00017008 0.00000000)
(-0.04750044 -0.00019067 0.00000000)
(-0.04534951 -0.00018452 0.00000000)
(-0.04341330 -0.00016449 0.00000000)
(-0.04113577 -0.00023177 0.00000000)
(-0.03910500 -0.00011452 0.00000000)
(-0.03784456 -0.00015469 0.00000000)
(-0.03539839 -0.00027055 0.00000000)
(-0.03198671 -0.00032583 0.00000000)
(-0.02944394 -0.00015479 0.00000000)
(-0.02783327 -0.00015828 0.00000000)
(-0.02575812 -0.00017190 0.00000000)
(-0.02413836 -0.00014580 0.00000000)
(-0.02238139 -0.00016515 0.00000000)
(-0.02056495 -0.00017382 0.00000000)
(-0.01906029 -0.00009267 0.00000000)
(-0.01870702 0.00002029 0.00000000)
(-0.01880354 -0.00003211 0.00000000)
(-0.01798292 -0.00009818 0.00000000)
(-0.01707019 -0.00006139 0.00000000)
(-0.01695894 0.00002594 0.00000000)
(-0.01723786 0.00003723 0.00000000)
(-0.01774191 0.00004383 0.00000000)
(-0.01845773 0.00006147 0.00000000)
(-0.01922086 0.00005078 0.00000000)
(-0.02077570 0.00024662 0.00000000)
(-0.02383437 0.00028181 0.00000000)
(-0.02825009 0.00051071 0.00000000)
(-0.03544178 0.00078622 0.00000000)
(-0.04556941 0.00108680 0.00000000)
(-0.05781096 0.00118330 0.00000000)
(-0.06540739 0.00032442 0.00000000)
(-0.05563412 -0.00648322 0.00000000)
(-0.03589906 -0.01689606 0.00000000)
(-0.01943349 -0.01472504 0.00000000)
(-0.00686742 -0.00484428 0.00000000)
(-0.00310211 -0.00469863 0.00000000)
(-0.00233414 -0.00037636 0.00000000)
(0.00018641 -0.00035420 0.00000000)
(-0.00077339 -0.00001574 0.00000000)
(-0.00034249 -0.00067323 0.00000000)
(0.00033193 0.00039511 0.00000000)
(-0.00007295 -0.00003154 0.00000000)
(0.00036196 0.00044453 0.00000000)
(0.00016863 0.00022382 0.00000000)
(-0.00077030 -0.00122731 0.00000000)
(-0.00144228 -0.00228258 0.00000000)
(-0.00281754 -0.00468614 0.00000000)
(-0.00346692 -0.00504188 0.00000000)
(-0.00151164 -0.00333233 0.00000000)
(0.00288727 0.00122355 0.00000000)
(-0.00072116 0.00117311 0.00000000)
(0.05290596 0.00441648 0.00000000)
(0.05929104 0.00433224 0.00000000)
(0.05965766 0.00219259 0.00000000)
(0.00735535 0.00296972 0.00000000)
(-0.01300027 0.00969791 0.00000000)
(-0.00901663 0.00797313 0.00000000)
(-0.00481184 0.00633460 0.00000000)
(-0.00509818 0.00756291 0.00000000)
(-0.00394467 0.00907953 0.00000000)
(-0.00505277 0.01067170 0.00000000)
(-0.00568117 0.01199219 0.00000000)
(-0.00643598 0.01260814 0.00000000)
(-0.00775777 0.01363001 0.00000000)
(-0.00969504 0.01542214 0.00000000)
(-0.01034820 0.01534635 0.00000000)
(-0.00872037 0.01480910 0.00000000)
(-0.00861053 0.01259338 0.00000000)
(-0.00681680 0.00910682 0.00000000)
(-0.00353821 0.00353698 0.00000000)
(0.00119561 -0.00373503 0.00000000)
(0.00895743 -0.00973595 0.00000000)
(0.01613642 -0.01182682 0.00000000)
(0.02107209 -0.00846868 0.00000000)
(0.02118393 -0.00025815 0.00000000)
(0.01614234 0.00103255 0.00000000)
(0.01023948 0.00087624 0.00000000)
(0.00459953 0.00088110 0.00000000)
(-0.00155276 0.00099562 0.00000000)
(-0.00841851 0.00109385 0.00000000)
(-0.01604058 0.00125300 0.00000000)
(-0.02455680 0.00139137 0.00000000)
(-0.03366477 0.00145852 0.00000000)
(-0.04318026 0.00155064 0.00000000)
(-0.05311867 0.00162776 0.00000000)
(-0.06329231 0.00168088 0.00000000)
(-0.07343082 0.00168763 0.00000000)
(-0.08358377 0.00169792 0.00000000)
(-0.09329561 0.00161319 0.00000000)
(-0.10227968 0.00154219 0.00000000)
(-0.11042297 0.00134777 0.00000000)
(-0.11725860 0.00117900 0.00000000)
(-0.12311331 0.00098194 0.00000000)
(-0.12766157 0.00080765 0.00000000)
(-0.13111931 0.00062062 0.00000000)
(-0.13338689 0.00043481 0.00000000)
(-0.13413371 0.00008181 0.00000000)
(-0.13335665 -0.00017936 0.00000000)
(-0.13178542 -0.00026926 0.00000000)
(-0.12981494 -0.00028212 0.00000000)
(-0.12784819 -0.00031277 0.00000000)
(-0.12543527 -0.00039278 0.00000000)
(-0.12257305 -0.00048400 0.00000000)
(-0.11946269 -0.00058838 0.00000000)
(-0.11654577 -0.00035807 0.00000000)
(-0.11457605 -0.00024319 0.00000000)
(-0.11265130 -0.00034242 0.00000000)
(-0.11039597 -0.00026194 0.00000000)
(-0.10830498 -0.00035340 0.00000000)
(-0.10580555 -0.00044280 0.00000000)
(-0.10261948 -0.00049708 0.00000000)
(-0.09961850 -0.00047705 0.00000000)
(-0.09631714 -0.00062802 0.00000000)
(-0.09281508 -0.00051980 0.00000000)
(-0.08940572 -0.00056858 0.00000000)
(-0.08549792 -0.00065923 0.00000000)
(-0.08155874 -0.00064874 0.00000000)
(-0.07730038 -0.00079658 0.00000000)
(-0.07244260 -0.00076994 0.00000000)
(-0.06901253 -0.00046615 0.00000000)
(-0.06626725 -0.00050420 0.00000000)
(-0.06315278 -0.00050355 0.00000000)
(-0.05996518 -0.00049618 0.00000000)
(-0.05668253 -0.00058187 0.00000000)
(-0.05393917 -0.00033027 0.00000000)
(-0.05169616 -0.00044940 0.00000000)
(-0.04803766 -0.00071404 0.00000000)
(-0.04349569 -0.00081999 0.00000000)
(-0.04002798 -0.00041752 0.00000000)
(-0.03743574 -0.00045729 0.00000000)
(-0.03443104 -0.00047385 0.00000000)
(-0.03201598 -0.00037578 0.00000000)
(-0.02954090 -0.00044174 0.00000000)
(-0.02695210 -0.00043688 0.00000000)
(-0.02503159 -0.00022516 0.00000000)
(-0.02437025 0.00001228 0.00000000)
(-0.02423466 -0.00009149 0.00000000)
(-0.02326300 -0.00024383 0.00000000)
(-0.02194443 -0.00015255 0.00000000)
(-0.02186690 0.00007326 0.00000000)
(-0.02245458 0.00010895 0.00000000)
(-0.02302457 0.00010784 0.00000000)
(-0.02401477 0.00018249 0.00000000)
(-0.02541832 0.00019401 0.00000000)
(-0.02785832 0.00063890 0.00000000)
(-0.03246282 0.00078552 0.00000000)
(-0.03923499 0.00141278 0.00000000)
(-0.04986263 0.00208415 0.00000000)
(-0.06393718 0.00278136 0.00000000)
(-0.07911945 0.00274134 0.00000000)
(-0.08573294 0.00032068 0.00000000)
(-0.07240886 -0.01074517 0.00000000)
(-0.05498416 -0.02510600 0.00000000)
(-0.03933277 -0.02911693 0.00000000)
(-0.02728078 -0.02543616 0.00000000)
(-0.01460844 -0.01804007 0.00000000)
(-0.01006572 -0.01262341 0.00000000)
(-0.00852748 -0.00795581 0.00000000)
(-0.00235205 -0.00454249 0.00000000)
(-0.00138943 -0.00239968 0.00000000)
(-0.00177493 -0.00176950 0.00000000)
(0.00032562 -0.00021822 0.00000000)
(0.00052111 0.00132683 0.00000000)
(0.00013496 0.00103342 0.00000000)
(-0.00029677 -0.00099511 0.00000000)
(-0.00027468 -0.00295187 0.00000000)
(-0.00113236 -0.00425460 0.00000000)
(0.00406716 0.00103073 0.00000000)
(0.00591868 0.00543870 0.00000000)
(0.02310747 0.02104338 0.00000000)
(0.02929993 0.02701435 0.00000000)
(0.15174501 0.02402883 0.00000000)
(0.11296446 0.01009457 0.00000000)
(0.09954190 0.00375365 0.00000000)
(0.02372802 0.00412003 0.00000000)
(-0.02118736 0.01561132 0.00000000)
(-0.01295865 0.01300146 0.00000000)
(-0.00753068 0.01073058 0.00000000)
(-0.00777827 0.01148964 0.00000000)
(-0.00785963 0.01378685 0.00000000)
(-0.00943797 0.01620125 0.00000000)
(-0.01076124 0.01840849 0.00000000)
(-0.01171768 0.01972722 0.00000000)
(-0.01250527 0.02130607 0.00000000)
(-0.01397743 0.02366899 0.00000000)
(-0.01520748 0.02331582 0.00000000)
(-0.01489538 0.02261077 0.00000000)
(-0.01319875 0.01981740 0.00000000)
(-0.01131896 0.01397099 0.00000000)
(-0.00704713 0.00657056 0.00000000)
(-0.00096285 -0.00230131 0.00000000)
(0.00720097 -0.00954911 0.00000000)
(0.01506969 -0.01234365 0.00000000)
(0.02121086 -0.00848140 0.00000000)
(0.02116797 0.00007380 0.00000000)
(0.01583969 0.00192021 0.00000000)
(0.00833694 0.00170690 0.00000000)
(0.00085178 0.00175431 0.00000000)
(-0.00750865 0.00198405 0.00000000)
(-0.01673393 0.00217439 0.00000000)
(-0.02689325 0.00246035 0.00000000)
(-0.03802624 0.00270463 0.00000000)
(-0.04980300 0.00281996 0.00000000)
(-0.06194631 0.00297893 0.00000000)
(-0.07442227 0.00307922 0.00000000)
(-0.08694939 0.00314306 0.00000000)
(-0.09926039 0.00312565 0.00000000)
(-0.11126737 0.00310261 0.00000000)
(-0.12251034 0.00289970 0.00000000)
(-0.13257114 0.00271554 0.00000000)
(-0.14139337 0.00234702 0.00000000)
(-0.14875251 0.00201430 0.00000000)
(-0.15466581 0.00164872 0.00000000)
(-0.15904927 0.00130114 0.00000000)
(-0.16214796 0.00096752 0.00000000)
(-0.16387522 0.00060113 0.00000000)
(-0.16399236 0.00001701 0.00000000)
(-0.16247099 -0.00039418 0.00000000)
(-0.16013194 -0.00054827 0.00000000)
(-0.15747056 -0.00058609 0.00000000)
(-0.15466214 -0.00062572 0.00000000)
(-0.15167654 -0.00077391 0.00000000)
(-0.14803133 -0.00091572 0.00000000)
(-0.14429541 -0.00104985 0.00000000)
(-0.14082122 -0.00069364 0.00000000)
(-0.13818034 -0.00051707 0.00000000)
(-0.13537394 -0.00068135 0.00000000)
(-0.13229597 -0.00058791 0.00000000)
(-0.12919957 -0.00069418 0.00000000)
(-0.12604650 -0.00087372 0.00000000)
(-0.12204582 -0.00095635 0.00000000)
(-0.11815184 -0.00092012 0.00000000)
(-0.11414525 -0.00112255 0.00000000)
(-0.10987490 -0.00100803 0.00000000)
(-0.10556777 -0.00108179 0.00000000)
(-0.10081065 -0.00124298 0.00000000)
(-0.09581412 -0.00122088 0.00000000)
(-0.09072260 -0.00144475 0.00000000)
(-0.08534042 -0.00136928 0.00000000)
(-0.08123211 -0.00088020 0.00000000)
(-0.07769974 -0.00092897 0.00000000)
(-0.07392674 -0.00095435 0.00000000)
(-0.06981669 -0.00098194 0.00000000)
(-0.06574984 -0.00102877 0.00000000)
(-0.06252563 -0.00064809 0.00000000)
(-0.05949229 -0.00087736 0.00000000)
(-0.05507010 -0.00130063 0.00000000)
(-0.04998896 -0.00142363 0.00000000)
(-0.04592178 -0.00079409 0.00000000)
(-0.04251125 -0.00088315 0.00000000)
(-0.03896302 -0.00088424 0.00000000)
(-0.03601068 -0.00067955 0.00000000)
(-0.03306389 -0.00081963 0.00000000)
(-0.03011090 -0.00076418 0.00000000)
(-0.02788449 -0.00039989 0.00000000)
(-0.02693217 -0.00003791 0.00000000)
(-0.02652397 -0.00017470 0.00000000)
(-0.02536705 -0.00042687 0.00000000)
(-0.02397363 -0.00026373 0.00000000)
(-0.02399581 0.00014151 0.00000000)
(-0.02477676 0.00019928 0.00000000)
(-0.02527859 0.00017542 0.00000000)
(-0.02640628 0.00035956 0.00000000)
(-0.02838668 0.00045155 0.00000000)
(-0.03162969 0.00116571 0.00000000)
(-0.03736483 0.00153072 0.00000000)
(-0.04592914 0.00266539 0.00000000)
(-0.05870151 0.00380750 0.00000000)
(-0.07480653 0.00487240 0.00000000)
(-0.09016444 0.00436839 0.00000000)
(-0.09542225 0.00007172 0.00000000)
(-0.08307616 -0.01392056 0.00000000)
(-0.06814669 -0.03127182 0.00000000)
(-0.05327241 -0.03951099 0.00000000)
(-0.04582623 -0.03969706 0.00000000)
(-0.03237307 -0.03663819 0.00000000)
(-0.02108774 -0.02918826 0.00000000)
(-0.01669571 -0.02321218 0.00000000)
(-0.01051653 -0.01570540 0.00000000)
(-0.00710239 -0.01033848 0.00000000)
(-0.00196729 -0.00512825 0.00000000)
(-0.00023198 0.00009282 0.00000000)
(0.00204104 0.00366070 0.00000000)
(0.00392732 0.00499595 0.00000000)
(0.00654822 0.00546212 0.00000000)
(0.00935219 0.00638907 0.00000000)
(0.00790841 0.00063861 0.00000000)
(0.01813397 0.02387007 0.00000000)
(0.01249150 0.02058944 0.00000000)
(0.05099084 0.07431230 0.00000000)
(0.09914209 0.06368436 0.00000000)
(0.29291858 0.06315520 0.00000000)
(0.18199740 0.01804659 0.00000000)
(0.14794423 0.00676930 0.00000000)
(0.04940639 0.00434994 0.00000000)
(-0.02725691 0.02127975 0.00000000)
(-0.01752800 0.01801370 0.00000000)
(-0.01105569 0.01566785 0.00000000)
(-0.01093712 0.01633239 0.00000000)
(-0.01141087 0.01914622 0.00000000)
(-0.01316863 0.02210043 0.00000000)
(-0.01507462 0.02492991 0.00000000)
(-0.01683914 0.02695625 0.00000000)
(-0.01802745 0.02908336 0.00000000)
(-0.01915377 0.03165967 0.00000000)
(-0.02018034 0.03150485 0.00000000)
(-0.01956368 0.02930418 0.00000000)
(-0.01820332 0.02584374 0.00000000)
(-0.01544072 0.01835852 0.00000000)
(-0.01071950 0.00954708 0.00000000)
(-0.00418940 -0.00025635 0.00000000)
(0.00388553 -0.00815684 0.00000000)
(0.01175722 -0.01172282 0.00000000)
(0.01853920 -0.00764706 0.00000000)
(0.01847568 0.00075071 0.00000000)
(0.01260546 0.00298736 0.00000000)
(0.00389311 0.00277583 0.00000000)
(-0.00530418 0.00292546 0.00000000)
(-0.01554384 0.00329255 0.00000000)
(-0.02675508 0.00359860 0.00000000)
(-0.03897727 0.00402745 0.00000000)
(-0.05212147 0.00437461 0.00000000)
(-0.06585193 0.00453386 0.00000000)
(-0.07988269 0.00475492 0.00000000)
(-0.09407685 0.00485188 0.00000000)
(-0.10804102 0.00488911 0.00000000)
(-0.12154216 0.00481997 0.00000000)
(-0.13445175 0.00471179 0.00000000)
(-0.14618694 0.00433244 0.00000000)
(-0.15638098 0.00398123 0.00000000)
(-0.16512246 0.00340581 0.00000000)
(-0.17232129 0.00287818 0.00000000)
(-0.17788350 0.00229903 0.00000000)
(-0.18160857 0.00174240 0.00000000)
(-0.18401584 0.00124983 0.00000000)
(-0.18510672 0.00067650 0.00000000)
(-0.18448054 -0.00014556 0.00000000)
(-0.18226372 -0.00070965 0.00000000)
(-0.17930106 -0.00091929 0.00000000)
(-0.17606121 -0.00099121 0.00000000)
(-0.17267037 -0.00103785 0.00000000)
(-0.16906990 -0.00125824 0.00000000)
(-0.16487277 -0.00144595 0.00000000)
(-0.16064584 -0.00158472 0.00000000)
(-0.15676249 -0.00112706 0.00000000)
(-0.15347871 -0.00090425 0.00000000)
(-0.15001114 -0.00111453 0.00000000)
(-0.14623086 -0.00104804 0.00000000)
(-0.14253366 -0.00113433 0.00000000)
(-0.13866217 -0.00142177 0.00000000)
(-0.13413602 -0.00151771 0.00000000)
(-0.12974599 -0.00146809 0.00000000)
(-0.12511841 -0.00170980 0.00000000)
(-0.12027256 -0.00161753 0.00000000)
(-0.11538406 -0.00171250 0.00000000)
(-0.11000625 -0.00195928 0.00000000)
(-0.10432140 -0.00192066 0.00000000)
(-0.09869005 -0.00218744 0.00000000)
(-0.09300063 -0.00204929 0.00000000)
(-0.08846371 -0.00139540 0.00000000)
(-0.08441020 -0.00143805 0.00000000)
(-0.08003990 -0.00152460 0.00000000)
(-0.07524863 -0.00158429 0.00000000)
(-0.07079937 -0.00154234 0.00000000)
(-0.06719796 -0.00105248 0.00000000)
(-0.06357607 -0.00140997 0.00000000)
(-0.05869276 -0.00198092 0.00000000)
(-0.05336316 -0.00208917 0.00000000)
(-0.04879975 -0.00128106 0.00000000)
(-0.04477594 -0.00139588 0.00000000)
(-0.04096306 -0.00136348 0.00000000)
(-0.03762325 -0.00104475 0.00000000)
(-0.03439449 -0.00126427 0.00000000)
(-0.03119483 -0.00112975 0.00000000)
(-0.02887752 -0.00061549 0.00000000)
(-0.02768619 -0.00013067 0.00000000)
(-0.02695934 -0.00027741 0.00000000)
(-0.02567570 -0.00063109 0.00000000)
(-0.02437472 -0.00037443 0.00000000)
(-0.02446699 0.00022546 0.00000000)
(-0.02531610 0.00028961 0.00000000)
(-0.02580231 0.00024743 0.00000000)
(-0.02702585 0.00058935 0.00000000)
(-0.02953154 0.00081580 0.00000000)
(-0.03349833 0.00180194 0.00000000)
(-0.04011702 0.00248708 0.00000000)
(-0.04986498 0.00416448 0.00000000)
(-0.06378955 0.00580788 0.00000000)
(-0.08052011 0.00711666 0.00000000)
(-0.09499939 0.00592090 0.00000000)
(-0.09955424 -0.00018787 0.00000000)
(-0.08918215 -0.01621589 0.00000000)
(-0.07623505 -0.03555603 0.00000000)
(-0.06298726 -0.04681051 0.00000000)
(-0.05207363 -0.04916313 0.00000000)
(-0.04168703 -0.04850880 0.00000000)
(-0.03191895 -0.04508461 0.00000000)
(-0.02397966 -0.03661301 0.00000000)
(-0.02070776 -0.02809064 0.00000000)
(-0.00971158 -0.01824367 0.00000000)
(-0.00674344 -0.00988639 0.00000000)
(0.00086541 0.00043058 0.00000000)
(0.00728603 0.00809087 0.00000000)
(0.01181868 0.01460904 0.00000000)
(0.01670796 0.02093008 0.00000000)
(0.02000158 0.02520526 0.00000000)
(0.02349491 0.02972022 0.00000000)
(0.03437145 0.04694168 0.00000000)
(0.03941666 0.04834898 0.00000000)
(0.09383242 0.13101495 0.00000000)
(0.30900993 0.16232178 0.00000000)
(0.42650577 0.10665314 0.00000000)
(0.25954279 0.02962950 0.00000000)
(0.20193529 0.01163425 0.00000000)
(0.08310495 0.00372152 0.00000000)
(-0.02885598 0.02328558 0.00000000)
(-0.02229066 0.02295521 0.00000000)
(-0.01498092 0.02073681 0.00000000)
(-0.01392508 0.02117911 0.00000000)
(-0.01459204 0.02464757 0.00000000)
(-0.01658861 0.02809755 0.00000000)
(-0.01875691 0.03129634 0.00000000)
(-0.02095421 0.03365799 0.00000000)
(-0.02240164 0.03642044 0.00000000)
(-0.02391374 0.03828610 0.00000000)
(-0.02468840 0.03779776 0.00000000)
(-0.02382148 0.03535990 0.00000000)
(-0.02214022 0.03031766 0.00000000)
(-0.01911265 0.02217484 0.00000000)
(-0.01431610 0.01263147 0.00000000)
(-0.00810054 0.00227399 0.00000000)
(-0.00046168 -0.00620254 0.00000000)
(0.00720860 -0.01026481 0.00000000)
(0.01390098 -0.00628750 0.00000000)
(0.01371833 0.00172257 0.00000000)
(0.00723835 0.00421465 0.00000000)
(-0.00248172 0.00407771 0.00000000)
(-0.01312177 0.00437580 0.00000000)
(-0.02493409 0.00488892 0.00000000)
(-0.03772545 0.00532729 0.00000000)
(-0.05152999 0.00589768 0.00000000)
(-0.06613341 0.00634162 0.00000000)
(-0.08120412 0.00653311 0.00000000)
(-0.09649218 0.00680164 0.00000000)
(-0.11171306 0.00686158 0.00000000)
(-0.12638250 0.00682464 0.00000000)
(-0.14042393 0.00667611 0.00000000)
(-0.15355407 0.00642231 0.00000000)
(-0.16518705 0.00581337 0.00000000)
(-0.17494970 0.00525701 0.00000000)
(-0.18321605 0.00445422 0.00000000)
(-0.18986511 0.00371301 0.00000000)
(-0.19470416 0.00287010 0.00000000)
(-0.19763013 0.00209111 0.00000000)
(-0.19925109 0.00144570 0.00000000)
(-0.19968628 0.00065826 0.00000000)
(-0.19850549 -0.00040166 0.00000000)
(-0.19568959 -0.00113045 0.00000000)
(-0.19218352 -0.00137716 0.00000000)
(-0.18845096 -0.00149126 0.00000000)
(-0.18452903 -0.00154652 0.00000000)
(-0.18049089 -0.00183336 0.00000000)
(-0.17595687 -0.00205354 0.00000000)
(-0.17137315 -0.00218051 0.00000000)
(-0.16718184 -0.00164662 0.00000000)
(-0.16330824 -0.00139326 0.00000000)
(-0.15931861 -0.00164042 0.00000000)
(-0.15505898 -0.00161766 0.00000000)
(-0.15077091 -0.00166836 0.00000000)
(-0.14636110 -0.00205599 0.00000000)
(-0.14149861 -0.00215451 0.00000000)
(-0.13672577 -0.00210941 0.00000000)
(-0.13160582 -0.00238547 0.00000000)
(-0.12634102 -0.00232684 0.00000000)
(-0.12102090 -0.00244315 0.00000000)
(-0.11522995 -0.00277393 0.00000000)
(-0.10909748 -0.00272686 0.00000000)
(-0.10316676 -0.00299510 0.00000000)
(-0.09738302 -0.00277764 0.00000000)
(-0.09250989 -0.00199511 0.00000000)
(-0.08805894 -0.00202296 0.00000000)
(-0.08324193 -0.00219662 0.00000000)
(-0.07798883 -0.00226762 0.00000000)
(-0.07327920 -0.00211455 0.00000000)
(-0.06942664 -0.00153358 0.00000000)
(-0.06532990 -0.00202736 0.00000000)
(-0.06017552 -0.00272009 0.00000000)
(-0.05474775 -0.00280492 0.00000000)
(-0.04976407 -0.00187995 0.00000000)
(-0.04525638 -0.00196752 0.00000000)
(-0.04132424 -0.00188333 0.00000000)
(-0.03774629 -0.00146697 0.00000000)
(-0.03439723 -0.00174428 0.00000000)
(-0.03109597 -0.00152474 0.00000000)
(-0.02872144 -0.00086252 0.00000000)
(-0.02731860 -0.00026365 0.00000000)
(-0.02628690 -0.00040536 0.00000000)
(-0.02487950 -0.00084688 0.00000000)
(-0.02373870 -0.00047464 0.00000000)
(-0.02384261 0.00031566 0.00000000)
(-0.02469439 0.00037769 0.00000000)
(-0.02527042 0.00033783 0.00000000)
(-0.02659367 0.00086415 0.00000000)
(-0.02950486 0.00127450 0.00000000)
(-0.03416692 0.00254686 0.00000000)
(-0.04148458 0.00361886 0.00000000)
(-0.05191847 0.00580552 0.00000000)
(-0.06628909 0.00796960 0.00000000)
(-0.08288184 0.00936986 0.00000000)
(-0.09622356 0.00738423 0.00000000)
(-0.10035833 -0.00030734 0.00000000)
(-0.09218319 -0.01785639 0.00000000)
(-0.08105156 -0.03851940 0.00000000)
(-0.06857209 -0.05190603 0.00000000)
(-0.05672715 -0.05591731 0.00000000)
(-0.04636994 -0.05628892 0.00000000)
(-0.03905416 -0.05262004 0.00000000)
(-0.02818841 -0.04541140 0.00000000)
(-0.02226018 -0.03439894 0.00000000)
(-0.01532515 -0.02374363 0.00000000)
(-0.00780159 -0.01194178 0.00000000)
(0.00463886 0.00179976 0.00000000)
(0.01165861 0.01533905 0.00000000)
(0.02158804 0.02706129 0.00000000)
(0.02994648 0.03972781 0.00000000)
(0.03759133 0.05135295 0.00000000)
(0.04328914 0.06080056 0.00000000)
(0.06934395 0.08941423 0.00000000)
(0.08459218 0.10040441 0.00000000)
(0.19708360 0.22014996 0.00000000)
(0.47119060 0.26263401 0.00000000)
(0.51581972 0.14136033 0.00000000)
(0.33789205 0.04459518 0.00000000)
(0.25925964 0.01757636 0.00000000)
(0.12351571 0.00402386 0.00000000)
(-0.02288695 0.02232888 0.00000000)
(-0.02818445 0.02756970 0.00000000)
(-0.01894427 0.02547182 0.00000000)
(-0.01699089 0.02581315 0.00000000)
(-0.01774857 0.03001028 0.00000000)
(-0.01983268 0.03356223 0.00000000)
(-0.02227838 0.03705268 0.00000000)
(-0.02473003 0.03972274 0.00000000)
(-0.02621848 0.04270393 0.00000000)
(-0.02755269 0.04374814 0.00000000)
(-0.02833636 0.04279421 0.00000000)
(-0.02744671 0.04002937 0.00000000)
(-0.02560086 0.03439983 0.00000000)
(-0.02262174 0.02594332 0.00000000)
(-0.01811035 0.01588887 0.00000000)
(-0.01227018 0.00496674 0.00000000)
(-0.00521530 -0.00394118 0.00000000)
(0.00190407 -0.00830459 0.00000000)
(0.00805566 -0.00452460 0.00000000)
(0.00757280 0.00299151 0.00000000)
(0.00040783 0.00559076 0.00000000)
(-0.01016071 0.00559915 0.00000000)
(-0.02203811 0.00608979 0.00000000)
(-0.03508178 0.00674008 0.00000000)
(-0.04908302 0.00732278 0.00000000)
(-0.06399554 0.00801638 0.00000000)
(-0.07958016 0.00854899 0.00000000)
(-0.09548572 0.00875426 0.00000000)
(-0.11150099 0.00904868 0.00000000)
(-0.12724672 0.00903146 0.00000000)
(-0.14209716 0.00887234 0.00000000)
(-0.15615673 0.00862076 0.00000000)
(-0.16894500 0.00815536 0.00000000)
(-0.18000347 0.00727457 0.00000000)
(-0.18912409 0.00648636 0.00000000)
(-0.19668268 0.00545842 0.00000000)
(-0.20269119 0.00448249 0.00000000)
(-0.20674602 0.00333988 0.00000000)
(-0.20882564 0.00234012 0.00000000)
(-0.20977484 0.00154973 0.00000000)
(-0.20960364 0.00055834 0.00000000)
(-0.20791757 -0.00074348 0.00000000)
(-0.20461641 -0.00164976 0.00000000)
(-0.20069762 -0.00191834 0.00000000)
(-0.19656635 -0.00207908 0.00000000)
(-0.19221773 -0.00214263 0.00000000)
(-0.18773460 -0.00249164 0.00000000)
(-0.18294126 -0.00271584 0.00000000)
(-0.17816584 -0.00282825 0.00000000)
(-0.17371121 -0.00224666 0.00000000)
(-0.16942199 -0.00197633 0.00000000)
(-0.16502690 -0.00225444 0.00000000)
(-0.16029898 -0.00228107 0.00000000)
(-0.15559066 -0.00229321 0.00000000)
(-0.15072549 -0.00275722 0.00000000)
(-0.14566901 -0.00285308 0.00000000)
(-0.14055865 -0.00283914 0.00000000)
(-0.13504241 -0.00314677 0.00000000)
(-0.12950035 -0.00312047 0.00000000)
(-0.12385715 -0.00325235 0.00000000)
(-0.11783899 -0.00366138 0.00000000)
(-0.11141700 -0.00361395 0.00000000)
(-0.10525441 -0.00385733 0.00000000)
(-0.09947145 -0.00353715 0.00000000)
(-0.09439013 -0.00267040 0.00000000)
(-0.08957015 -0.00268264 0.00000000)
(-0.08444998 -0.00295234 0.00000000)
(-0.07895264 -0.00300876 0.00000000)
(-0.07409533 -0.00274004 0.00000000)
(-0.06997119 -0.00208994 0.00000000)
(-0.06551076 -0.00270498 0.00000000)
(-0.06024813 -0.00349863 0.00000000)
(-0.05476755 -0.00356888 0.00000000)
(-0.04947629 -0.00259009 0.00000000)
(-0.04462989 -0.00258203 0.00000000)
(-0.04063022 -0.00243062 0.00000000)
(-0.03690532 -0.00194305 0.00000000)
(-0.03352194 -0.00223671 0.00000000)
(-0.03021151 -0.00194583 0.00000000)
(-0.02780706 -0.00113452 0.00000000)
(-0.02622320 -0.00043918 0.00000000)
(-0.02488595 -0.00057098 0.00000000)
(-0.02335249 -0.00106756 0.00000000)
(-0.02234286 -0.00056405 0.00000000)