0.999999999999999 	0.449997695971761 	2.25514051876985e-17 	0.131950175469077 	0.0118118850417674 	1.97055505645738 	0.000492018435353803 	0
0.999999999999999 	0.472328312412878 	2.08166817117217e-17 	0.131795190609894 	0.0121257598670132 	1.92476805307171 	0.000540914380778909 	0
0.999999999999999 	0.495455155266985 	1.82145964977565e-17 	0.131663976152763 	0.0124337378856503 	1.88483938440669 	0.00059952816968432 	0
0.999999999999999 	0.519405550178648 	1.99493199737333e-17 	0.131560759049928 	0.0127429765040866 	1.8520676658255 	0.000669339386329571 	0
0.999999999999999 	0.544207658806487 	1.38777878078145e-17 	0.131504021046977 	0.0130771781607542 	1.83047176409643 	0.000756953155879083 	0
0.999999999999999 	0.569890493478739 	6.93889390390723e-18 	0.13148912896819 	0.0134530017053187 	1.8272393295763 	0.000868444955568459 	0
0.999999999999999 	0.596483930684325 	8.67361737988404e-18 	0.131517999965819 	0.0139045517393185 	1.85711638197065 	0.00102101932421153 	0
0.999999999999999 	0.624018723154592 	1.69135538907739e-17 	0.131604213583734 	0.0144911924302078 	1.94608095161489 	0.00124698058029054 	0
0.999999999999999 	0.643549881084342 	2.21177243187043e-17 	0.131703965330373 	0.0150012674691787 	2.04730055755216 	0.00146734793724275 	0
0.999999999999999 	0.658193023378523 	2.08166817117217e-17 	0.131804496627208 	0.0154494664009116 	2.14561974858336 	0.00168086303612119 	0
0.999999999999999 	0.682546902934367 	2.25514051876985e-17 	0.132016810651501 	0.016347217393876 	2.34624688714913 	0.00215261125190816 	0
0.999999999999999 	0.713534132700576 	1.90819582357449e-17 	0.132383862645172 	0.0179127189048492 	2.69415608339441 	0.0030806061383625 	0
0.999999999999999 	0.745570193524213 	1.32272665043232e-17 	0.132885235668583 	0.0203243905470272 	3.20908103052789 	0.00470954179988874 	0
0.999999999999999 	0.778686163997253 	1.32272665043232e-17 	0.133533187731401 	0.0242080425774283 	3.9539621696631 	0.00783308409704912 	0
0.999999999999999 	0.812913597104416 	1.21430643318376e-17 	0.13431470908424 	0.0303742147151763 	4.93153273696619 	0.0140969787396695 	0
0.999999999999999 	0.848284472477359 	8.67361737988404e-18 	0.135207793013285 	0.0388918989538973 	6.03188663067412 	0.0251154945132888 	0
0.999999999999999 	0.873389929326901 	6.93889390390723e-18 	0.135911455034486 	0.0458340883191491 	6.80848355474977 	0.0359185278818104 	0
0.999999999999999 	0.892070151209768 	1.04083408558608e-17 	0.136488721920468 	0.0512622060061999 	7.35846311503876 	0.0456287676441701 	0
0.999999999999999 	0.922964286038771 	8.67361737988404e-18 	0.137571806965241 	0.0600648196604862 	8.1888290174107 	0.0634054169649978 	0
0.999999999999999 	0.962257176026752 	2.60208521396521e-18 	0.139275882155996 	0.0699122735494523 	9.01261454170161 	0.0866601600387683 	0
0.999999999999999 	1.00277331557639 	8.67361737988404e-19 	0.141427348954559 	0.0761403869084053 	9.34319271703566 	0.101124694098582 	0
0.999999999999999 	1.04453981133202 	1.73472347597681e-18 	0.143603645656373 	0.0772648876462451 	8.90658987655761 	0.0945366253019963 	0
0.999999999999999 	1.08027132202651 	1.04083408558608e-17 	0.145053511681271 	0.0757702563932136 	8.10804030287119 	0.0779911996009898 	0
0.999999999999999 	1.10214869708338 	1.56125112837913e-17 	0.145755775397556 	0.0743552155625515 	7.52248911685108 	0.0660791604910542 	0
0.999999999999999 	1.13207630124032 	1.73472347597681e-17 	0.146439087154818 	0.072205598065758 	6.69237038381717 	0.0506679088460581 	0
0.999999999999999 	1.17788033770643 	1.73472347597681e-17 	0.147044067811481 	0.0690313979671801 	5.50100176710232 	0.032149057421775 	0
0.999999999999999 	1.22497153494281 	1.90819582357449e-17 	0.14719314671043 	0.0662496026522481 	4.57758048666892 	0.0222759031623155 	0
0.999999999999999 	1.27299998838029 	1.90819582357449e-17 	0.147192983868394 	0.0633864836362313 	3.91080164733775 	0.0174268380181402 	0
0.999999999999999 	1.29752687504588 	1.38777878078145e-17 	0.147203711786447 	0.061828950767977 	3.62297054246012 	0.0156433036950015 	0
1 	1.32310082623571 	1.38777878078145e-17 	0.147262791679812 	0.0599943948710883 	3.38723432780756 	0.0143202739423236 	0
1 	1.37415332039112 	1.73472347597681e-17 	0.147470922017451 	0.0560216418032959 	2.98908451450174 	0.0120109576014061 	0
1 	1.41220272459524 	2.08166817117217e-17 	0.147812653407282 	0.0523976611545237 	2.75686724131292 	0.0103253997788305 	0
1 	1.43617694926586 	2.08166817117217e-17 	0.148002917459566 	0.0500317390050884 	2.62836783187336 	0.00928655111004035 	0
1 	1.45930396367274 	2.08166817117217e-17 	0.148214594096691 	0.047724348938616 	2.5160595983937 	0.00829208063799229 	0
1 	1.48161370685419 	2.08166817117217e-17 	0.148436950783792 	0.0454885312881633 	2.41690507895516 	0.00734796715992762 	0
0.999999999999999 	1.50313505985141 	2.08166817117217e-17 	0.148660786059974 	0.043343366149743 	2.32954218378451 	0.00646419524308449 	0
1 	1.52389588309638 	1.73472347597681e-17 	0.148882748375842 	0.0413008734226446 	2.25302242505623 	0.00564757379610291 	0
1 	1.54392305247857 	1.73472347597681e-17 	0.149100523401294 	0.039367265055879 	2.18660938635809 	0.00490130222661546 	0
1 	1.56324249413703 	2.08166817117217e-17 	0.149312262391857 	0.0375442826471968 	2.12969020348459 	0.0042254970168013 	0
1 	1.58187921802306 	1.73472347597681e-17 	0.149516640654356 	0.0358304291352384 	2.08174100107489 	0.00361798806577323 	0
1 	1.59985735027679 	1.04083408558608e-17 	0.149712765194745 	0.0342220086387742 	2.0423160287038 	0.00307508740936174 	0
1 	1.61720016445966 	6.93889390390723e-18 	0.14990007396451 	0.0327139544030688 	2.01104635305901 	0.00259223523545674 	0
1 	1.63393011168312 	6.93889390390723e-18 	0.150078259828878 	0.031300458726752 	1.98764197571304 	0.00216450276774455 	0
1 	1.65006884967273 	6.93889390390723e-18 	0.150247210088705 	0.0299754333616537 	1.97189499718572 	0.00178696172159936 	0
1 	1.66563727080512 	6.93889390390723e-18 	0.150406957466714 	0.0287328328399226 	1.96368311773237 	0.00145494201351447 	0
1 	1.68065552915414 	6.93889390390723e-18 	0.150557641214257 	0.027566871675076 	1.96297346815832 	0.00116420223583008 	0
1 	1.69514306658136 	6.93889390390723e-18 	0.15069947691186 	0.0264721623963865 	1.96982703589525 	0.000911035995443282 	0
1 	1.70911863790442 	6.93889390390723e-18 	0.150832733415724 	0.0254437965766291 	1.98440403857107 	0.000692334067468055 	0
1 	1.7226003351761 	6.93889390390723e-18 	0.150957715502197 	0.02447738628805 	2.00697060817716 	0.000505618652559801 	0
1 	1.73560561110536 	1.04083408558608e-17 	0.151074750943779 	0.0235690791953067 	2.03790712966714 	0.000349062462380608 	0
1 	1.74815130165068 	1.38777878078145e-17 	0.151184180957087 	0.0227155569207856 	2.07771854546171 	0.000221502175442509 	0
1 	1.76025364781502 	1.38777878078145e-17 	0.151286353169805 	0.0219140233974607 	2.12704689475756 	0.000122453082465366 	0
1 	1.77192831667064 	1.04083408558608e-17 	0.151381616442741 	0.0211621875773488 	2.18668629866865 	5.21294207584974e-05 	0
1 	1.78319042164083 	6.93889390390723e-18 	0.151470317045135 	0.0204582429734504 	2.25760051878914 	1.14728446819617e-05 	0
1 	1.79405454206499 	6.93889390390723e-18 	0.151552795814243 	0.0198008449579581 	2.3409430939862 	2.18951686334523e-06 	0
1 	1.80453474207227 	1.04083408558608e-17 	0.151629386035923 	0.0191890854138036 	2.43807988288846 	2.67942505430788e-05 	0
1 	1.81464458878828 	1.04083408558608e-17 	0.151700411864695 	0.0186224631665206 	2.5506135945626 	8.86578424978385e-05 	0
1 	1.8243971698984 	6.93889390390723e-18 	0.151766187162929 	0.0181008475816738 	2.68040957280235 	0.000192051159354369 	0
1 	1.83380511059041 	3.46944695195361e-18 	0.151827014682641 	0.0176244318356771 	2.82962172500771 	0.000342176806230602 	0
1 	1.84288058989839 	0 	0.151883185542336 	0.0171936717710012 	3.00071710398402 	0.000545176722211751 	0
1 	1.85163535646909 	0 	0.151934978967533 	0.0168092061373949 	3.19649736231376 	0.000808102588387058 	0
1 	1.86008074377113 	0 	0.151982662268587 	0.016471754684793 	3.42011527578855 	0.00113883666506349 	0
1 	1.8682276847667 	0 	0.152026491024621 	0.0161819923232557 	3.6750850186249 	0.00154595499487404 	0
1 	1.8760867260648 	0 	0.152066709429915 	0.0159404006262621 	3.96528615779129 	0.00203853403210841 	0
1 	1.88366804157438 	0 	0.152103550741516 	0.0157471022931075 	4.29496367658493 	0.00262591601043718 	0
1 	1.89098144567491 	-6.93889390390723e-18 	0.152137237748081 	0.0156016893223984 	4.66872984534724 	0.00331746636631243 	0
1 	1.89803640592158 	-6.93889390390723e-18 	0.152167983164773 	0.0155030605390001 	5.09157823990835 	0.00412237473362184 	0
1 	1.90484205530155 	0 	0.152195989852692 	0.0154492872524251 	5.56892509015236 	0.00504956406269671 	0
1 	1.91140720405698 	-6.93889390390723e-18 	0.152221450768469 	0.0154375256223546 	6.10669752498552 	0.00610777472027048 	0
1 	1.91774035109035 	-1.38777878078145e-17 	0.152244548570417 	0.0154639897406459 	6.71149123088966 	0.00730587857866491 	0
1 	1.9238496949667 	-1.38777878078145e-17 	0.152265454828146 	0.0155239906562814 	7.39082104212084 	0.00865345284870225 	0
1 	1.92974314452705 	-1.38777878078145e-17 	0.15228432879588 	0.0156120351327861 	8.15348738423017 	0.0101616099301491 	0
1 	1.9354283291268 	-1.04083408558608e-17 	0.152301315864546 	0.0157219664495396 	9.01008074812326 	0.0118440453992852 	0
1 	1.9409126085123 	-6.93889390390723e-18 	0.152316546362645 	0.0158471208398781 	9.97364792345994 	0.013718237802181 	0
1 	1.94620308234835 	-6.93889390390723e-18 	0.152330134694184 	0.0159804692657197 	11.0605506797151 	0.0158067132609268 	0
1 	1.95130659940914 	-6.93889390390723e-18 	0.152342171057859 	0.016114716002822 	12.2915633550891 	0.0181382723677195 	0
1 	1.95622976644424 	-6.93889390390723e-18 	0.152352697734165 	0.0162423327325578 	13.6932835958649 	0.0207492626395684 	0
1 	1.96097895673142 	-6.93889390390723e-18 	0.152361758427556 	0.0163555154136563 	15.2999830467597 	0.023703921178049 	0
1 	1.96556031832711 	-1.04083408558608e-17 	0.152369836850804 	0.0164457376892444 	17.1572335565548 	0.0271636369693682 	0
1 	1.96997978202541 	-1.38777878078145e-17 	0.152377055375991 	0.0165013206086784 	19.3303023211828 	0.0310934106582262 	0
1 	1.97424306903575 	-1.38777878078145e-17 	0.152382994993769 	0.0165081410767459 	21.8994780635732 	0.0356977833443902 	0
1 	1.9783556983893 	-2.08166817117217e-17 	0.152387484950594 	0.016445862611402 	24.9527987579639 	0.040956277010532 	0
1 	1.98232299408358 	-2.77555756156289e-17 	0.15239041762792 	0.0162887040398822 	28.5998521441038 	0.0468854069768015 	0
1 	1.9861500919747 	-2.77555756156289e-17 	0.152391719188229 	0.0160042454878343 	32.9840022234546 	0.0534788431961223 	0
1 	1.9898419464259 	-2.77555756156289e-17 	0.152391396263519 	0.0155512895587445 	38.2967704873963 	0.0606423305573234 	0
1 	1.99340333672127 	-2.77555756156289e-17 	0.152389580480272 	0.0148774742409499 	44.8005841780805 	0.0680677722169505 	0
1 	1.99683887325274 	-2.08166817117217e-17 	0.1523865400575 	0.0139187516984988 	52.8693656735121 	0.0751122790451773 	0
1 	2.00015300348845 	-1.73472347597681e-17 	0.152382645310589 	0.0126031626158237 	63.0727843077636 	0.0805953198585195 	0
1 	2.00335001773022 	-2.08166817117217e-17 	0.152378315679552 	0.0108638797503133 	76.3789720708953 	0.082581024726534 	0
1 	2.00643405466757 	-2.42861286636753e-17 	0.152373954119096 	0.0086688669631112 	94.6822921116705 	0.0785121827927899 	0
1 	2.00940910673542 	-2.77555756156289e-17 	0.152370006457801 	0.00605469580730901 	122.253760481071 	0.0602682469254767 	0
1 	2.01227902528252 	-2.08166817117217e-17 	0.152366952292184 	0.00342382759841267 	170.170659895692 	0.0328097921043806 	0
1 	2.01504752555717 	-1.38777878078145e-17 	0.152364853588232 	0.00143329929302231 	272.766190417231 	0.0104182489972593 	0
1 	2.01771819151684 	-1.38777878078145e-17 	0.15236325106732 	0.000398507595651948 	557.681465697936 	0.00160228421122344 	0
1 	2.02029448046774 	-1.38777878078145e-17 	0.152361657863776 	5.69221171386546e-05 	1705.30302795434 	8.88551247399102e-05 	0
1 	2.02277972754047 	-2.08166817117217e-17 	0.152360188772794 	2.22195085512405e-06 	9502.78063828596 	1.22421650229082e-06 	2.8044426442311e-39
