3 	0.00391112967796268 	1.04083408558608e-17 	0.105696984022956 	3.0114742005565e-05 	783.248199726974 	1.10602946669844e-05 	4.70295684873143e-38
3 	0.0118766651674915 	1.04083408558608e-17 	0.10569538780715 	0.000287286087264474 	290.781655426046 	0.000141857064937912 	0
3 	0.0201340015485761 	0 	0.105694421511407 	0.00122864683555279 	68.4795001564445 	0.000524984447388757 	0
3 	0.0286938283423949 	0 	0.105687189086358 	0.00304488916007951 	28.0981057077929 	0.000741253733488108 	0
3 	0.0375672266585908 	6.93889390390723e-18 	0.105671656610365 	0.00523496748627576 	15.1067567730939 	0.000439660921362468 	0
3 	0.0467656835403032 	3.46944695195361e-18 	0.105647007942452 	0.00730592235740269 	9.76059195216712 	0.000121155199299042 	0
3 	0.0563011068347005 	-3.46944695195361e-18 	0.105613742527556 	0.00912695027857316 	7.1530822002846 	2.87290062835234e-05 	0
3 	0.0661858406082648 	3.46944695195361e-18 	0.105573270486301 	0.010735480755477 	5.67766712171431 	7.08280597626825e-05 	0
3 	0.0764326811267817 	1.38777878078145e-17 	0.105526973048776 	0.012187505951208 	4.74396321262383 	0.000164943242112828 	0
3 	0.0870548934207257 	1.38777878078145e-17 	0.105475833197121 	0.0135257400020554 	4.10463989218631 	0.000279975412501792 	0
3 	0.0980662284574838 	2.77555756156289e-17 	0.105420544041254 	0.0147800840923796 	3.6418160962324 	0.000405324664060802 	0
3 	0.109480940942647 	3.81639164714898e-17 	0.105361649080704 	0.0159716536875758 	3.29301932145555 	0.000537429914159365 	0
3 	0.121313807773417 	3.12250225675825e-17 	0.10529960638277 	0.0171158041458645 	3.02226995083976 	0.00067531681893628 	0
3 	0.13358014716801 	3.12250225675825e-17 	0.105234816460205 	0.0182240695105045 	2.80745086980882 	0.000819063120259261 	0
3 	0.146295838495838 	2.77555756156289e-17 	0.105167640140693 	0.0193053842359621 	2.63424534153509 	0.000969225840921424 	0
3 	0.159477342834115 	2.42861286636753e-17 	0.105098411652194 	0.0203668663418843 	2.49299323988558 	0.00112661414143965 	0
3 	0.173141724277517 	2.42861286636753e-17 	0.105027448037467 	0.0214143324548235 	2.3769535274766 	0.00129219778579513 	0
3 	0.183614095490672 	2.3635607360184e-17 	0.104973757848213 	0.0221876432343431 	2.30343990653116 	0.0014210278926012 	0
3 	0.190823961865322 	2.71050543121376e-17 	0.10493724310945 	0.0227050789347903 	2.26015763438334 	0.00151090892980515 	0
3 	0.201990523296728 	3.12250225675825e-17 	0.104881538807787 	0.0234859661596002 	2.20233632360443 	0.00165234787691567 	0
3 	0.217212287037675 	3.12250225675825e-17 	0.104807194700185 	0.0245178319920384 	2.13760307618643 	0.00184943861863156 	0
3 	0.232991668560441 	2.77555756156289e-17 	0.104732336296644 	0.0255514347022125 	2.08508078757467 	0.00205981361315734 	0
3 	0.249349095037321 	3.12250225675825e-17 	0.104657290946777 	0.0265896313506842 	2.04323847769436 	0.00228509425374302 	0
3 	0.266305741947753 	3.12250225675825e-17 	0.10458240959964 	0.0276350108998613 	2.01090554000166 	0.00252707413501496 	0
3 	0.283883560490998 	2.77555756156289e-17 	0.104508077275923 	0.0286899429190045 	1.9871894171094 	0.00278774247232445 	0
3 	0.30210530600303 	3.46944695195361e-17 	0.104434726009462 	0.0297566135016737 	1.97141751995043 	0.00306931083237524 	0
3 	0.320994567414414 	3.46944695195361e-17 	0.104362850851948 	0.0308370515794624 	1.96309600386118 	0.00337424349352302 	0
3 	0.340575797787321 	3.46944695195361e-17 	0.104293029605291 	0.0319331479523714 	1.96188060881248 	0.00370529187273648 	0
3 	0.360874345971201 	4.85722573273506e-17 	0.104225947010026 	0.0330466687832965 	1.96755641008611 	0.00406553348359202 	0
3 	0.38191648941809 	5.55111512312578e-17 	0.104162424027008 	0.0341792649097301 	1.98002438598085 	0.00445841579788761 	0
3 	0.403729468200046 	4.85722573273506e-17 	0.104103452568014 	0.0353324780239323 	1.99929340500266 	0.00488780502433916 	0
3 	0.426341520272733 	4.16333634234434e-17 	0.104050237240356 	0.0365077444857168 	2.02547668762735 	0.00535803879186413 	0
3 	0.449781918030829 	3.81639164714898e-17 	0.104004252037366 	0.0377063971829309 	2.05879207016894 	0.00587398008397675 	0
3 	0.474081006202548 	4.16333634234434e-17 	0.103967317404931 	0.0389296653473402 	2.09956551111169 	0.0064410709427367 	0
3 	0.499270241132363 	4.16333634234434e-17 	0.103941617063202 	0.0401786712920526 	2.14823720838495 	0.00706539115077983 	0
3 	0.525382231502763 	3.46944695195361e-17 	0.103929431138787 	0.0414544204310045 	2.20536935342561 	0.00775371154868971 	0
3 	0.552450780547768 	3.81639164714898e-17 	0.103933162901126 	0.0427575860484177 	2.27165396858822 	0.00851345938808706 	0
3 	0.58051092981285 	4.5102810375397e-17 	0.103959713522584 	0.0440878473702626 	2.34791835423161 	0.00937566353306614 	0
3 	0.609599004517911 	4.85722573273506e-17 	0.1040281394497 	0.045447491956661 	2.43525550501454 	0.0104724327173615 	0
3 	0.639752660582033 	5.20417042793042e-17 	0.104147407077179 	0.0468488634483266 	2.53567022068804 	0.0118416163885328 	0
3 	0.671010933370887 	5.55111512312578e-17 	0.104313750034949 	0.0483063430742553 	2.65093961994656 	0.0135255423374835 	0
3 	0.703414288229901 	5.89805981832114e-17 	0.104530982409362 	0.0497934366451818 	2.7784286594933 	0.0154336411779077 	0
3 	0.737004672868606 	6.24500451351651e-17 	0.104801495689532 	0.0512294873310901 	2.90879104510077 	0.017333888732905 	0
3 	0.771825571663976 	5.89805981832114e-17 	0.105130626752899 	0.0525084698601436 	3.02861822339501 	0.019042282289619 	0
3 	0.807922061953054 	5.55111512312578e-17 	0.105522053304821 	0.053530160510159 	3.12620721862476 	0.0204413241335899 	0
3 	0.845340872387743 	5.20417042793042e-17 	0.105973911336133 	0.0542160418549606 	3.19522412595684 	0.0214526321361773 	0
3 	0.884130443427309 	5.55111512312578e-17 	0.106479623139985 	0.0545103276771663 	3.23353682921954 	0.0220149431248625 	0
3 	0.924340990046898 	5.89805981832114e-17 	0.10703159365421 	0.0543772845069419 	3.2405918768045 	0.0220831442121256 	0
3 	0.966024566743242 	5.6920614055489e-17 	0.107624929420945 	0.0538009986148345 	3.21597769540633 	0.0216372420460079 	0
3 	1.00923513492173 	5.908901840046e-17 	0.108261834916172 	0.0527789494946697 	3.15850873124261 	0.0206770781993181 	0
3 	1.05402863275206 	6.07153216591882e-17 	0.108944608713742 	0.0513488210038857 	3.06808727437206 	0.0192464752404251 	0
3 	1.10046304758287 	6.54858112181245e-17 	0.109676573904519 	0.0495784415755354 	2.94575034248075 	0.0174212574505124 	0
3 	1.14859849100923 	7.02563007770607e-17 	0.110459281531607 	0.0475665215967674 	2.79473725509361 	0.0153221524840576 	0
3 	1.19849727668995 	6.85215773010839e-17 	0.111287945061266 	0.0454396687200622 	2.62169354834177 	0.0131283395992873 	0
3 	1.25022400101563 	6.24500451351651e-17 	0.11216029093853 	0.0433254665026409 	2.43587163518691 	0.0110498562294083 	0
3 	1.30384562673186 	5.72458747072346e-17 	0.113101989947127 	0.0413129196031043 	2.24626015586157 	0.00924159977339535 	0
3 	1.35943156962566 	5.72458747072346e-17 	0.114112953217454 	0.0394274596340964 	2.05850576748579 	0.00759339877882282 	0
3 	1.41705378838763 	6.07153216591882e-17 	0.115143141992023 	0.0376865605337044 	1.87839074217042 	0.00621615871595698 	0
3 	1.47678687776592 	5.89805981832114e-17 	0.116168646272882 	0.0360898440284644 	1.71242626187737 	0.00507244060243386 	0
3 	1.53870816513278 	6.24500451351651e-17 	0.117189866910305 	0.0346013084324134 	1.56257377436697 	0.00415633744450603 	0
3 	1.60289781058851 	7.28583859910259e-17 	0.118210001926339 	0.033157664236554 	1.42609996610033 	0.00344091943851168 	0
3 	1.66943891073267 	7.97972798949331e-17 	0.119230173589839 	0.0316960654929943 	1.30160264992977 	0.00288031147725012 	0
3 	1.71135564625027 	8.32667268468867e-17 	0.119856492522902 	0.030774624117858 	1.23062908464317 	0.00258551817270735 	0
3 	1.74646535410267 	7.97972798949331e-17 	0.12036315070672 	0.0299942239914155 	1.1785663423482 	0.00237968072654371 	0
3 	1.8099231933566 	7.63278329429795e-17 	0.121254606657552 	0.0285645903030114 	1.09340992290444 	0.00204317015260365 	0
3 	1.88404823953249 	7.63278329429795e-17 	0.122245810902586 	0.02685573195706 	1.00949671034744 	0.00170572505506181 	0
3 	1.96088870322038 	7.97972798949331e-17 	0.123170021535021 	0.0251170962605789 	0.938994793526028 	0.00140832931473906 	0
3 	2.02025965173185 	8.32667268468867e-17 	0.12387669215 	0.0236850240109836 	0.890652788954809 	0.00118442523729239 	0
3 	2.06006301192217 	7.97972798949331e-17 	0.124349310761134 	0.0226590435370806 	0.860167862470781 	0.0010407696979625 	0
3 	2.09845978584128 	7.63278329429795e-17 	0.124755721584628 	0.0217343621638216 	0.835484266193174 	0.000916866762256957 	0
3 	2.13549967996946 	7.63278329429795e-17 	0.125133631037326 	0.0208507598012072 	0.814320883053657 	0.000803481666859743 	0
3 	2.17123064424048 	7.28583859910259e-17 	0.125481336262924 	0.0200088283447207 	0.796453816102944 	0.000700426504224968 	0
3 	2.20569893411516 	6.93889390390723e-17 	0.125800460752784 	0.0192084770391896 	0.78170182793437 	0.000606968536722079 	0
3 	2.23894917046123 	6.93889390390723e-17 	0.126093042326471 	0.0184490713172766 	0.769918932927835 	0.000522469387725552 	0
3 	2.27102439731726 	6.93889390390723e-17 	0.126360901858844 	0.0177295657625308 	0.760990502506139 	0.000446309403698144 	0
3 	2.30196613761522 	6.93889390390723e-17 	0.126605753235269 	0.0170486251470833 	0.754831446970351 	0.000377900104501072 	0
3 	2.33181444693392 	6.59194920871187e-17 	0.126829240316226 	0.0164047285202735 	0.751385555216146 	0.000316699049681245 	0
3 	2.3606079653529 	6.59194920871187e-17 	0.127032931756636 	0.0157962550716259 	0.750625503636164 	0.000262219096673684 	0
3 	2.38838396747391 	6.59194920871187e-17 	0.127218318395649 	0.0152215527877939 	0.752553305083819 	0.000214035154847826 	0
3 	2.41517841067461 	6.59194920871187e-17 	0.127386813739485 	0.0146789919185203 	0.757201108837798 	0.000171789455994828 	0
3 	2.44102598165722 	6.93889390390723e-17 	0.127539755007798 	0.0141670055793625 	0.764632335022349 	0.000135195758970053 	0
3 	2.46596014135208 	6.93889390390723e-17 	0.127678404425313 	0.0136841197751635 	0.774943161639708 	0.000104042975164579 	0
3 	2.49001316823444 	6.93889390390723e-17 	0.12780395076777 	0.0132289748973733 	0.78826439572678 	7.81986504688565e-05 	0
3 	2.51321620011054 	6.93889390390723e-17 	0.127917511086175 	0.0128003404310691 	0.804763761521111 	5.76126208740416e-05 	0
3 	2.535599274427 	7.28583859910259e-17 	0.128020132525063 	0.0123971242619414 	0.824648632973474 	4.23210372266416e-05 	0
3 	2.55719136715571 	7.63278329429795e-17 	0.128112794171414 	0.0120183776306958 	0.8481692280177 	3.24508358456607e-05 	0
3 	2.57802043030466 	7.63278329429795e-17 	0.128196408889963 	0.011663296458186 	0.875622268988275 	2.82246110401484e-05 	0
3 	2.59811342810315 	7.97972798949331e-17 	0.128271825118049 	0.0113312194678044 	0.907355098429894 	2.99657205168565e-05 	0
3 	2.61749637190832 	8.32667268468867e-17 	0.128339828610235 	0.0110216232690256 	0.943770223708981 	3.81033271488759e-05 	0
3 	2.63619435387806 	7.63278329429795e-17 	0.128401144139608 	0.0107341143462602 	0.985330249984845 	5.3176959688337e-05 	0
3 	2.65423157945406 	7.28583859910259e-17 	0.128456437178087 	0.0104684177335387 	1.03256315389749 	7.58400801536526e-05 	0
3 	2.67163139869691 	7.63278329429795e-17 	0.128506315591882 	0.0102243620669464 	1.08606785715534 	0.000106862108758022 	0
3 	2.68841633651388 	7.63278329429795e-17 	0.128551331399371 	0.0100018607170894 	1.14652009056806 	0.000147128422888464 	0
3 	2.70460812181851 	7.97972798949331e-17 	0.128591982646276 	0.0098008888386174 	1.21467860838909 	0.000197638067582078 	0
3 	2.72022771565972 	8.32667268468867e-17 	0.128628715455706 	0.00962145645275211 	1.29139193507917 	0.000259499341389527 	0
3 	2.73529533835695 	8.32667268468867e-17 	0.128661926307109 	0.00946357810515145 	1.37760601530983 	0.000333924082585508 	0
3 	2.74983049567626 	8.32667268468867e-17 	0.128691964587156 	0.00932724018890924 	1.47437340054175 	0.000422222360002395 	0
3 	2.76385200408157 	7.63278329429795e-17 	0.128719135436774 	0.00921236762330779 	1.58286493708886 	0.000525800284761131 	0
3 	2.77737801509344 	6.93889390390723e-17 	0.128743702892425 	0.00911879211988047 	1.70438529906336 	0.000646164637578123 	0
3 	2.79042603878708 	6.93889390390723e-17 	0.128765893288897 	0.0090462246000031 	1.84039409364043 	0.000784938718164356 	0
3 	2.80301296646003 	6.93889390390723e-17 	0.128785898859352 	0.00899423429810597 	1.99253460019968 	0.000943894016246046 	0
3 	2.81515509249873 	7.28583859910259e-17 	0.128803881441788 	0.00896223657624614 	2.16267243359595 	0.00112500178151641 	0
3 	2.82686813547238 	7.63278329429795e-17 	0.128819976185285 	0.00894949046217806 	2.35294651197076 	0.00133050727060983 	0
3 	2.83816725848143 	7.97972798949331e-17 	0.128834295149093 	0.00895510549981745 	2.56583467638745 	0.00156302749240258 	0
3 	2.84906708878692 	8.32667268468867e-17 	0.128846930703401 	0.00897805588703784 	2.8042362389979 	0.0018256709421518 	0
3 	2.85958173674616 	7.97972798949331e-17 	0.128857958668516 	0.00901719837363875 	3.07157379647005 	0.00212217546743715 	0
3 	2.86972481407933 	7.28583859910259e-17 	0.128867441174965 	0.00907128932002657 	3.3719170847326 	0.00245705831892386 	0
3 	2.87950945149043 	6.93889390390723e-17 	0.128875429337801 	0.00913899593978342 	3.7101327890794 	0.00283577055643267 	0
3 	2.88894831566567 	6.93889390390723e-17 	0.128881965983771 	0.00921889724874884 	4.09206644941448 	0.00326484557715689 	0
3 	2.89805362567107 	6.93889390390723e-17 	0.128887087971904 	0.00930947176709658 	4.52476642848235 	0.00375202713148251 	0
3 	2.90683716877067 	6.93889390390723e-17 	0.128890824420208 	0.00940907185182831 	5.01676620118139 	0.00430635835002189 	0
3 	2.9153103156857 	6.93889390390723e-17 	0.128893188692283 	0.00951588926231476 	5.578451666191 	0.0049390273224991 	0
3 	2.92348403531449 	6.59194920871187e-17 	0.12889422756429 	0.00962790428008821 	6.22262636541883 	0.00566969461757992 	0
3 	2.9313689089323 	6.59194920871187e-17 	0.128894114002834 	0.00974265091876434 	6.96588718275686 	0.00653562461710586 	0
3 	2.93897514388925 	6.93889390390723e-17 	0.128892973454439 	0.00985645846463588 	7.83132646877792 	0.0075466270885763 	0
3 	2.94631258682425 	6.93889390390723e-17 	0.128890770864479 	0.00996406746151907 	8.84629094998441 	0.00874575255289939 	0
3 	2.95339073641193 	6.93889390390723e-17 	0.128887426540137 	0.0100565753718553 	10.0382035334604 	0.0101382017538119 	0
3 	2.96021875565916 	6.93889390390723e-17 	0.128882875186809 	0.0101216483762831 	11.4380339837815 	0.0117267521038388 	0
3 	2.96680548376697 	6.93889390390723e-17 	0.128877120736627 	0.0101436650555322 	13.0842902394802 	0.0135163563200236 	0
3 	2.97315944757337 	6.93889390390723e-17 	0.128870258785935 	0.0101033080395193 	15.0270799720072 	0.0155072814320699 	0
3 	2.97928887259171 	6.93889390390723e-17 	0.128862458665872 	0.00997667023612151 	17.336338175691 	0.0176872862817032 	0
3 	2.98520169365903 	6.93889390390723e-17 	0.128853947519889 	0.00973381600463846 	20.1147060615225 	0.0200189112871393 	0
3 	2.99090556520807 	6.93889390390723e-17 	0.128845003004093 	0.0093367901506335 	23.5179834262939 	0.022412166179052 	0
3 	2.99640787117633 	6.93889390390723e-17 	0.128835958714777 	0.00873748831298698 	27.792439225709 	0.0246596995255362 	0
3 	3.00171573456492 	6.93889390390723e-17 	0.128827203037383 	0.00787815056577732 	33.3516507895704 	0.0263577433768704 	0
3 	3.00683602665963 	6.93889390390723e-17 	0.128819152307249 	0.00669877506166493 	40.9667406179778 	0.0267596371380782 	0
3 	3.01177537592613 	6.93889390390723e-17 	0.128812250867011 	0.00516121537574966 	52.3169197116955 	0.0243304269135401 	0
3 	3.01654017659085 	6.93889390390723e-17 	0.128806872963911 	0.00334383093563016 	71.8617236240037 	0.0170558423325295 	0
3 	3.02113659691864 	7.28583859910259e-17 	0.128803130106706 	0.00164166085025307 	114.629663431063 	0.0077074463113693 	0
3 	3.02557058719784 	7.97972798949331e-17 	0.128800620617852 	0.000548111613740723 	247.221257556416 	0.00188917968321096 	0
3 	3.02984788744324 	8.32667268468867e-17 	0.128798670742256 	0.000109069193060621 	968.209113730499 	0.000217683810943698 	0
