3 	0.00391112967796268 	1.04083408558608e-17 	-0.0387081577349992 	5.7426944018661e-05 	-1.14324990702425e-16
3 	0.0118766651674915 	1.04083408558608e-17 	-0.108541117664614 	0.000100570318202365 	2.44822175006095e-16
3 	0.0201340015485761 	0 	-0.163043193501237 	0.000132370102851768 	7.38131767736313e-17
3 	0.0286938283423949 	0 	-0.197189373536018 	0.000114065021661226 	4.8422908808145e-23
3 	0.0375672266585908 	6.93889390390723e-18 	-0.213166329333553 	8.32530854772879e-06 	4.51003246718195e-22
3 	0.0467656835403032 	3.46944695195361e-18 	-0.218775103249689 	-0.000163235360329036 	5.00969976721137e-22
3 	0.0563011068347005 	-3.46944695195361e-18 	-0.21976555179268 	-0.000377545378617973 	8.79783087451972e-18
3 	0.0661858406082648 	3.46944695195361e-18 	-0.218667974216025 	-0.000623047461649157 	2.29304205839849e-17
3 	0.0764326811267817 	1.38777878078145e-17 	-0.216477961889989 	-0.000893864693069769 	-1.45853184974466e-17
3 	0.0870548934207257 	1.38777878078145e-17 	-0.213618905356371 	-0.00118673462399394 	-7.4115469869807e-18
3 	0.0980662284574838 	2.77555756156289e-17 	-0.210289639413311 	-0.00149994828476488 	-4.43214701085811e-17
3 	0.109480940942647 	3.81639164714898e-17 	-0.206590162036137 	-0.00183270987972976 	-6.8731330886573e-17
3 	0.121313807773417 	3.12250225675825e-17 	-0.202571892039337 	-0.00218476173395539 	5.03471923184443e-17
3 	0.13358014716801 	3.12250225675825e-17 	-0.198259947720071 	-0.00255619586578412 	4.15868757279756e-17
3 	0.146295838495838 	2.77555756156289e-17 	-0.193663913875714 	-0.00294736177342447 	4.80660402789032e-22
3 	0.159477342834115 	2.42861286636753e-17 	-0.188783406785924 	-0.00335881958685072 	9.55781679548415e-22
3 	0.173141724277517 	2.42861286636753e-17 	-0.183611091979309 	-0.00379131717627755 	1.13177069455459e-21
3 	0.183614095490672 	2.3635607360184e-17 	-0.179576768243905 	-0.00412652598883098 	1.03054805487914e-21
3 	0.190823961865322 	2.71050543121376e-17 	-0.176761152313127 	-0.00435932296909702 	8.1912947131475e-22
3 	0.201990523296728 	3.12250225675825e-17 	-0.172339369929854 	-0.00472309341470441 	5.08303414598126e-22
3 	0.217212287037675 	3.12250225675825e-17 	-0.166202764874613 	-0.00522474589016635 	1.59730927096243e-22
3 	0.232991668560441 	2.77555756156289e-17 	-0.159700301212619 	-0.00575223421867881 	-1.51236751223017e-22
3 	0.249349095037321 	3.12250225675825e-17 	-0.152804104610146 	-0.00630728081407887 	-1.5145218944458e-22
3 	0.266305741947753 	3.12250225675825e-17 	-0.145482603280226 	-0.00689185813666179 	5.46693057869424e-24
3 	0.283883560490998 	2.77555756156289e-17 	-0.137700312378727 	-0.00750821820438832 	-2.60712682417695e-22
3 	0.30210530600303 	3.46944695195361e-17 	-0.129417523524375 	-0.00815892635857106 	-1.22257157946971e-22
3 	0.320994567414414 	3.46944695195361e-17 	-0.12058990477885 	-0.00884689891637761 	-2.10041375113224e-17
3 	0.340575797787321 	3.46944695195361e-17 	-0.111168009874842 	-0.00957544408268067 	-3.89006091593192e-17
3 	0.360874345971201 	4.85722573273506e-17 	-0.101096690358933 	-0.0103483050453924 	4.13432867133329e-17
3 	0.38191648941809 	5.55111512312578e-17 	-0.0903143999185199 	-0.0111697035521706 	1.91337017460758e-17
3 	0.403729468200046 	4.85722573273506e-17 	-0.0787523761489894 	-0.0120443815765238 	-1.72992025116344e-21
3 	0.426341520272733 	4.16333634234434e-17 	-0.0663336813705312 	-0.0129776373430573 	-2.01875689005196e-21
3 	0.449781918030829 	3.81639164714898e-17 	-0.0529720810980201 	-0.0139753462630237 	-2.62716091069028e-21
3 	0.474081006202548 	4.16333634234434e-17 	-0.0385707367404853 	-0.0150439455926927 	-1.08364027293439e-21
3 	0.499270241132363 	4.16333634234434e-17 	-0.0230206889660192 	-0.0161903878343297 	7.95879487399365e-22
3 	0.525382231502763 	3.46944695195361e-17 	-0.00619911727569068 	-0.0174222413058943 	2.68046497393079e-21
3 	0.552450780547768 	3.81639164714898e-17 	0.0120326333579522 	-0.0187481120241426 	3.43409249340766e-22
3 	0.58051092981285 	4.5102810375397e-17 	0.031831681853548 	-0.0201755734995718 	1.33888299962587e-21
3 	0.609599004517911 	4.85722573273506e-17 	0.0534235273483712 	-0.021705437912265 	1.35096543259811e-21
3 	0.639752660582033 	5.20417042793042e-17 	0.0773790158606712 	-0.0233609980281679 	3.72129158183026e-21
3 	0.671010933370887 	5.55111512312578e-17 	0.104656913011025 	-0.0251741425775088 	3.46056934099829e-21
3 	0.703414288229901 	5.89805981832114e-17 	0.13605282881791 	-0.0271650745785112 	-1.55957574048647e-22
3 	0.737004672868606 	6.24500451351651e-17 	0.171861862043588 	-0.0293061731369262 	5.3162463902731e-21
3 	0.771825571663976 	5.89805981832114e-17 	0.211991296121745 	-0.0315385139040583 	-2.44483964382809e-24
3 	0.807922061953054 	5.55111512312578e-17 	0.256138262685023 	-0.0337858203325298 	-6.29348695359344e-21
3 	0.845340872387743 	5.20417042793042e-17 	0.303889229053415 	-0.0359668989143129 	1.15803302023883e-20
3 	0.884130443427309 	5.55111512312578e-17 	0.354730792944108 	-0.0380057710746172 	7.51368198304726e-18
3 	0.924340990046898 	5.89805981832114e-17 	0.408029907727661 	-0.0398378525043064 	8.14008405821906e-18
3 	0.966024566743242 	5.6920614055489e-17 	0.463031265469707 	-0.0414108939279504 	3.13754227268371e-20
3 	1.00923513492173 	5.908901840046e-17 	0.518867419048318 	-0.0426729200415111 	5.56402387288348e-22
3 	1.05402863275206 	6.07153216591882e-17 	0.574543035928936 	-0.043586679335614 	-5.33568992394029e-22
3 	1.10046304758287 	6.54858112181245e-17 	0.629016803519914 	-0.0441211541410949 	-2.91410717150333e-22
3 	1.14859849100923 	7.02563007770607e-17 	0.681218313327888 	-0.0442573202906388 	7.84057663924026e-24
3 	1.19849727668995 	6.85215773010839e-17 	0.730179394485881 	-0.0440089731743883 	-1.72882194593286e-20
3 	1.25022400101563 	6.24500451351651e-17 	0.775270754376066 	-0.0434233147815603 	9.92280662010336e-22
3 	1.30384562673186 	5.72458747072346e-17 	0.816438451600133 	-0.0425327259497084 	2.6879805862529e-21
3 	1.35943156962566 	5.72458747072346e-17 	0.854244035631569 	-0.0413712407438141 	1.66651361093819e-22
3 	1.41705378838763 	6.07153216591882e-17 	0.889028736958235 	-0.0400054516802238 	-2.82745364725379e-21
3 	1.47678687776592 	5.89805981832114e-17 	0.920857150074339 	-0.0385398015834657 	-1.60625763078466e-21
3 	1.53870816513278 	6.24500451351651e-17 	0.949976394001524 	-0.0370470958055701 	-1.33837654052203e-23
3 	1.60289781058851 	7.28583859910259e-17 	0.976737271349763 	-0.0355533185740501 	2.82940100047463e-21
3 	1.66943891073267 	7.97972798949331e-17 	1.00147867171755 	-0.0340529967029504 	1.84647612756058e-23
3 	1.71135564625027 	8.32667268468867e-17 	1.01593220668951 	-0.0331215476974227 	-8.45053318145805e-22
3 	1.74646535410267 	7.97972798949331e-17 	1.02707354052651 	-0.0323470725623991 	-4.61904722383732e-21
3 	1.8099231933566 	7.63278329429795e-17 	1.04611582343727 	-0.0309442789179836 	-1.45556965565474e-20
3 	1.88404823953249 	7.63278329429795e-17 	1.06636546194677 	-0.0292879387303395 	-2.90326106316146e-21
3 	1.96088870322038 	7.97972798949331e-17 	1.08464685292455 	-0.0276124354028944 	0
3 	2.02025965173185 	8.32667268468867e-17 	1.09800764671933 	-0.0262552294601859 	0
3 	2.06006301192217 	7.97972798949331e-17 	1.1068702614407 	-0.0252678772540632 	0
3 	2.09845978584128 	7.63278329429795e-17 	1.11442299087398 	-0.0243707681386192 	0
3 	2.13549967996946 	7.63278329429795e-17 	1.12128111388856 	-0.0235051373503705 	0
3 	2.17123064424048 	7.28583859910259e-17 	1.12750021582652 	-0.022668898156593 	0
3 	2.20569893411516 	6.93889390390723e-17 	1.13312999831788 	-0.0218622452791972 	0
3 	2.23894917046123 	6.93889390390723e-17 	1.13821484724679 	-0.0210850299734397 	0
3 	2.27102439731726 	6.93889390390723e-17 	1.14279428226288 	-0.0203367748718789 	0
3 	2.30196613761522 	6.93889390390723e-17 	1.14690334238539 	-0.0196168244026332 	0
3 	2.33181444693392 	6.59194920871187e-17 	1.15057292354607 	-0.0189243921524825 	0
3 	2.3606079653529 	6.59194920871187e-17 	1.15383007667071 	-0.0182585902730654 	0
3 	2.38838396747391 	6.59194920871187e-17 	1.1566982704207 	-0.0176184586014573 	0
3 	2.41517841067461 	6.59194920871187e-17 	1.15919762037661 	-0.0170029898074533 	0
3 	2.44102598165722 	6.93889390390723e-17 	1.1613450858988 	-0.016411149795739 	0
3 	2.46596014135208 	6.93889390390723e-17 	1.16315463611935 	-0.0158418940428918 	0
3 	2.49001316823444 	6.93889390390723e-17 	1.16463738698631 	-0.0152941805216604 	0
3 	2.51321620011054 	6.93889390390723e-17 	1.16580171182256 	-0.0147669797536904 	0
3 	2.535599274427 	7.28583859910259e-17 	1.16665332843986 	-0.0142592824704036 	0
3 	2.55719136715571 	7.63278329429795e-17 	1.1671953664777 	-0.0137701053002614 	0
3 	2.57802043030466 	7.63278329429795e-17 	1.16742841933854 	-0.0132984948356122 	0
3 	2.59811342810315 	7.97972798949331e-17 	1.16735058587037 	-0.0128435303689193 	0
3 	2.61749637190832 	8.32667268468867e-17 	1.1669575077742 	-0.0124043255272711 	0
3 	2.63619435387806 	7.63278329429795e-17 	1.16624240950219 	-0.0119800289748963 	0
3 	2.65423157945406 	7.28583859910259e-17 	1.1651961480082 	-0.0115698242954662 	0
3 	2.67163139869691 	7.63278329429795e-17 	1.16380727988286 	-0.011172929109746 	0
3 	2.68841633651388 	7.63278329429795e-17 	1.16206215283727 	-0.0107885934315842 	-1.26650460352348e-16
3 	2.70460812181851 	7.97972798949331e-17 	1.15994502682856 	-0.0104160972201844 	-1.20925693353276e-16
3 	2.72022771565972 	8.32667268468867e-17 	1.15743822698331 	-0.0100547470551543 	1.38049153247631e-16
3 	2.73529533835695 	8.32667268468867e-17 	1.1545223256158 	-0.00970387185107982 	-1.26528901452588e-17
3 	2.74983049567626 	8.32667268468867e-17 	1.15117634404029 	-0.0093628175495757 	-1.38110849147947e-16
3 	2.76385200408157 	7.63278329429795e-17 	1.14737795691196 	-0.00903094078735378 	1.58663132922687e-16
3 	2.77737801509344 	6.93889390390723e-17 	1.14310367336341 	-0.0087076016436656 	1.51796705676867e-16
3 	2.79042603878708 	6.93889390390723e-17 	1.1383289615785 	-0.00839215571743751 	0
3 	2.80301296646003 	6.93889390390723e-17 	1.13302827830798 	-0.00808394596198874 	0
3 	2.81515509249873 	7.28583859910259e-17 	1.12717496375814 	-0.00778229489182035 	0
3 	2.82686813547238 	7.63278329429795e-17 	1.12074096629372 	-0.00748649794239468 	0
3 	2.83816725848143 	7.97972798949331e-17 	1.11369637051123 	-0.00719581887893782 	0
3 	2.84906708878692 	8.32667268468867e-17 	1.10600871525819 	-0.00690948818985651 	0
3 	2.85958173674616 	7.97972798949331e-17 	1.09764210280996 	-0.00662670535979102 	0
3 	2.86972481407933 	7.28583859910259e-17 	1.08855611378423 	-0.0063466458162806 	0
3 	2.87950945149043 	6.93889390390723e-17 	1.07870455173414 	-0.00606847315823503 	0
3 	2.88894831566567 	6.93889390390723e-17 	1.06803404504419 	-0.00579135680170126 	0
3 	2.89805362567107 	6.93889390390723e-17 	1.05648253212988 	-0.00551449511298101 	0
3 	2.90683716877067 	6.93889390390723e-17 	1.04397765170942 	-0.00523714981722493 	0
3 	2.9153103156857 	6.93889390390723e-17 	1.03043504549888 	-0.00495872798376933 	0
3 	2.92348403531449 	6.59194920871187e-17 	1.01575439466766 	-0.00467875717648609 	0
3 	2.9313689089323 	6.59194920871187e-17 	0.999796386399096 	-0.00439637391490135 	0
3 	2.93897514388925 	6.93889390390723e-17 	0.982319040169004 	-0.00410946542884095 	0
3 	2.94631258682425 	6.93889390390723e-17 	0.963021954470777 	-0.00381551912162094 	0
3 	2.95339073641193 	6.93889390390723e-17 	0.941646859795054 	-0.00351389081842008 	0
3 	2.96021875565916 	6.93889390390723e-17 	0.917950251955619 	-0.00320556276171023 	0
3 	2.96680548376697 	6.93889390390723e-17 	0.891667033858476 	-0.00289261026698068 	0
3 	2.97315944757337 	6.93889390390723e-17 	0.862484403086436 	-0.00257786416108124 	0
3 	2.97928887259171 	6.93889390390723e-17 	0.830014886813249 	-0.00226465675429749 	0
3 	2.98520169365903 	6.93889390390723e-17 	0.793761970449881 	-0.00195666295122768 	0
3 	2.99090556520807 	6.93889390390723e-17 	0.753072003272563 	-0.00165778635300728 	0
3 	2.99640787117633 	6.93889390390723e-17 	0.707067538546929 	-0.00137200275423895 	0
3 	3.00171573456492 	6.93889390390723e-17 	0.65458466982443 	-0.00110330971966649 	0
3 	3.00683602665963 	6.93889390390723e-17 	0.594121212764114 	-0.000855684897695882 	0
3 	3.01177537592613 	6.93889390390723e-17 	0.523713103984895 	-0.000632198430478199 	0
3 	3.01654017659085 	6.93889390390723e-17 	0.441164081417843 	-0.000434827445193595 	0
3 	3.02113659691864 	7.28583859910259e-17 	0.346657794626256 	-0.000267226535462539 	0
3 	3.02557058719784 	7.97972798949331e-17 	0.245534512853276 	-0.000137669985438225 	0
3 	3.02984788744324 	8.32667268468867e-17 	0.144673980662466 	-5.18450390575807e-05 	0
