/*--------------------------------*- C++ -*----------------------------------*\
  =========                 |
  \\      /  F ield         | OpenFOAM: The Open Source CFD Toolbox
   \\    /   O peration     | Website:  https://openfoam.org
    \\  /    A nd           | Version:  7
     \\/     M anipulation  |
\*---------------------------------------------------------------------------*/
FoamFile
{
    version     2.0;
    format      ascii;
    class       volScalarField;
    location    "10000";
    object      k;
}
// * * * * * * * * * * * * * * * * * * * * * * * * * * * * * * * * * * * * * //

dimensions      [0 2 -2 0 0 0 0];

internalField   nonuniform List<scalar> 
15600
(
2.55163651854985e-05
2.1716460982861e-05
1.11815687846614e-05
3.50531592014813e-06
4.23041232464903e-07
6.59602967768543e-08
4.73180361402719e-08
3.02295328056181e-08
2.74397354563972e-08
2.43031571712507e-08
2.38444169704267e-08
2.62806237804588e-08
3.19966434234981e-08
4.18366141516137e-08
5.87787348063678e-08
8.63791302786371e-08
1.28830459332753e-07
1.89713761117955e-07
2.73684785594167e-07
3.84251716307275e-07
5.21757179004133e-07
6.83289450626499e-07
8.69299279528818e-07
1.07124213951874e-06
1.26495756506534e-06
1.42801703604679e-06
1.56469607312298e-06
1.7217141561101e-06
2.288323702164e-06
3.22334902273297e-06
4.17600045178556e-06
5.1345252156593e-06
6.09761054277593e-06
7.06039469438771e-06
8.02142130886738e-06
8.98002116975219e-06
9.9346701121107e-06
1.0883905924295e-05
1.18255812913878e-05
1.27573877228222e-05
1.36767866740285e-05
1.45812751715518e-05
1.54686750202488e-05
1.63378171742418e-05
1.71894398469809e-05
1.80253075019862e-05
1.88427758383664e-05
1.96145615119862e-05
2.03328456706256e-05
2.10060807637093e-05
2.16316772601623e-05
2.22078637594813e-05
2.27332509090266e-05
2.32068710942956e-05
2.36281886679394e-05
2.39970872086014e-05
2.43138518048484e-05
2.4579136249087e-05
2.47939277092919e-05
2.49595067231031e-05
2.50774071399393e-05
2.51493771357475e-05
2.51773326383221e-05
2.5163308300183e-05
2.51093748030221e-05
2.50175571126644e-05
2.48897123504916e-05
2.47275076854207e-05
2.45324612161976e-05
2.43061725672008e-05
2.40505434379167e-05
2.37676979278932e-05
2.34597642068607e-05
2.31286989655577e-05
2.27759527681642e-05
2.24024570953915e-05
2.20084912064779e-05
2.15940730314e-05
2.11592796851224e-05
2.07038976091717e-05
2.02275525169535e-05
1.9728732120017e-05
1.92051936924172e-05
1.86523191493645e-05
1.80647785767723e-05
1.74332436801699e-05
1.67482760345823e-05
1.59926422060492e-05
1.51514668139115e-05
1.41952405135768e-05
1.30907266197053e-05
1.17700327326274e-05
1.0864512857235e-05
1.12561994209206e-05
1.19495253309813e-05
1.29343858448045e-05
1.38978396172877e-05
1.49184550635671e-05
1.59930705555561e-05
1.72622730669627e-05
1.8537439536476e-05
1.97572381871904e-05
2.07713659943335e-05
2.14956717738894e-05
2.15982575528593e-05
2.12714912506981e-05
2.07835518984768e-05
2.03015750933456e-05
1.99882179299459e-05
2.00944434571168e-05
2.118300839905e-05
2.31751910990643e-05
2.64560527354333e-05
3.21002677844474e-05
4.06605213813915e-05
4.91783608878974e-05
4.2529160561835e-05
3.22722192206152e-05
2.50936950919198e-05
2.5666593405831e-05
0.000822230226382393
0.000695217951212983
0.000369035503175666
0.000117302415534596
1.4933752759626e-05
2.36132218105928e-06
1.572508675295e-06
9.99942448167091e-07
8.99725820648211e-07
7.95874626922078e-07
7.76566433853219e-07
8.50771989087248e-07
1.03112040353703e-06
1.34359145883375e-06
1.88257692692255e-06
2.76289445179398e-06
4.12116839683588e-06
6.07459352950079e-06
8.77478447138037e-06
1.2338295405822e-05
1.67796635444702e-05
2.20063329286844e-05
2.80279722825156e-05
3.46318474886327e-05
4.10716584653515e-05
4.65357783997766e-05
5.09997644059851e-05
5.6237635015788e-05
7.49902185439815e-05
0.00010502807645142
0.000135428830484172
0.000165825429472565
0.000196215994158116
0.00022645584971252
0.000256519492028685
0.000286389721835809
0.000316027188220007
0.000345390164496377
0.00037441778807308
0.000403043921410215
0.000431196603031377
0.000458805668055685
0.000485811804117926
0.000512187005301615
0.000537961047953557
0.000563193025572952
0.000587825427865782
0.000611145348929471
0.000633060082902657
0.000653582934759788
0.000672644350420425
0.000690198307838643
0.000706209674501431
0.000720655152698779
0.000733523540915312
0.000744815285643276
0.000754541951643967
0.000762725248299876
0.000769396019423103
0.000774593111844462
0.00077836225581349
0.000780755010254206
0.000781827459527018
0.000781638904773752
0.000780249451996513
0.000777717748552727
0.000774097257517673
0.000769435657899479
0.000763775885516298
0.000757162994340218
0.000749651193616392
0.000741301762647748
0.000732176400541379
0.000722332253356868
0.000711811269951266
0.000700640041093994
0.00068882510573173
0.000676364576701475
0.00066325875292803
0.000649498474596253
0.00063507068500891
0.000619926004333936
0.000603994268584157
0.000587128253731312
0.000569161774779362
0.000549796490421542
0.000528736603087357
0.000505427919387305
0.000479396808300161
0.000449700110553116
0.000415303592425203
0.000374410308432285
0.000346822108584124
0.000359603988840514
0.000382016447012293
0.000414316820098032
0.000445861522657459
0.000479600581331241
0.000515252234038923
0.000557266574926747
0.000599053846135172
0.000638775894379043
0.000671402805313525
0.000694115428159747
0.000696178732286538
0.000685360896194667
0.000670141819291338
0.000655559168318526
0.000647166770690764
0.000653658462897459
0.000693063251364781
0.00076013083906983
0.000869187416848923
0.00105364811693255
0.00131786613671911
0.00154681502336976
0.00134305747145198
0.00104390407883656
0.000819593390076661
0.000821440856922102
0.0048577781463767
0.00424988157683311
0.00267497045710589
0.000938473818355779
0.000123795356495394
1.9158878673577e-05
1.17365948812003e-05
7.43863714334505e-06
6.65338293443794e-06
5.88452582630056e-06
5.71768918727426e-06
6.2303822446172e-06
7.52341662736693e-06
9.78071882410402e-06
1.36817957254442e-05
2.00651106222374e-05
2.99146650103273e-05
4.40654263372062e-05
6.35381837425218e-05
8.90240410720247e-05
0.000120419181954287
0.000156945126262262
0.000198306056831811
0.000242647594031358
0.00028553920435776
0.000321844387489973
0.000354426374724746
0.000406185076387449
0.00053702709696001
0.000717258132475528
0.00088834503712425
0.00105094520766658
0.00120698914140647
0.00135680850531712
0.00150124608316142
0.00164080250577562
0.00177583905642249
0.00190658523505248
0.00203316386342214
0.00215563329751399
0.00227400980102803
0.00238829607679843
0.0024985196701795
0.00260480721576218
0.00270749308319044
0.00280682187518098
0.00290232105040907
0.00299212812272599
0.00307619442259629
0.00315457699404739
0.00322720111396336
0.00329403863060353
0.003355081203971
0.00341034391346329
0.00345986650387343
0.00350371281827727
0.00354196987415114
0.00357474581732996
0.00360216776395986
0.0036243793650683
0.0036415384260996
0.00365381462136212
0.00366138653369909
0.00366443825868492
0.0036631529434864
0.00365770576805608
0.00364825334322215
0.00363493144916811
0.00361785967339026
0.00359716430888949
0.00357300062711751
0.00354554677644095
0.00351498340929282
0.00348147521209002
0.00344513799576147
0.00340603325447226
0.0033641534540893
0.00331945868940235
0.0032719083383393
0.00322142847231855
0.00316791768424007
0.00311114850391127
0.00305078940722515
0.00298623431442192
0.00291673799857967
0.00284106903248201
0.00275785710913908
0.00266471700792465
0.00255926943923662
0.00243697899452961
0.00229261279762132
0.00211511386291318
0.00198961243163021
0.00204010580756753
0.00214838234618944
0.00230400611208009
0.00246679549268343
0.00264534645204767
0.00284019164663325
0.0030649984127997
0.00329331997557714
0.00351333559340037
0.00370414021696737
0.00385093123975361
0.00391181981943158
0.0039123821203303
0.00388773630640986
0.00386189357169687
0.00386066470110086
0.00392671577098563
0.00414198587204344
0.00448402492919986
0.00499884097153598
0.00577882066767277
0.0067852885804712
0.00759576215261004
0.00712078869189401
0.00618840850710425
0.00531187503930192
0.0050450503923777
0.00996728090940894
0.00908186820023408
0.00671814697293497
0.00317575275183441
0.000540548507174252
8.14938854773228e-05
4.44630134918244e-05
2.8144565232254e-05
2.5129368278237e-05
2.22650520205558e-05
2.1578196199501e-05
2.34131743463306e-05
2.81611483029407e-05
3.64611314572776e-05
5.07404318252259e-05
7.39016768723587e-05
0.000109117233890403
0.00015860490050468
0.000224556361950403
0.000307312928378253
0.000404143630197744
0.000510434357253606
0.000623544533959943
0.000737820429567857
0.000843454856987382
0.000935036627226693
0.0010247283564255
0.0011571042170461
0.00143529084706992
0.00178319455036446
0.00209888749638888
0.00239067782178502
0.00266519345553086
0.00292475705819603
0.00317198965874692
0.00340849863870877
0.00363546509338569
0.00385368965200064
0.00406370513359864
0.00426586236707541
0.00446039042300663
0.00464745253321174
0.00482720752408722
0.00499984891393605
0.00516544531739779
0.00532367472005737
0.00547375669262679
0.00561477772088082
0.00574678769315559
0.00586981230194732
0.0059838327978106
0.0060888693112073
0.00618496566530483
0.0062721935549006
0.00635065437195169
0.00642047875663931
0.00648182535409899
0.00653487819401744
0.00657984379521391
0.00661694793751778
0.00664643248020015
0.00666855225096316
0.0066835712219298
0.00669175798036332
0.00669337782456167
0.00668868359373144
0.00667790284077492
0.00666123413305296
0.00663885332616568
0.00661094279259438
0.00657771994634231
0.00653943055281341
0.00649632306268035
0.00644862243550831
0.00639648959238101
0.00634000974112808
0.00627917447116293
0.00621392654224361
0.0061441988851456
0.00606988116179417
0.00599081414104357
0.00590667774815979
0.00581698665347342
0.00572090374139386
0.0056173425520184
0.00550459573951359
0.0053806373633087
0.0052421015484931
0.00508535450945732
0.00490357140208443
0.00468879845864821
0.00441778613753897
0.00421438580622734
0.00427715474954506
0.0044589253113412
0.00472683298758005
0.00502886621062594
0.00536951513248739
0.00575091609766906
0.00618441136503984
0.00663238329128545
0.00707029303082795
0.00746715595691766
0.00779750849616267
0.00800797167143003
0.00812873761730706
0.00821065862864371
0.00829272611883933
0.00841411823526079
0.0086403021779155
0.00908687608462724
0.00972074611910604
0.0105805066411969
0.0117447584760897
0.0131364962913594
0.0142742881805074
0.0136464914087626
0.0119903037233352
0.0105393892358384
0.0101699280054854
0.0135795164524795
0.0127202852626106
0.0102796704904089
0.00607192263870479
0.00158177580644241
0.000250351492563288
0.00011721281079689
7.3973149931511e-05
6.62614119723587e-05
5.89812999806325e-05
5.71102160960566e-05
6.17447996469504e-05
7.38856036906628e-05
9.49749152678486e-05
0.000130559969620942
0.000186465578857995
0.000267583836630245
0.000374771302851158
0.000507206655493557
0.000659944489224544
0.000824195272584778
0.00099166972342507
0.00115985457175869
0.00132346329029758
0.00147419339423445
0.00161247177857137
0.00175963681648647
0.00197472327329641
0.00236829161804535
0.00283314289015014
0.00325103150142459
0.00363600613618773
0.00399634227051777
0.00433562072781985
0.00465744753079927
0.00496411941307805
0.00525733609881508
0.00553827588843431
0.00580775328504366
0.00606632765064935
0.00631438422320271
0.00655219798622202
0.00677997600618926
0.00699782729121797
0.00720553530879695
0.00740264933010113
0.00758865715944798
0.00776322865610794
0.00792644161406852
0.0080783352729772
0.00821894929331319
0.00834835377602885
0.0084666439652788
0.00857394436763787
0.00867041097186874
0.00875623101589982
0.00883162160254562
0.00889682682587729
0.00895211445201251
0.00899777221881891
0.00903410413465502
0.00906142681655262
0.00908006518428903
0.00909034738333687
0.00909259655443304
0.00908712098553315
0.00907420086176981
0.00905408345861581
0.00902698938552758
0.00899314327302404
0.00895280501895736
0.00890626430411359
0.00885381332552489
0.00879571679316164
0.00873216934096578
0.00866327934582664
0.00858904989378237
0.00850942447830621
0.00842432905691299
0.00833364396386398
0.00823718883035285
0.00813461519027488
0.00802537795956308
0.00790856402415654
0.00778294891893089
0.00764666881994871
0.00749743361556031
0.00733155992200876
0.00714490164103482
0.00692976453884367
0.00667710683325265
0.00635777994800082
0.00610873843272567
0.00616245903696265
0.0063853759243453
0.00672353147857194
0.00712201194906947
0.00757830787498217
0.00809460862733649
0.00867702489289502
0.0092837195737977
0.00988117668689463
0.0104334349972533
0.0109093838653707
0.0112563605937709
0.011503708820449
0.0117082860175804
0.0119173366122787
0.0121762296808703
0.0125588435017916
0.0131876957315202
0.0140344705134522
0.0151248295431908
0.0165166973501387
0.0181308493451845
0.0195214391742099
0.0190817260259456
0.0170377866536042
0.0147712238916359
0.0138811397670935
0.0164053729296195
0.0155280606832291
0.013109565504183
0.0088671854700438
0.00326214456956262
0.00062090990443557
0.000246057130144262
0.00015330270953255
0.000138407948649919
0.000124186084603206
0.000120262202313755
0.000129426369505816
0.000153438818861118
0.000194398885742857
0.000260834278559233
0.000359463910361375
0.000492797884584172
0.000655888162882993
0.000842565706010207
0.00104378970517854
0.0012494141934362
0.00145296642705992
0.0016547215059321
0.00185168922520525
0.00203916192692775
0.00222347846311357
0.00243395789134823
0.00273720555358743
0.00322934103542691
0.00378113010883784
0.00427509993947798
0.00473005828140692
0.00515508709009124
0.00555478034685528
0.00593334572254748
0.00629352544589138
0.00663734416004334
0.00696621941985316
0.00728114502231008
0.00758281187253238
0.00787169859820564
0.0081481305102441
0.00841229843734434
0.00866418183253505
0.00890348270811484
0.00912987510187151
0.00934307690050482
0.00954300758262362
0.0097297515474064
0.00990337269401583
0.0100639527608268
0.0102115997862851
0.0103464482441144
0.0104686630916014
0.0105784422696402
0.0106760166509685
0.0107616485521863
0.0108356286643559
0.0108982723806557
0.0109499156888802
0.0109909110100185
0.0110216230616599
0.0110424241757106
0.0110536889046796
0.0110557858085197
0.0110490675016862
0.0110338574121135
0.0110104439377476
0.0109790856510523
0.0109400416414338
0.0108936046911275
0.0108400978311967
0.0107798467428747
0.0107131476633059
0.0106402240755551
0.0105612071885105
0.0104761155946976
0.0103848995570633
0.010287485528309
0.0101837541241263
0.0100735189525393
0.00995642614983127
0.00983190853891452
0.00969903085187313
0.00955651042358652
0.00940243503797932
0.00923440119022361
0.0090486315439697
0.00884074298645009
0.00860270658759375
0.00832481830038407
0.0079758343416384
0.00769639268702365
0.00773446774219615
0.00798073735357826
0.00836545097250975
0.00883206925134043
0.00937169080749312
0.00998527174795625
0.0106740930861959
0.0113943069030305
0.0121061347689164
0.0127704379036052
0.0133530758037776
0.0138050576577044
0.0141544409209888
0.0144603045412008
0.0147744949822642
0.0151458363455282
0.0156516613891154
0.016414030536428
0.0174139702096013
0.0186694789651358
0.0202206786175374
0.0219870289422472
0.0235513656895656
0.0233515819810603
0.0212947180980991
0.0185207377392335
0.017001503874505
0.0189145950183537
0.017928129705285
0.0155054007634711
0.0113623959232163
0.00527435492810675
0.00128303685989865
0.000441850221848374
0.000265849449976397
0.000242404880426273
0.000219903033181501
0.000213013418487946
0.00022762355057331
0.000265956242320029
0.000329792529074895
0.000428625760348172
0.000567103219334559
0.000743047986040679
0.000946369612912484
0.00116833946083354
0.00139958546544512
0.00163178988649668
0.00186141374009894
0.00209087552365982
0.00231919235363732
0.00254507291874048
0.00277978834671941
0.00305822609626422
0.00344715452546727
0.00402133504395485
0.00463951770538398
0.00519319092668175
0.00570404703280781
0.00618140824535313
0.00663047355990614
0.00705572436880427
0.00746014305753574
0.00784593185938783
0.00821464766958364
0.00856739154447851
0.00890493286945551
0.00922780098308446
0.00953633327804385
0.00983069017046926
0.0101107694058344
0.0103763427599757
0.010627193673444
0.0108631892703745
0.011084356263782
0.0112907867956776
0.0114825711162082
0.0116598239025314
0.0118226845392205
0.0119713199686359
0.0121059287717865
0.0122267439001409
0.012334032792041
0.01242809581165
0.0125092630110206
0.0125778901417959
0.0126343541712893
0.0126790486922173
0.0127123793551448
0.0127347588663117
0.0127466014058356
0.0127483145935635
0.0127402897280779
0.0127228887107881
0.0126964371883545
0.0126612280859732
0.0126175507162745
0.0125657256722395
0.0125061039127339
0.012439039471584
0.0123648562304559
0.0122838043429226
0.0121960381280724
0.0121015939914906
0.0120004323142861
0.0118924844415902
0.0117776366176837
0.01165570524434
0.0115263432319753
0.0113889820924629
0.0112426913609014
0.011086172815233
0.0109175177096579
0.0107342874614685
0.0105327131376736
0.0103083122251918
0.0100529759051381
0.00975662973421835
0.00938788178021707
0.00908650912072378
0.00910751444845804
0.00936691849391556
0.00978443649544235
0.0103019889074266
0.0109051868564272
0.0115929768644914
0.0123623593777504
0.0131681750867454
0.013966036945712
0.014714502307049
0.0153778775178809
0.0159115618949314
0.0163427372341454
0.0167310274688703
0.0171307350043091
0.0175927353373105
0.0181958592532458
0.0190595736235309
0.0201740638252422
0.0215533260341056
0.0232231657095533
0.0250986044467877
0.0267784571003753
0.0267663344804672
0.0248199822922036
0.0218612746993947
0.0198710655260249
0.0212360936250881
0.0200989860577468
0.0176639053948797
0.0135618891957711
0.00736325259569068
0.00225837900446522
0.000714214706506939
0.000401671818703741
0.000368491510256652
0.000338733595462786
0.000328262495995895
0.000347798741613074
0.00039980090852882
0.00048491463599735
0.000611851906834925
0.000782151391352108
0.000989429514887206
0.00122073748803196
0.00146695814737696
0.00171995485088575
0.00197373636450036
0.00222715510608153
0.00248407540418217
0.00274523501197007
0.00301233407368931
0.00330039597460817
0.00364695712548619
0.00411405526639106
0.00475578992349378
0.00542733416552987
0.00603094561496759
0.00658937333120918
0.0071118136917441
0.00760376172000387
0.00806977507846961
0.00851295542234784
0.00893559905661401
0.00933934743241554
0.00972536960255392
0.0100944848337992
0.0104472517353828
0.0107840094242589
0.0111048877694756
0.0114097918017558
0.0116985678599485
0.0119710853713791
0.0122273036857027
0.012467299009202
0.0126911752389687
0.0128990481360889
0.0130910604682562
0.0132673793764576
0.013428200491207
0.0135737521423078
0.0137042983104435
0.0138201389184419
0.0139216082284181
0.0140090714576857
0.0140829205017519
0.0141435690950169
0.014191447813265
0.0142269991039475
0.0142506719988052
0.014262916421094
0.0142641754214299
0.014254875788207
0.0142354152221672
0.0142061544868468
0.0141674188445589
0.0141195253851644
0.01406281957188
0.0139976771884227
0.0139244777528019
0.0138435707571921
0.0137552320494257
0.0136596396612728
0.0135568496012338
0.0134468348400901
0.013329534885642
0.0132048454966143
0.0130725921711347
0.0129324428331798
0.0127838416521087
0.0126258801476446
0.0124572722527375
0.012276144436034
0.0120800712746796
0.0118653541450353
0.011627499561198
0.0113584607689732
0.0110480122047525
0.0106656491129932
0.0103479265715416
0.0103522302489844
0.0106183803407765
0.0110598363881854
0.0116170544472814
0.0122709122943984
0.0130178900680249
0.0138511056329233
0.01472429232779
0.0155895242450562
0.0164036480340619
0.0171304175652909
0.0177297872773115
0.0182285046807882
0.0186858752160796
0.0191572943091508
0.0196947831766094
0.0203776426495709
0.0213220288075731
0.0225260815236966
0.0240015988969163
0.0257626725042727
0.0277176500496314
0.0294737535947712
0.0295907912538769
0.0277681719850161
0.024791245286027
0.0225111883049249
0.0233916517245255
0.0221042633107746
0.0196649823225926
0.0155606296211609
0.00942185963637115
0.00350695939747386
0.00108254303597434
0.000550865790028006
0.000502335137902229
0.000468525808653097
0.00045473849550348
0.00047819833881638
0.000542058880836573
0.000645671812733874
0.000796052704913192
0.000991572211899524
0.0012225703259486
0.00147488037928865
0.00174005339128364
0.0020115960793152
0.0022856093673459
0.00256278560185849
0.00284807724728796
0.00314372153934324
0.00345387194285967
0.00379601442213219
0.00420788534674638
0.00474468022650337
0.00544320940033846
0.0061601554638884
0.0068077587007031
0.00740863559388379
0.00797167072795983
0.00850245883672742
0.00900552322034781
0.00948401519126654
0.00994027802012026
0.010376007489106
0.0107924191576466
0.0111903670137127
0.0115704290245345
0.0119329480360298
0.0122780434984148
0.0126056638970656
0.0129157183073356
0.0132081415801052
0.0134829501077002
0.0137402456605065
0.0139801467989249
0.0142027934721634
0.0144083538375034
0.0145970207010923
0.0147690161356163
0.0149245958850031
0.0150640525395118
0.015187716015567
0.0152959519388762
0.0153891581322077
0.0154677600695088
0.0155322056955065
0.0155829600351136
0.0156204998391588
0.0156453080311602
0.0156578679483332
0.0156586559001168
0.0156481322697561
0.0156267290056696
0.0155948408173287
0.0155528242077031
0.0155010226274439
0.0154398046569967
0.0153695690646853
0.0152907191928639
0.0152036290684189
0.0151085998845269
0.0150058341563013
0.0148954090541694
0.0147773121915427
0.0146514939321345
0.0145178627265393
0.0143762581405264
0.0142263693997191
0.0140676637099428
0.0138992669516423
0.0137199250954989
0.01352782054405
0.0133205785550592
0.013094607903415
0.0128454673009356
0.01256526213375
0.01224378203696
0.0118519419265862
0.0115218750616343
0.0115105439901951
0.0117792175071809
0.0122384203400087
0.0128273507652817
0.013522756166444
0.0143183825488776
0.0152037388180032
0.0161314735598754
0.0170508676258099
0.0179175473189104
0.018695480452999
0.01934917211861
0.0199052557317603
0.0204221965977334
0.0209555490793365
0.0215578121637129
0.0223080768260412
0.023318924134648
0.0245952072372804
0.0261472909465306
0.02797947806164
0.0299924347909094
0.0317979959046478
0.03199678310547
0.0302792668237364
0.0273545356713211
0.024913229914888
0.0253864119490299
0.0239683608964487
0.0215352264137856
0.0174445794263584
0.0114054120217897
0.00501110832504517
0.00157387998382462
0.000714294783142105
0.0006339997706178
0.000599989006234938
0.000584261785300583
0.00061112804276198
0.000685436528789899
0.000805372478958857
0.00097573359038561
0.00119190235374064
0.00144184879879502
0.00171127676823283
0.00199287012289716
0.00228176825865187
0.00257583961350294
0.00287724175304808
0.00319181885845969
0.00352307415784612
0.00387702011862379
0.00427242532766782
0.00474557904289378
0.00534446387430032
0.00609221057046342
0.00684960485194381
0.00753742519663726
0.00817746872214106
0.00877821460157551
0.00934522899552035
0.00988293565958001
0.0103944919074499
0.0108822593891996
0.0113479703519596
0.0117928745897527
0.0122178529864252
0.0126234995116328
0.0130101668513939
0.013377985760305
0.0137269545592767
0.014057035126843
0.0143682117774506
0.0146605369479351
0.0149341279713734
0.0151891197320577
0.0154256752185915
0.0156439864719478
0.0158442707504076
0.0160267752419552
0.0161917817046333
0.0163396098761621
0.0164706181579501
0.0165852020077501
0.0166837903133083
0.0167668405916001
0.0168348334763902
0.0168882669427264
0.0169276505770106
0.0169534997653928
0.0169663298908065
0.0169666492423765
0.0169549506945405
0.0169316995805638
0.0168973239932559
0.0168522111814733
0.016796730206867
0.0167312717640897
0.0166562565519628
0.0165721108152412
0.0164792326082985
0.0163779484896441
0.0162684863280955
0.0161509458926606
0.0160253312494621
0.0158916059646895
0.0157496939486455
0.0155994529920499
0.0154405987595889
0.0152726296821647
0.0150947155630598
0.0149056487374354
0.0147036852512538
0.0144865267054439
0.0142507154983327
0.013991909366894
0.0137024262362334
0.0133721965123415
0.0129737990870855
0.0126344039697132
0.0126087655874024
0.0128770772545537
0.0133494472558455
0.0139641280688435
0.0146942317115456
0.0155306194387696
0.0164593814855568
0.0174320374035412
0.0183956341688104
0.0193050286126075
0.0201250343916647
0.0208246340494513
0.0214305298964531
0.0219999716483799
0.0225879817918327
0.0232469970932403
0.0240553722920149
0.0251220168358764
0.0264574457617352
0.0280708641610997
0.0299584293708333
0.0320131693474598
0.0338496457837738
0.0340939221705621
0.0324562354506104
0.0296089020514797
0.0270874802759618
0.0272278676906962
0.0257040678030114
0.02328585838932
0.0192550058184493
0.0133169707173027
0.00669649688962403
0.00221721087424567
0.000906106065331081
0.00076075230172828
0.000728828727502813
0.000713311846726215
0.000743603467367534
0.000827425288822306
0.000962023152528813
0.00114971736511846
0.00138325955490596
0.00164907335449937
0.00193338563744223
0.00223015111550893
0.00253600139737696
0.00285029550923442
0.00317640377189268
0.00352092221570135
0.0038883675480434
0.00428603398483116
0.0047330273793747
0.00526324659867853
0.00591792383963977
0.00670957476396037
0.0075042425870146
0.00822981074203829
0.00890687298145946
0.00954344905611033
0.0101449858322869
0.0107157651526469
0.0112589195163184
0.0117768097809728
0.0122711931213416
0.0127433462389048
0.0131941731815645
0.0136242846893262
0.0140340486634319
0.0144236227694361
0.0147930524707865
0.0151423444143796
0.0154715206731739
0.0157806573805037
0.0160698833873867
0.0163393507581626
0.0165892447314775
0.0168197804770423
0.0170311990881051
0.0172237721693116
0.0173978067368912
0.0175536488775133
0.017691684652036
0.0178123385173441
0.0179160695963461
0.0180033666316589
0.018074742146044
0.0181307262852975
0.0181718607145632
0.0181986925461164
0.0182117684976567
0.018211628163177
0.018198796335972
0.0181737713365128
0.0181370145034788
0.0180889437696563
0.0180299535297265
0.0179604561095728
0.0178808936247359
0.0177917147972397
0.0176933415723696
0.0175861261295868
0.0174703226289896
0.0173460548055838
0.01721334483114
0.0170721715938126
0.0169224769718316
0.0167641405966152
0.0165969089552175
0.0164203184267926
0.0162335899486878
0.0160355751111536
0.0158246156760048
0.0155985098109246
0.0153539524729864
0.0150867357161563
0.0147894316747831
0.014452204628632
0.0140493736427453
0.0137029896583791
0.0136644337340113
0.0139303756639681
0.0144123777891887
0.0150481190408431
0.015807497987585
0.0166784172058981
0.0176436841373749
0.0186536261496118
0.0196535079485163
0.0205978558970088
0.0214528725579878
0.0221919026593652
0.0228417755994217
0.0234582083258121
0.0240951430968048
0.024804488066883
0.0256634100958212
0.0267771202403124
0.0281609719643075
0.0298230892690703
0.0317531839312085
0.0338376196980168
0.035692272508014
0.0359540214628126
0.0343719716869104
0.0316068521796411
0.0290550181923694
0.028926497759925
0.0273209402182583
0.0249256723170675
0.0210029378984482
0.0151651626352138
0.00848341100556094
0.00305202590549713
0.00115257408062672
0.000885721195642024
0.000854019592922601
0.000841094348370883
0.000875112424344692
0.00096767718934981
0.00111546027512163
0.00131829369843557
0.00156676029312437
0.00184638450415691
0.00214424256254209
0.00245554052491166
0.00277824091505773
0.00311297537906282
0.00346414395863528
0.00383897280563469
0.00424273858721647
0.00468350727701802
0.00518003262600292
0.00576337595648594
0.00646878772644075
0.00730057955545798
0.00813044326501736
0.00889212783414519
0.00960481077533599
0.0102760129153107
0.0109109915956744
0.011513855470869
0.0120876875970414
0.0126348336150046
0.0131570673632747
0.0136556878414048
0.0141316206636079
0.0145854956454219
0.0150177008623183
0.0154284291396591
0.0158177687143434
0.0161857646354666
0.0165324684673563
0.0168579729103441
0.017162416902361
0.0174459701324125
0.0177088396885456
0.0179512636421963
0.0181735067567373
0.0183758648303741
0.0185586698711481
0.0187222940216664
0.0188671506972936
0.0189936930532905
0.0191024101584518
0.0191938217087106
0.0192684718619533
0.0193269226985852
0.0193697477402029
0.0193975256062887
0.0194108341251388
0.0194102439626808
0.0193963116426999
0.0193695684120468
0.0193305090372082
0.0192795824074273
0.0192172083305416
0.0191438206691768
0.0190598828440413
0.0189658659908124
0.0188622160678002
0.0187493112893074
0.0186274330935165
0.0184967305085231
0.0183572453545585
0.0182089738034513
0.0180518780352746
0.0178858627548354
0.0177107091201105
0.0175259968475597
0.0173310048741587
0.0171246536218997
0.0169053803565387
0.0166710955550728
0.0164186607661237
0.0161440290387182
0.0158400556302955
0.0154972055805957
0.0150915166726543
0.0147399930116122
0.0146898755798639
0.0149520384605385
0.015440851965004
0.0160938152768179
0.0168779852882161
0.0177782846445526
0.0187743386717984
0.0198152232872358
0.0208448130538671
0.0218177445601359
0.0227020850005309
0.0234753874265219
0.0241645573634143
0.0248234788097475
0.0255045510640703
0.0262587304626893
0.0271615803276383
0.028314619317614
0.029737405713205
0.0314370289662716
0.0333988836950738
0.0355045696117121
0.0373690721181993
0.0376257538251287
0.0360783093180519
0.033391282864604
0.0308392220513714
0.0304938987405869
0.0288275051104825
0.0264632670371199
0.0226839184137232
0.0169527091877414
0.0103159267447606
0.00412408599805251
0.00147894517713688
0.00101676850757517
0.000976214031391836
0.000967867002958083
0.00100602153895512
0.00110654703140712
0.00126608548672359
0.00148217109388229
0.00174368309841916
0.00203569639093981
0.00234625652622122
0.00267173740210597
0.0030112834194306
0.00336662659163787
0.00374305279056385
0.00414830470533514
0.00458818301410267
0.00507110529967253
0.00561500824107987
0.00624798082503857
0.0070001078576344
0.00786934582776078
0.00873303966867041
0.00952978088332742
0.0102772130200265
0.0109823217318061
0.0116501156543132
0.012284503871258
0.0128884980485528
0.0134644164180936
0.0140140428431446
0.0145386954785978
0.0150393209012402
0.0155165703404136
0.0159708568311067
0.0164024107475872
0.0168113593342348
0.0171977811043028
0.0175617514785996
0.0179033757555914