/*--------------------------------*- C++ -*----------------------------------*\
  =========                 |
  \\      /  F ield         | OpenFOAM: The Open Source CFD Toolbox
   \\    /   O peration     | Website:  https://openfoam.org
    \\  /    A nd           | Version:  7
     \\/     M anipulation  |
\*---------------------------------------------------------------------------*/
FoamFile
{
    version     2.0;
    format      ascii;
    class       volScalarField;
    location    "10000";
    object      omega;
}
// * * * * * * * * * * * * * * * * * * * * * * * * * * * * * * * * * * * * * //

dimensions      [0 0 -1 0 0 0 0];

internalField   nonuniform List<scalar> 
15600
(
1974.60613735576
1972.648325243
1984.42791022013
2055.78059759582
2222.67690004102
2356.686868098
2378.42128442444
2300.00018532342
2153.97031116953
1966.45861756929
1762.78479607635
1583.64547894744
1435.67966376577
1312.2349065017
1208.29531934702
1120.03744959636
1041.43040276847
963.351277377799
885.918292649371
810.58135114486
738.629427726828
671.777660481123
614.580438156229
568.667823075621
533.493089366932
508.868650769501
494.93483283514
492.061840314983
493.651539705996
493.651534338166
493.651534338173
493.651534338186
493.651534338214
493.651534338152
493.651534338164
493.651534338193
493.651534338173
493.651534338179
493.651534338187
493.651534338166
493.651534338199
493.651534338138
493.651534338171
493.651534338152
493.651534338165
493.651534338172
493.651534338187
493.651534338193
493.6515343382
493.651534338166
493.651534338172
493.651534338165
493.6515343382
493.651534338165
493.651534338146
493.651534338186
493.65153433818
493.651534338194
493.651534338178
493.651534338193
493.6515343382
493.651534338185
493.651534338193
493.651534338201
493.65153433813
493.651534338152
493.651534338177
493.651534338139
493.651534338172
493.65153433818
493.651534338191
493.651534338182
493.65153433818
493.651534338178
493.651534338194
493.651534338178
493.651534338152
493.651534338152
493.651534338159
493.651534338193
493.651534338166
493.651534338166
493.651534338171
493.651534338213
493.651534338157
493.651534338194
493.65153433817
493.651534338157
493.651534338187
493.651534338165
493.651534338165
493.651539706002
492.061840314982
494.934832835202
508.868650769232
533.493089366357
568.667823075228
614.580438156834
671.777660481449
738.629427726959
810.581351143299
885.918292648864
963.351277377646
1041.43040276902
1120.03744959597
1208.2953193011
1312.23490651725
1435.67966381516
1583.6454790092
1762.78479592733
1966.45861764716
2153.97031128258
2300.00018510395
2378.42128451691
2356.68686814436
2222.67690004416
2055.78059756207
1984.42791022399
1972.64832524326
1974.60613735531
346.6275462109
349.295297447476
368.473513036622
368.324923440946
379.016764911432
395.453626799479
399.572537381701
387.193848110782
363.143026245504
331.884148538651
297.777259926324
267.625961232395
242.753755149532
222.155941371673
204.874696663591
190.238091498885
177.133016441783
164.067395025833
151.005250211777
138.157599301288
125.772386704308
114.299122211275
104.453786436648
96.4890272814437
90.4725017858093
86.3308449875091
84.3806655704847
86.5804707798106
88.4379537000274
88.1021089237257
87.7881870508405
87.5431126856592
87.3467570086702
87.1826129643604
87.0417822415936
86.9113285764246
86.7853197152786
86.6581431381199
86.5269709954766
86.3897663633602
86.2455387354342
86.0938668615969
85.9348969982988
85.7692156998657
85.5973262191622
85.4212231177275
85.2616658145692
85.1095396836455
84.9682121862729
84.8239524786488
84.6782024783494
84.5319171484276
84.3860033995836
84.2413150845592
84.0986429442048
83.9587125251605
83.8221796739977
83.6896306119037
83.5615817239887
83.4384809640112
83.3207099285607
83.2085844490846
83.1023585346134
83.0022229951669
82.9083159723141
82.8207223749118
82.7395010326746
82.6646888362295
82.596324663674
82.5344378937619
82.478992268142
82.4298730439886
82.3869187194458
82.3499101200889
82.3186530692972
82.2929497560023
82.272671283918
82.2577288597019
82.2479656239224
82.2432873735501
82.2434922739425
82.2486031716338
82.258504732659
82.2736393929127
82.2941074170835
82.3211310701533
82.3551314791252
82.3987208822763
82.4530808197361
82.5215167664634
82.6076927012678
82.8000941168401
82.8024482738564
83.0807669840446
85.3680651564465
89.3676221979785
95.1686121329869
102.737052056479
112.167713686029
123.129545579625
134.984754410682
147.458492606359
160.413786863577
173.652288944609
187.324917571917
202.719289176824
220.779922046624
242.171148377926
267.685232454689
298.300272557918
332.801773294302
365.355204162573
391.516055148203
406.848269875591
407.528625432201
394.949269291474
394.784373302715
396.326904403635
385.575478652232
357.226707612444
139.392671222125
134.093295536432
132.032154469249
125.938157107784
125.346959705469
129.222097817782
130.240872946318
126.78815971857
119.214984774309
109.110240667954
98.0746355491694
88.2995376140514
80.1112148095547
73.2586347983527
67.5156695296255
62.6666028456252
58.3665259699135
54.0948313779174
49.836853520778
45.6754568475187
41.7013516650884
38.0352093026487
34.9430234419514
32.5281599525693
30.6883988432234
29.6622638759468
29.5394963569128
29.5410367897356
29.6510610408632
29.6393827000896
29.6340120025092
29.6110347808259
29.5799807870743
29.5421113570042
29.4986036480253
29.4504165129183
29.3983259299328
29.343033936495
29.2851436971642
29.2251845657727
29.1636182153139
29.1008660483145
29.0374288809906
28.9742767661812
28.9127402426304
28.8434153648368
28.7370598912229
28.6318952290543
28.5324731793226
28.436190172401
28.3432723584361
28.2537214563604
28.167550578769
28.0847736732801
28.0054004305202
27.9294356353203
27.856876993172
27.7877154510806
27.72193489648
27.6595124179342
27.6004183619366
27.5446152619768
27.4920580276323
27.4426912435719
27.3964527881985
27.3532725274788
27.3130874321504
27.275844796402
27.2415166086815
27.2100863003504
27.1815092630146
27.1557047913695
27.1325717081271
27.1119812323772
27.0938243479222
27.0779936353912
27.0644307172538
27.0531004202815
27.0439260848349
27.0368670847448
27.0318165554291
27.0288017881461
27.0277681537077
27.0290093178437
27.0326183233646
27.0394277189973
27.0497890587895
27.0656220088551
27.0878720926865
27.1195282165382
27.1604187603239
27.1821909869281
27.1362521080067
27.2807199052967
27.9720016812959
29.1819434529165
30.9768027478989
33.3113096172889
36.2177189400122
39.5719120236755
43.2317514624651
47.1118665342418
51.2020646674627
55.4673005313178
60.0505695483219
65.2487442917218
71.3221700629653
78.4941572199279
86.9770055392689
96.9437548444269
107.79364439195
118.143093984249
126.422497775381
130.807799180995
130.642727793461
128.559860395422
130.652461465755
138.320039348607
146.554059067549
146.487793796528
80.4819996577779
75.9992284828067
78.2492958105154
77.6306878315838
64.3844589205673
58.6134775366596
58.3569594610189
57.3361141602274
54.1862500852122
49.7440911201623
44.905044635838
40.6292195751844
37.0294131691264
34.0691334861049
31.6207117971625
29.5439410165034
27.6325482590829
25.6630085685723
23.6414539388466
21.639575026596
19.7530867579495
18.0843465784063
16.7428660836734
15.7775493545003
15.2110463580515
15.122400136003
15.4010364842941
15.5355234942963
15.2771762002432
14.9670705514512
14.7834237070415
14.6612464800379
14.5808703269043
14.5267150291293
14.4895964086795
14.463661658333
14.4451958556373
14.4317293514706
14.4216074533226
14.4136803830252
14.4071404757945
14.4014282336977
14.39616047341
14.3905647355022
14.3794615412938
14.3588716624916
14.3307105616903
14.3037117534177
14.278075253883
14.2530736728722
14.2286986822025
14.2048771859913
14.1815627586084
14.1587250346734
14.1363446669969
14.1144106213575
14.0929172257036
14.0718627016244
14.0512476446709
14.0310739437743
14.011343680313
13.9920576112207
13.9732141878627
13.9548074629914
13.936827995248
13.9192623330449
13.902100768025
13.8853403711555
13.8689930447322
13.8530772183243
13.8375962914103
13.822534274555
13.8078616036909
13.7935312658734
13.7795012143734
13.7657257274943
13.7521810546785
13.7388497312576
13.725689955096
13.7126729347891
13.6997333562563
13.6868646203032
13.6740156280471
13.6612991908517
13.6487248414113
13.6366708684289
13.625265113254
13.6154698546671
13.6076588851814
13.6033700539753
13.6015053659328
13.5873393172306
13.5509778315676
13.5863972624026
13.8875878748497
14.4296903217377
15.2376209865348
16.283283312754
17.5715504863401
19.0440084040594
20.6519151157654
22.356237710389
24.1543178329874
26.0364410567765
28.0844697170213
30.395182338833
33.0610676373399
36.1754374803948
39.8127103940506
43.9828703284704
48.3266408641299
52.3860182599062
55.5155186571422
56.9110526834853
56.4939396646001
55.7879968363599
58.6195558375647
65.3273005861365
77.0801498363787
83.2966714295815
51.8649873784886
49.6897682870904
54.6068487594521
61.7310957948408
47.4579869677272
32.4017741300573
30.8417235864499
30.8152006929947
29.4120054645929
27.1792377186814
24.7508319788743
22.6189074189322
20.8322683732512
19.4167023453743
18.2496299122444
17.1980702772729
16.1177942507444
14.9333682420524
13.6952755251642
12.4953149270245
11.4275069681391
10.5578696230974
9.91853697294823
9.52987947825696
9.41526515738848
9.57620204916438
9.87548488372141
9.99386519797367
9.70245370206874
9.3925020642979
9.23801862911468
9.15513002170329
9.11371466688506
9.0964592258523
9.09361541599165
9.09946454667707
9.1105276907653
9.12459592726425
9.14024162928816
9.15650676890276
9.17272936117332
9.18840388990552
9.20289971989469
9.21439733134459
9.22117025427555
9.22360969553785
9.22310829058883
9.22235247272728
9.22120738248174
9.21945506636234
9.21711116568232
9.21416693228951
9.21062858712655
9.20651085099944
9.20183400048059
9.19662213636238
9.1909014119862
9.18469908339724
9.1780425517631
9.17095863745606
9.16347281356954
9.15560822544243
9.14738497388501
9.13881897037615
9.1299225263564
9.12070469665285
9.11117627686143
9.10135233531964
9.09125671794139
9.08091567915005
9.07034439748395
9.05954476948173
9.04850845486526
9.03721539586545
9.0256468018707
9.01378097128848
9.00160862968807
8.98912149890517
8.97629562474076
8.96311281381312
8.94953487905262
8.9355569988388
8.92115423472508
8.90639790703127
8.8913109051665
8.87613836484078
8.86099778688249
8.8465290728103
8.833012826926
8.82151031607753
8.81139745510425
8.79954058866036
8.77521421188022
8.77463687403447
8.93797841865515
9.24873847810531
9.71488835612938
10.3179999879087
11.0543814691559
11.8898822382276
12.8005146022788
13.7641829410154
14.777586717554
15.8363420467407
16.9876889975659
18.2734993622442
19.7322556543916
21.4071621103727
23.3293584774895
25.4812545118886
27.6516330855717
29.6427160648547
31.1609610835823
31.8311131719773
31.6456756638086
31.3962931613903
33.3504833821297
37.4983472452328
45.6938574625054
51.7045889221435
35.7150779442767
35.0126112619264
39.8299206684848
51.5624179254356
43.04055633177
21.733106050284
17.8688601611801
18.2626444830943
17.7263825856498
16.5822897584947
15.3277962299525
14.2321954221889
13.3247814928728
12.627736130526
12.0125898974701
11.3640803028018
10.6117329980351
9.77937280395898
8.9443990687504
8.18688559443957
7.5649877739575
7.10315434018371
6.80146687645551
6.66742206711588
6.71006255412437
6.90345129528991
7.1345855307704
7.20691772091771
6.98380580619176
6.76472527976473
6.66821053043091
6.62452645232918
6.609954830905
6.6119732726321
6.62344705340042
6.64032931332541
6.66015085549946
6.68136966394643
6.70299400377445
6.72436244786625
6.7450018011358
6.76448186718408
6.78215821555816
6.79689385343342
6.80865003648539
6.81778711958443
6.82514204147347
6.8317464764003
6.83749555645991
6.84232445708321
6.84625971998228
6.84931749025238
6.85152227768597
6.85290303570215
6.85349133465138
6.85332026215066
6.8524233252698
6.8508338476131
6.84858435327433
6.8457060730427
6.84222840198458
6.83817823450134
6.83357947582465
6.82845243144375
6.82281439041192
6.81668036887257
6.81006674320727
6.80299319914226
6.79548518498617
6.78756849359595
6.77925984969303
6.77056590242041
6.76148542595186
6.75200919570166
6.74212883319711
6.73183476260573
6.72112623417614
6.71000213901049
6.6984507678419
6.68646428998732
6.67402460491883
6.66113832645818
6.64780716254557
6.63410276449186
6.62008067519659
6.60595726672932
6.59189319993532
6.57843159993702
6.56590881985331
6.55528004096136
6.54651335993078
6.54201482441906
6.5281694122093
6.51635704565698
6.61572406493232
6.81937470524243
7.12914915958026
7.53182838160818
8.02106567829751
8.57371858050436
9.1752288192821
9.81154847418131
10.4793849962828
11.1764931831272
11.9335552333688
12.7734568383642
13.7146435271701
14.7795947495337
15.9835556696943
17.3065757430799
18.6140389415586
19.8002304208375
20.7107268475138
21.1426947189961
21.0895197715251
21.0011327711467
22.3207038734706
25.0109696070171
30.1491876483678
34.5355351094454
26.1085392943291
26.0926264811517
29.8311735818383
42.889170741622
41.4253627257296
18.2971775208252
11.2149931551562
11.498989221129
11.4322247441537
10.892984210047
10.2816263247099
9.74666294911986
9.30271868044327
8.95365441236843
8.58161261489082
8.11356995406491
7.54716789242489
6.94956522480778
6.38751740494924
5.91061552083959
5.54627740646184
5.29954208980868
5.16358864684398
5.14124306652672
5.23228813390718
5.40539489027219
5.57666666807668
5.62237003246807
5.46581089680979
5.31835896252236
5.25902568899292
5.23663611199387
5.23444625447688
5.24378940098255
5.25953407399224
5.27880832338313
5.29982413527633
5.32146958617191
5.34302267306706
5.36399712047334
5.38402865382932
5.40275870662204
5.41962026972802
5.43424797766929
5.44674766125899
5.45740570386532
5.46672603561894
5.47516708548964
5.4826677031991
5.4892143339503
5.49483430838845
5.49955065623823
5.50339158245036
5.50638796287229
5.50857207733505
5.50997684229087
5.51063505829333
5.5105789802478
5.50983987052623
5.50844761949885
5.50643032173994
5.50381378411605
5.50062118235835
5.49687275000439
5.49258637845747
5.48777851660688
5.48246696895157
5.47667233984115
5.47041923866509
5.46373151807493
5.45662529868366
5.44910868501236
5.44118364333044
5.43284660892098
5.42409509097459
5.41492672543946
5.40534615463335
5.39535734831538
5.38495688729444
5.37414484431877
5.36291700447244
5.35129023326365
5.33928575759357
5.32698191249646
5.3144602983987
5.30193124200772
5.2895936028392
5.27795000030546
5.26740002901834
5.25886629787612
5.25276434315646
5.25380789074883
5.24744148367883
5.23305587709431
5.29761136221473
5.44177555392189
5.66535944972465
5.95828747666377
6.31353682309031
6.71397248941932
7.14956768331238
7.61069859269724
8.09439518903045
8.5995665339361
9.14804511312695
9.75464770349495
10.4292902137411
11.1848322051804
12.0297001824067
12.9461936835038
13.8417234077014
14.650552015676
15.2805521769254
15.6064758197308
15.6158031194519
15.5878550112815
16.5043005986182
18.4003182691741
21.7983409406397
24.8547937202204
20.0994091479477
20.3563719189839
22.9893972195742
35.3349768857718
39.3016693799479
18.5848605195499
8.03490228163481
7.61860614969057
7.77517115887147
7.57680813931755
7.32514550534418
7.10155656505569
6.905427345864
6.7275402227706
6.47657665041558
6.12260912820285
5.70008414335168
5.27773543351688
4.90088423595643
4.59730937854437
4.37997718379462
4.24837532942974
4.19581155626133
4.22257514909229
4.32358616750776
4.46973140973489
4.59997029695036
4.63263848935238
4.5226896188188
4.42111607863749
4.38342649243787
4.37234181989522
4.37588344517892
4.38784289563618
4.40438803928491
4.42338619895598
4.44347839983911
4.46381922567212
4.48385185114777
4.50319549477669
4.52155264435145
4.5386260772117
4.55404031867015
4.56771041538057
4.57973965748984
4.59034515497547
4.59983787196282
4.60844313791572
4.61612859094168
4.62289901466231
4.62877959684766
4.63379417634801
4.63797014156201
4.64133674639511
4.64392415699288
4.6457628739352
4.64688317204418
4.64731476177148
4.64708643108867
4.64622572516893
4.64475858956207
4.64270898092071
4.64009861718178
4.63694684356134
4.63327123683954
4.62908854677606
4.62441692007126
4.6192769373315
4.61369201651834
4.60768417012342
4.60126867100172
4.59445424708313
4.58724479860218
4.57964038990206
4.57164244460288
4.56325338983855
4.55448148153887
4.54533425100119
4.53581398778101
4.52592651548355
4.51567721788561
4.50509065923384
4.49420145696273
4.48309369838369
4.47186662613668
4.4607280872885
4.44990312336653
4.4398674991395
4.43106589678777
4.42439681884265
4.42058044721128
4.42511025607426
4.42379378392628
4.41000506045653
4.45372282542042
4.56088148093713
4.73092771079085
4.95589748663693
5.2288375040069
5.53633998566736
5.87089937874554
6.22555228841948
6.59770722050836
6.98697606379818
7.40988288946311
7.87719174219973
8.39477304538837
8.97053428714451
9.60957694344759
10.2970376474108
10.965738802575
11.5703611071955
12.0501184013671
12.3187274225999
12.3580605500527
12.3522428441793
13.0065703374196
14.4135772066232
16.8271055667084
19.0230722734956
16.1256585755005
16.4743221579393
18.2682091320991
29.0031394750435
36.341805861295
20.3282509984962
7.00033396550658
5.38628749614783
5.56710214574475
5.55091931350426
5.49081568858425
5.43484162850565
5.36959745150227
5.28018939445024
5.10370213381066
4.83806037093956
4.52813865326597
4.23018638241425
3.97394989094315
3.77627123784809
3.64448770446565
3.5769735091574
3.56798094176263
3.6160117388634
3.7138292477343
3.83652190055611
3.93916366871955
3.96501644635919
3.88612062949965
3.81398776245329
3.78950320855972
3.78490971534175
3.79134464781345
3.80417764411554
3.82044162328051
3.83848742341852
3.85724088810041
3.87603210617344
3.89441331193671
3.91207410997324
3.92876653392722
3.94425055979489
3.95831232871586
3.97094573833904
3.98224109441984
3.99235983683266
4.00149882854003
4.00977765092496
4.01718103658026
4.02372028152409
4.02941797478571
4.03429686765625
4.03838237937383
4.04170141236293
4.04428159692052
4.04615083297623
4.04733684706992
4.04786690549249
4.04776750592566
4.04706408950888
4.0457807242329
4.04393978027668
4.04156174167191
4.03866518035838
4.03526735156136
4.03138512393466
4.02703678289058
4.02224274512106
4.01702542035481
4.01140539303139
4.00539728125434
3.99901027682225
3.99224975892463
3.98511847549387
3.97762075744015
3.96976248881589
3.96155449222697
3.95300685304167
3.94412590760798
3.93492168080861
3.92540632061068
3.91560994738108
3.90557624810905
3.89539311106929
3.88517097904998
3.87511486287181
3.86546516585499
3.85667475725718
3.84921500624184
3.84395610791419
3.84181458664632
3.84833864785925
3.85033909457691
3.83826872223875
3.86875058356526
3.95111771073544
4.08515097791427
4.26442824370119
4.4823675672892
4.72808626135974
4.99562940741361
5.27973444752815
5.57816778984397
5.89100285521638
6.23129457565345
6.60748631234636
7.02337924561395
7.4841381684117
7.99310935798775
8.53806837195087
9.06853587225679
9.55090956766445
9.94147853902728
10.1749581285253
10.2283688782046
10.2276536249476
10.7051157126882
11.7819077475
13.5906528290773
15.2415751327939
13.355816368297
13.7209152026727
14.9558666599905
23.7621869613785
33.1694061436003
22.3060912032724
7.38923546751867
4.18603719025732
4.20243146286124
4.27316617936802
4.30729793368376
4.33600914077624
4.3383452863736
4.29774343891694
4.17320916394423
3.97596099647001
3.74898474733521
3.53600540281969
3.35789058457643
3.22632370539546
3.14629283026426
3.11604658162011
3.13048842408522
3.18690212558473
3.27741764963758
3.38132680092967
3.46482227498987
3.48673640571019
3.42902984009517
3.37669019293886
3.36086588349074
3.36038616888348
3.36848273856502
3.38158413290301
3.39732747283669
3.414396954185
3.43191886261007
3.44934640304663
3.4663092645432
3.48254858613559
3.49785832992891
3.51204778660671
3.52500614077147
3.53674748113598
3.547347202791
3.55692443524837
3.56560673500219
3.57346180653924
3.58048429790722
3.58668750866393
3.59209170537286
3.596718114889
3.60059013141369
3.60373244977224
3.6061704479543
3.60792981100957
3.60903616480443
3.60951482031453
3.60939049422676
3.60868703898509
3.60742715088005
3.60563208706149
3.6033215172022
3.60051356360814
3.59722537833087
3.59347403847487
3.58927803048492
3.58465771092979
3.57963478454907
3.57422883265261
3.56845408584464
3.56232023333851
3.55583395572833
3.54900018284057
3.54182557838829
3.5343186888802
3.52649226560799
3.51835828365859
3.50992603300623
3.50120865734655
3.49222317144238
3.4830036653569
3.47359993874425
3.46410196151341
3.45462699079184
3.44537576735021
3.43659640172531
3.4287200786658
3.42223043872208
3.41796419421292
3.41695528278829
3.42446358534253
3.42856545353854
3.41850677317375
3.44025710350578
3.50515223407708
3.61357482339228
3.76030106507987
3.9392413016002
4.14133395439784
4.36165101356386
4.5960681596443
4.84267385408163
5.10186462978707
5.38428514631269
5.6969045445031
6.04241028991162
6.42437717680049
6.84520357494558
7.29500601419086
7.73499883371572
8.13882791770387
8.47245950864498
8.68223656599213
8.74090954184412
8.73651635512249
9.08953025059653
9.9307365020352
11.3367985418518
12.6277915442118
11.3359123526793
11.6866436890357
12.5753089677704
19.4852999884197
29.9648977749549
23.7614586961998
8.62789937522934
3.69193530609439
3.346943389432
3.44123617301833
3.51731072381832
3.58500551212492
3.62105331880844
3.60870789600181
3.52142510575611
3.3750797815405
3.20717683493568
3.05201845448144
2.92551890889019
2.83666587443473
2.78921402169208
2.78141519626457
2.80855510479467
2.86718008012861
2.94957711470958
3.03866251175747
3.10839699089182
3.12791121239291
3.08529809954895
3.04697333018911
3.03725606927069
3.03966511669263
3.04889290091462
3.06211048821426
3.07739562182149
3.09367335398201
3.11021818035264
3.12657444601034
3.1424302804903
3.15756692510549
3.17181322022107
3.18502303801357
3.19714109584717
3.20818574314595
3.21821838841296
3.2273267709714
3.23559529862605
3.24306469247911
3.24973532689911
3.25562078895624
3.26073947834817
3.26511118285562
3.26875756481431
3.27170150583621
3.27396659290538
3.27557680270378
3.27655618862141
3.27692864444444
3.27671764180278
3.27594596957357
3.27463545666226
3.27280671552425
3.27047901855651
3.26767037700189
3.26439809376782
3.26067961513183
3.25653376877641
3.25198102611786
3.24704269563894
3.2417377297598
3.23608022395253
3.23008045108828
3.22374632355482
3.21708466032427
3.21010410409566
3.20281536522173
3.19523272462479
3.18736960363641
3.1792375063505
3.1708519333678
3.1622334640473
3.15341900976562
3.14446244487797
3.13545460924075
3.12651624451199
3.11784286641902
3.10968474322738
3.10245194322001
3.09662975813386
3.09301748695531
3.09270911480133
3.10052353686315
3.10586733693934
3.09776367723332
3.113612656858
3.16574416468001
3.25520231342125
3.37773683765595
3.52779042021764
3.69767715815295
3.88318978511709
4.08099507687328
4.28947055183095
4.50925323010887
4.74923654700372
5.01537184106389
5.30972696666393
5.63493642742522
5.99291781236516
6.37587414413752
6.75359989193651
7.1043823437817
7.39961791540956
7.59192647271564
7.65026770165138
7.63699558016875
7.89934112357015
8.56633407594943
9.68726246297046
10.7273579839488
9.80720927420286
10.1316367943267
10.8144693591563
16.0549163768589
26.7898582562627
24.5531925132171
10.2723509643202
3.75438979846069
2.82146721839738
2.88148333356698
2.97195304970531
3.05452789641262
3.10628761588635
3.11070380833876
3.0500432752976
2.9407735866473
2.81475531605145
2.69958167197181
2.60818087826578
2.54788486562465
2.52163136715576
2.52765805308239
2.56150334899993
2.61934396941275
2.69399385496163
2.77133890036904
2.83090494718588
2.84897844996875
2.81760747406722
2.78969555769375
2.78458583303101
2.7892334760342
2.79938514304471
2.81275243944559
2.82774595306401
2.8434716550839
2.8593181010078
2.874900147878
2.88995217967598
2.90428803463372
2.91776547178356
2.93027669823146
2.9417929124177
2.95233273866916
2.96194548663969
2.97069588020182
2.97864090316843
2.98580659443816
2.99219665207149
2.99782437349072
3.00270675694586
3.00686241837916
3.01031167452171
3.01307603440731
3.01517776781998
3.01663963659471
3.01748462022478
3.01773569167551
3.01741556401162
3.01654643347124
3.01514970990325
3.01324577601429
3.01085387708188
3.00799221999209
3.00467849803435
3.00093069783313
2.99676814633229
2.99221161987496
2.98728231611533
2.98199887791384
2.97637548630635
2.97042309433874
2.9641508239594
2.95756720140652
2.95068261924026
2.94350962812687
2.93606378574425
2.92835965968709
2.92041045491339
2.91223348393441
2.90385197422294
2.89530482377058
2.88664861243462
2.87797402588011
2.86940303984276
2.86112523269268
2.85338909215702
2.84658401996301
2.84118926854991
2.83796414645495
2.83802094224661
2.84568336101328
2.85165309429058
2.84530178309252
2.85710087461936
2.89966095925122
2.97464397577667
3.07861408382846
3.20654785736191
3.35183615354192
3.51080247764588
3.68068318942735
3.86011925359435
4.04993764197607
4.25771499892697
4.48865091970808
4.74446217080078
5.02723429320447
5.33870595255043
5.67297453843571
6.00633402826104
6.31998989522363
6.58809418646604
6.76629073015516
6.82026118101816
6.79465288951171
6.98932787109824
7.52419649690097
8.43396384925869
9.29027749189767
8.61496179411685
8.90948640151235
9.47170703099396
13.3411480408605
23.7181767930659
24.6705305912862
12.1762235646744
4.29036471368749
2.54147689478076
2.49584908389903
2.58326331497546
2.66810233537169
2.72590538234086
2.74029373183106
2.69862869327818
2.6163180671473
2.52035396584425
2.43348782037515
2.3666527466485
2.32601543768526
2.31389572623782
2.32850516252076
2.36559532087377
2.42123214661425
2.48889888690639
2.55687585912424
2.60878691811584
2.6260856599787
2.6034402279133
2.58360567043291
2.58219004718559
2.58872927496433
2.59975338698941
2.61337964296386
2.62827718872711
2.6436922557579
2.65910403254564
2.67418391218512
2.6887042674861
2.7025063408077
2.7154724187399
2.72752388866635
2.73864511898234
2.7488534013972
2.75818805750844
2.76669705837802
2.77441967246592
2.78137367286939
2.78756472734691
2.79300574916582
2.79771276375167
2.80170353582397
2.8049974278982
2.80761499851772
2.80957763906781
2.81090734323962
2.81162646156222
2.81175748448765
2.81132279296162
2.81034440107332
2.80884368884085
2.80684116906653
2.80435638149534
2.80140799858919
2.79801431999013
2.79419403736451
2.78996713401884
2.78535487873232
2.78037861711486
2.77505695633304
2.76940435442932
2.76343253971176
2.75715184558139
2.75057238888036
2.74370615936672
2.73656733471272
2.72917258984911
2.72153743411983
2.71367640977938
2.70560824515828
2.69735815668668
2.68896645208814
2.6804913628787
2.67202273060114
2.66368215897036
2.65565279654301
2.64817856598918
2.6416286621871
2.63647076407732
2.63342268072393
2.63358474094034
2.64078293049923
2.646931220281
2.64207610768125
2.65106979209736
2.68631035824255
2.74998438745894
2.8393491425524
2.94989752310355
3.07588706714694
3.2140488369835
3.36204484647456
3.51876168188152
3.68518477714595
3.86787237380085
4.07143733240325
4.29739749091092
4.54754131893476
4.82364619039713
5.12156423752523
5.42259159753348
5.70955111665686
5.95749420775234
6.1230530441054
6.16945713862379
6.12914838629431
6.27278969779924
6.70554465752863
7.45371045381375
8.16980997184427
7.66221694566115
7.92703463744315
8.41679128978546
11.216485123984
20.8177770028664
24.1979436301105
14.1145064362478
5.1046070385825
2.4794035971382
2.23200225904681
2.29894010084787
2.3787978068123
2.43721313336295
2.45738058304319
2.42933980127908
2.36683222449766
2.29283932665589
2.22650420413739
2.17730479732814
2.15051678885629
2.14796981503189
2.16786003056986
2.20615490333005
2.25898040661407
2.32051451527671
2.38096607541597
2.42705358485405
2.4440708680789
2.42845046560466
2.41512673092621
2.41683415234692
2.42508618660204
2.43700926704938
2.45103253952557
2.46603044690284
2.48136075838452
2.49657654073462
2.51139583882848
2.52562312187115
2.53912317602582
2.55179892198839
2.56359327551518
2.5744974334617
2.58452687098638
2.59371293781343
2.60209149291484
2.60969023036716
2.6165221660928
2.6225942013982
2.6279189777848
2.63251193272144
2.63639030530825
2.63957287279519
2.64207963036049
2.6439314865883
2.64515006503927
2.64575748097812
2.64577612822696
2.64522842982616
2.64413657707594
2.64252226043148
2.64040643757548
2.63780922486833
2.6347499997937
2.63124786355338
2.62732236832187
2.6229943052242
2.61828561600984
2.61321803025318
2.60781035879842
2.60207750554853
2.59603206602662
2.58968560179492
2.58304974557844
2.57613798171797
2.56896597458302
2.56155141885005
2.55391062635116
2.54605921546329
2.53801703884697
2.5298108393835
2.52148187402868
2.51308926297962
2.50472152736796
2.49649873430347
2.48859727883213
2.48125455408448
2.47482003586192
2.46974587190728
2.46670764830438
2.46677206139172
2.47329108753299
2.47928883812971
2.47566453346526
2.48270349294133
2.51226185641149
2.56693747321126
2.64458196234175
2.74117727018602
2.85169433600017
2.97318935572939
3.10365636767607
3.24221675553833
3.38999422558707
3.55273929345697
3.73458563919108
3.93694271051852
4.16147724640063
4.41018003552645
4.68055134445271
4.95770421773695
5.2247904180906
5.44978309836876
5.59463691273229
5.63818417148844
5.58977166637495
5.69512233311468
6.04772316004199
6.6691505976902
7.27480125252711
6.88561979348501
7.12262244626081
7.56503747387688
9.56426475177545
18.117705518569
23.2504952580759
15.899223950752
6.20287962217501
2.64873239389522
2.06704519742343
2.08821935270002
2.15736705033876
2.21295627714614
2.23614785192706
2.21795275225196
2.17021158186087
2.11260394561708
2.06149053281114
2.02521957523259
2.00835633509355
2.01233987205932
2.03537616157276
2.07366585483493
2.12350103649091
2.17972345058317
2.23410327673368
2.27574621796033
2.29286231475768
2.28308368297075
2.27519075231469
2.27965945671359
2.28954338094934
2.30243207120978
2.31699903935657
2.33228450970998
2.34773675458887
2.36297029176922
2.37774255572654
2.39188571761149
2.40528509756133
2.41786075321353
2.42957161245506
2.4404126165288
2.45039748700123
2.45955139913948
2.4679015349435
2.47546798700927
2.48226102222546
2.48828840711836
2.49356271090927
2.49809912952158
2.50191469047962
2.50502792704324
2.50745862366941
2.50922756315438