/*--------------------------------*- C++ -*----------------------------------*\
  =========                 |
  \\      /  F ield         | OpenFOAM: The Open Source CFD Toolbox
   \\    /   O peration     | Website:  https://openfoam.org
    \\  /    A nd           | Version:  7
     \\/     M anipulation  |
\*---------------------------------------------------------------------------*/
FoamFile
{
    version     2.0;
    format      ascii;
    class       surfaceScalarField;
    location    "10000";
    object      phi;
}
// * * * * * * * * * * * * * * * * * * * * * * * * * * * * * * * * * * * * * //

dimensions      [0 3 -1 0 0 0 0];

internalField   nonuniform List<scalar> 
30950
(
5.00276807264136e-05
-7.17377521684097e-06
4.55781953890372e-05
4.4494853372857e-06
7.91826343622392e-06
3.76599319527168e-05
-1.66798530178038e-05
2.4598116454147e-05
-1.93838013793134e-05
2.70394836153284e-06
-1.27786773286062e-05
-6.60512405069197e-06
-8.8123673954933e-06
-3.96630993316399e-06
-6.60734923776193e-06
-2.20501815770035e-06
-5.30817277672925e-06
-1.29917646101662e-06
-4.3260093286206e-06
-9.82163448104031e-07
-3.78364310065986e-06
-5.42366227965736e-07
-3.61486792665251e-06
-1.68775174029419e-07
-3.76029626141215e-06
1.45428334752186e-07
-4.37130364730689e-06
6.11007385893479e-07
-5.50223522983084e-06
1.13093158256832e-06
-7.15831235912027e-06
1.65607712928186e-06
-9.11040690848425e-06
1.95209454939114e-06
-1.12361787924725e-05
2.12577188395905e-06
-1.33528092635499e-05
2.11663047105904e-06
-1.51844117506671e-05
1.83160248713693e-06
-1.64584288387468e-05
1.2740170880579e-06
-1.72817159920176e-05
8.23287153239046e-07
-1.76332045227842e-05
3.51488530780513e-07
-1.72520050434422e-05
-3.81199479393288e-07
-1.61724576339096e-05
-1.07954740951969e-06
-1.44799524689586e-05
-1.6925051649641e-06
-1.29993152325115e-05
-1.48063723644413e-06
-1.95110744653926e-05
6.51175923290326e-06
-3.076861265194e-05
1.12575381865358e-05
-4.03809646749387e-05
9.61235202295574e-06
-4.84985138988198e-05
8.1175492238723e-06
-5.53686872387772e-05
6.87017333998285e-06
-6.12429603505414e-05
5.87427311176094e-06
-6.62970882275647e-05
5.05412787703254e-06
-7.06866607298222e-05
4.38957250225181e-06
-7.45146933660769e-05
3.82803263626875e-06
-7.78618195422392e-05
3.347126176162e-06
-8.07838337079535e-05
2.9220141656856e-06
-8.33228855020638e-05
2.53905179415204e-06
-8.55096911291848e-05
2.18680562710165e-06
-8.73676004119788e-05
1.85790928281658e-06
-8.89145186678167e-05
1.54691825583926e-06
-9.01648832690153e-05
1.25036460121192e-06
-9.11313218285848e-05
9.66438559539976e-07
-9.18252662235306e-05
6.93944394954078e-07
-9.22554955548067e-05
4.30229331249833e-07
-9.24290624289662e-05
1.73566874146283e-07
-9.23554881865987e-05
-7.3574242376907e-08
-9.20459088423099e-05
-3.09579344284683e-07
-9.1511339504249e-05
-5.34569338062305e-07
-9.07636364173557e-05
-7.47703086877634e-07
-8.98150101318733e-05
-9.48626285446563e-07
-8.86779356986668e-05
-1.13707443322594e-06
-8.73651762591628e-05
-1.31275943948318e-06
-8.58897260085191e-05
-1.47545025063761e-06
-8.42647523386082e-05
-1.62497366992684e-06
-8.25035005953301e-05
-1.76125174329511e-06
-8.06192022547e-05
-1.88429834062872e-06
-7.86249766410279e-05
-1.9942256137107e-06
-7.65337374024171e-05
-2.09123923859801e-06
-7.43581107819187e-05
-2.17562662050847e-06
-7.21103428149118e-05
-2.24776796699107e-06
-6.98022358809789e-05
-2.30810693392072e-06
-6.74450381106332e-05
-2.35719777034664e-06
-6.50494135733205e-05
-2.39562453726856e-06
-6.26253297187045e-05
-2.42408385462712e-06
-6.01821504413037e-05
-2.4431792773658e-06
-5.77286850101088e-05
-2.45346543119994e-06
-5.52734445697753e-05
-2.4552404402989e-06
-5.28249026260094e-05
-2.44854194376185e-06
-5.03913153423488e-05
-2.43358728365184e-06
-4.79803761207092e-05
-2.41093922167033e-06
-4.55991382579051e-05
-2.38123786279424e-06
-4.32536781171789e-05
-2.34546014074123e-06
-4.09494658608701e-05
-2.30421225626536e-06
-3.86913290802605e-05
-2.25813678061057e-06
-3.64840326039861e-05
-2.20729647626048e-06
-3.43327630782193e-05
-2.15126952580972e-06
-3.22425737516569e-05
-2.09018932650078e-06
-3.02191217378118e-05
-2.0234520138384e-06
-2.82675381692175e-05
-1.95158356864321e-06
-2.63944459071661e-05
-1.87309226207811e-06
-2.46060623714942e-05
-1.78838353569122e-06
-2.29129887510337e-05
-1.69307362045099e-06
-2.13259119452886e-05
-1.58707680574398e-06
-1.98651880275809e-05
-1.46072391768999e-06
-1.85516778174944e-05
-1.31351021004661e-06
-1.74242845163283e-05
-1.12739330117327e-06
-1.65256301997283e-05
-8.98654316598191e-07
-1.59150312277088e-05
-6.10598971979069e-07
-1.56456083601219e-05
-2.69422867589837e-07
-1.57811277500819e-05
1.35519389935284e-07
-1.64470649665467e-05
6.65937216490881e-07
-1.60187747714854e-05
-4.28290195027695e-07
-1.52693981534712e-05
-7.49376618005173e-07
-1.35205407217568e-05
-1.74885743168279e-06
-1.10971652121962e-05
-2.42337550951147e-06
-7.80605112319202e-06
-3.29111408895058e-06
-3.69235356547606e-06
-4.11369755770933e-06
1.53102302041885e-06
-5.2233765858877e-06
7.55518546335809e-06
-6.02416244296039e-06
1.42810155051867e-05
-6.72583004185027e-06
2.13166200515508e-05
-7.03560454634601e-06
2.82986653306197e-05
-6.98204527908205e-06
3.42248707537959e-05
-5.92620542318385e-06
3.931860883645e-05
-5.09373808265274e-06
4.39994550001178e-05
-4.68084616364583e-06
4.85661938074091e-05
-4.5667388072846e-06
5.36542124985657e-05
-5.08801869116107e-06
6.04282181524161e-05
-6.77400565388194e-06
7.07888334142373e-05
-1.03606152618399e-05
8.41480980863967e-05
-1.33592646721446e-05
0.000101674769194824
-1.7526671108424e-05
0.000126228184563728
-2.45534153689337e-05
0.000154810337112894
-2.85821525491698e-05
0.000170693139029163
-1.58828019162591e-05
0.000135480911721259
3.52122273078761e-05
8.52618204364983e-05
5.02190912846325e-05
4.48579109418765e-05
4.04039094934982e-05
2.00400543351488e-06
0.000172138994160134
-9.89601010036685e-06
0.000154648119767104
2.19403597302384e-05
6.23350085912282e-05
0.000129973043128438
-2.30091457305475e-05
0.000109942270776075
-4.82225899864225e-05
2.79173926175039e-05
-3.57197745798172e-05
-1.91079394572503e-05
-2.50383664980907e-05
-1.46477180148942e-05
-1.92045049374209e-05
-8.0388797184368e-06
-1.56834348865393e-05
-4.82024651189972e-06
-1.32150340162711e-05
-3.4505643183471e-06
-1.18987949764417e-05
-1.85860526780841e-06
-1.16898684418606e-05
-3.77701708616109e-07
-1.24621983197149e-05
9.17758212657376e-07
-1.45897205965672e-05
2.73852966275951e-06
-1.8212842958437e-05
4.75405394442946e-06
-2.32326557099191e-05
6.67588988080819e-06
-2.90668120461536e-05
7.78625088565428e-06
-3.53266440954299e-05
8.38560393321723e-06
-4.15388754544197e-05
8.32886183003209e-06
-4.70830595161234e-05
7.37578654886175e-06
-5.14747070631072e-05
5.66566463499037e-06
-5.49088078776634e-05
4.25738796777112e-06
-5.73136278484002e-05
2.75630850150472e-06
-5.82122035436258e-05
5.17376215864757e-07
-5.76584380492477e-05
-1.63331290387827e-06
-5.67687668962687e-05
-2.5821763180545e-06
-5.97820426112302e-05
1.53263847856708e-06
-7.99051082134204e-05
2.66348248350644e-05
-0.00010878209393584
4.01345239090447e-05
-0.000133253323286461
3.40835813735853e-05
-0.00015311137368856
2.79755996260588e-05
-0.000169536329651084
2.32951293025102e-05
-0.000183262342100573
1.96002855612403e-05
-0.000194849710374447
1.66414961509427e-05
-0.000204700705213157
1.42405673409933e-05
-0.000213096080654777
1.22234080778476e-05
-0.00022023955912817
1.04906046495513e-05
-0.000226277604854767
8.96005989220409e-06
-0.000231319463104823
7.58091004421086e-06
-0.00023544781416552
6.3151566878341e-06
-0.000238727164698737
5.13725981604789e-06
-0.000241209447456939
4.0292010139648e-06
-0.000242938412671184
2.97932981554193e-06
-0.000243953588599598
1.98161448792485e-06
-0.000244293114272606
1.0334700679999e-06
-0.000243990476326246
1.27591384884539e-07
-0.000243069417931714
-7.47491520442271e-07
-0.000241556713448124
-1.5862787259618e-06
-0.000239488033082774
-2.37825970960752e-06
-0.000236898378325026
-3.12422409589376e-06
-0.00023382132523388
-3.8247561780366e-06
-0.000230290440849699
-4.47951066955758e-06
-0.000226339116315368
-5.08839896762627e-06
-0.000222000606783989
-5.65126897089311e-06
-0.00021730794622148
-6.16811081316668e-06
-0.000212293845374773
-6.63907451664141e-06
-0.000206990545757449
-7.06455136063876e-06
-0.000201429677078455
-7.44516701961118e-06
-0.000195642113364321
-7.78178932790818e-06
-0.000189657838624386
-8.07551397847896e-06
-0.000183505828312069
-8.32763693287392e-06
-0.000177213920545455
-8.53967573364724e-06
-0.000170808717942876
-8.71330953653424e-06
-0.000164315448505102
-8.85046720804771e-06
-0.000157757930502982
-8.95314253934864e-06
-0.000151158506768624
-9.02350758898415e-06
-0.000144538268636394
-9.06341740956665e-06
-0.000137917308562122
-9.07442550548683e-06
-0.000131315192858313
-9.05735614414223e-06
-0.000124751233703809
-9.01250109832209e-06
-0.000118244067346549
-8.9407536408827e-06
-0.000111811076134248
-8.84393043395539e-06
-0.000105468198087585
-8.7241159093744e-06
-9.922961835116e-05
-8.58403987719735e-06
-9.31083976861285e-05
-8.42543292129897e-06
-8.71167781946493e-05
-8.24975627211263e-06
-8.12672575984176e-05
-8.05681707255121e-06
-7.55732349252505e-05
-7.84529219897529e-06
-7.00483772304261e-05
-7.61504702131217e-06
-6.47075008010433e-05
-7.36432844321221e-06
-5.95656414348899e-05
-7.09344293476895e-06
-5.46408538289345e-05
-6.79787986795474e-06
-4.99532540588569e-05
-6.47598330568643e-06
-4.55315976954333e-05
-6.11472998388995e-06
-4.14104854774733e-05
-5.70818902372427e-06
-3.76432394550736e-05
-5.22796994018505e-06
-3.42946530315403e-05
-4.66209663362492e-06
-3.14666717304827e-05
-3.95537460220921e-06
-2.92825564432069e-05
-3.08276960382096e-06
-2.79187259821939e-05
-1.97442943302536e-06
-2.75768580881382e-05
-6.11290761620382e-07
-2.85131415676669e-05
1.07180286941282e-06
-2.98871890786216e-05
2.03998472735548e-06
-2.84546877947331e-05
-1.86079147902621e-06
-2.55498673214929e-05
-3.6541970911848e-06
-2.04228276081211e-05
-6.87589714503237e-06
-1.35650674901315e-05
-9.2811356276036e-06
-4.80786785914685e-06
-1.20483137199747e-05
5.87626425625315e-06
-1.4797829673115e-05
1.88314356660791e-05
-1.81785479957365e-05
3.34797459703256e-05
-2.0672472747146e-05
4.9495858893895e-05
-2.27419429653972e-05
6.61780430739784e-05
-2.37177887264651e-05
8.27073140098053e-05
-2.35113162149167e-05
9.73481422875879e-05
-2.05670337009067e-05
0.000110190037313944
-1.79356331089769e-05
0.000121890191061144
-1.63809999108864e-05
0.000133132653026013
-1.58092007720783e-05
0.00014514862107998
-1.7103986745167e-05
0.000160355727090957
-2.19811116648024e-05
0.000182449810333386
-3.24546985042487e-05
0.000211542654006254
-4.24521083450193e-05
0.000250070161086491
-5.60541781886363e-05
0.00030248290571064
-7.69661599931031e-05
0.000366194250958029
-9.22934977965873e-05
0.000414874768777123
-6.45633197353409e-05
0.000383092264615384
6.69947314696076e-05
0.00029372914889663
0.000139582207003261
0.000199257688046342
0.000134875370342937
3.18449342042121e-05
0.000307030117017437
3.58695939585352e-06
0.000276727814700086
5.22426620475265e-05
0.000150108672485254
0.00025659218534321
-8.69704188956087e-07
0.000260920647450411
-6.70739868321567e-05
9.41216752606908e-05
-5.70378262168007e-05
-2.91441000725884e-05
-4.09508446006529e-05
-3.07346996311057e-05
-3.18928959421661e-05
-1.70968283768703e-05
-2.64105315225263e-05
-1.03026109314901e-05
-2.27312129662523e-05
-7.1298828746048e-06
-2.08703501717666e-05
-3.71946806223823e-06
-2.08668769240424e-05
-3.81174956307526e-07
-2.25709422198133e-05
2.6218235084163e-06
-2.6524076855174e-05
6.69166429813082e-06
-3.29087194767018e-05
1.11386965658911e-05
-4.14461777692211e-05
1.52133481733431e-05
-5.12341241548852e-05
1.75741972713211e-05
-6.16119530985744e-05
1.8763432876916e-05
-7.18747197521422e-05
1.85916284836362e-05
-8.12355712414316e-05
1.67366380381613e-05
-8.92224768850129e-05
1.36525702785902e-05
-9.61130700446173e-05
1.11479811274196e-05
-0.000101853540673052
8.49677913000209e-06
-0.000106013301429986
4.67713697275472e-06
-0.000108978772356272
1.33215802245606e-06
-0.000113322895617409
1.7619469430656e-06
-0.000125273515647418
1.34832585084975e-05
-0.000156147406315566
5.75087155032602e-05
-0.000194316332235713
7.83034498292437e-05
-0.000225237639967076
6.50048891048797e-05
-0.000249111490326322
5.18494499852595e-05
-0.000268091578705802
4.22752176819267e-05
-0.000283367251345157
3.48759582005459e-05
-0.000295792066934931
2.90663117406816e-05
-0.000305932085750587
2.43805861566114e-05
-0.000314182057806835
2.04733801341051e-05
-0.000320821634713786
1.71301815564861e-05
-0.00032605449447696
1.41929196554273e-05
-0.000330033031239777
1.1559446807034e-05
-0.000332874530729584
9.15665617766175e-06
-0.000334671679816644
6.93440890312766e-06
-0.000335500044413114
4.85756561045681e-06
-0.000335423130319518
2.90241572192651e-06
-0.000334495958118659
1.05444228705571e-06
-0.000332769286089809
-6.93201960871759e-07
-0.000330294401961069
-2.34729274384341e-06
-0.000327120857592221
-3.9210358892477e-06
-0.000323294321859589
-5.41281445858498e-06
-0.000318858937738992
-6.81364383018824e-06
-0.000313857642869489
-8.12551896535442e-06
-0.000308332184506137
-9.35021454138744e-06
-0.000302323281018818
-1.04884141569019e-05
-0.000295870758809326
-1.15409211771415e-05
-0.000289013644632074
-1.25083831481728e-05
-0.000281790156823909
-1.33915986213351e-05
-0.000274237663678251
-1.41915676622645e-05
-0.000266392601611195
-1.49096134277347e-05
-0.000258290388765083
-1.55473798657428e-05
-0.000249965334294708
-1.61068437982603e-05
-0.000241450551320197
-1.65902969530332e-05
-0.000232777876192085
-1.70003120610573e-05
-0.000223977780003296
-1.73397719223828e-05
-0.000215079296190709
-1.7611793349103e-05
-0.000206109934573481
-1.78198288252986e-05
-0.000197095677087759
-1.79674000250844e-05
-0.00018806100774907
-1.80581769276997e-05
-0.000179029180716815
-1.80952444418032e-05
-0.000170022549506199
-1.80810567160824e-05
-0.000161063026306324
-1.80168793439503e-05
-0.000152172222908035
-1.79033044966102e-05
-0.000143370953900057
-1.77420226489003e-05
-0.000134678715576211
-1.75361687578551e-05
-0.00012611349529535
-1.72893361901976e-05
-0.000117691685990594
-1.70058491819107e-05
-0.000109428725173113
-1.66883937387237e-05
-0.000101339630528916
-1.63388509163105e-05
-9.34401400188095e-05
-1.5956307582634e-05
-8.57471877821043e-05
-1.55382444357282e-05
-7.82785795016278e-05
-1.50836553017775e-05
-7.1053555732731e-05
-1.45893522120965e-05
-6.4092814152914e-05
-1.40541845146193e-05
-5.74206416030019e-05
-1.34700524179367e-05
-5.10660939341702e-05
-1.28305309744888e-05
-4.50678674077144e-05
-1.21129565104101e-05
-3.94758668374349e-05
-1.13001895940218e-05
-3.436049254452e-05
-1.03433442330909e-05
-2.98133093589334e-05
-9.20927981918091e-06
-2.5969197416039e-05
-7.79948654506488e-06
-2.2997419411061e-05
-6.05454760880539e-06
-2.11556141276887e-05
-3.81623471644126e-06
-2.07366135350398e-05
-1.03029135427009e-06
-2.21831677966938e-05
2.51835713108882e-06
-2.3591140317809e-05
3.44795724852193e-06
-2.13564502756816e-05
-4.09548152110563e-06
-1.67451865328755e-05
-8.26546083398288e-06
-9.51184775279081e-06
-1.4109235925113e-05
4.84091829868576e-09
-1.87978242986685e-05
1.18345509855646e-05
-2.38780237872397e-05
2.61554239789741e-05
-2.9118702666522e-05
4.32048255222608e-05
-3.52279495390205e-05
6.24660895634696e-05
-3.99337367883335e-05
8.34715715616939e-05
-4.37474249636034e-05
0.000105506523377996
-4.57527405427893e-05
0.000127599425155107
-4.56042179921013e-05
0.000148042094796472
-4.10097033422996e-05
0.000166605074852792
-3.64986131653148e-05
0.000183840971423566
-3.3616896481708e-05
0.000200520679900785
-3.24889092492473e-05
0.000217958521578062
-3.45418284224818e-05
0.00023890878161691
-4.29313717036732e-05
0.000267538961701095
-6.10848785884604e-05
0.000304856117357404
-7.97692640013531e-05
0.000353301217996269
-0.00010449927882748
0.000416480606422688
-0.000140145548419508
0.000492741932318175
-0.000168554823692068
0.000559986340126714
-0.000131807727543887
0.00055733548750465
6.96455840916256e-05
0.000480918480116043
0.000215999214391826
0.000375520946010654
0.000240272904447792
8.68527937017972e-05
0.000419762758347899
2.95696825719906e-05
0.000384476173689881
8.7529246705497e-05
0.000248430449682585
0.000392637909350409
4.67818354720142e-05
0.000462569261661104
-7.17221172574565e-05
0.000212625627990212
-7.56127529297442e-05
-2.52534644002635e-05
-5.62553810348658e-05
-5.00920715260365e-05
-4.43955264840563e-05
-2.89566829276926e-05
-3.73520152121328e-05
-1.73461222034296e-05
-3.28009369895471e-05
-1.16809610971791e-05
-3.07131152832056e-05
-5.80728976857595e-06
-3.12171006487825e-05
1.22810409320324e-07
-3.41843430286096e-05
5.58906588831536e-06
-4.02541887299515e-05
1.27615099995118e-05
-4.95627482041538e-05
2.04472560400245e-05
-6.15729806199091e-05
2.72235805890982e-05
-7.50496546198334e-05
3.10508712712181e-05
-8.90576383657399e-05
3.27714166228376e-05
-0.000102713210773327
3.22472008912106e-05
-0.000115203389125052
2.92268163898817e-05
-0.000126183631654332
2.46328128078223e-05
-0.000136022447907617
2.09867973807599e-05
-0.000144798896752751
1.72732279751273e-05
-0.000152437139897576
1.2315380117609e-05
-0.000159896983247326
8.79200137217976e-06
-0.000170333569301631
1.21985329974045e-05
-0.000189261078575367
3.24107677822725e-05
-0.000223161694494991
9.14093314228803e-05
-0.000260002888209323
0.000115144643543564
-0.000288389993622009
9.33919945175763e-05
-0.000309742078750409
7.32015351137112e-05
-0.000326405104795495
5.89382437270551e-05
-0.000339568038953181
4.80388923582083e-05
-0.000350053366722142
3.95516395096225e-05
-0.000358382332855621
3.27095522901052e-05
-0.000364918818283496
2.70098655619676e-05
-0.000369917599830767
2.21289631037477e-05
-0.000373565400693471
1.78407205181088e-05
-0.000376002014569297
1.39960606828691e-05
-0.000377335797182305
1.04904387906599e-05
-0.000377652826927617
7.25143864843033e-06
-0.000377023806541303
4.22854522413575e-06
-0.000375508689644161
1.38729882478838e-06
-0.000373162400809443
-1.29184654764111e-06
-0.000370036446010027
-3.81915676029589e-06
-0.000366177544946381
-6.20619380749921e-06
-0.000361633837292774
-8.4647435428724e-06
-0.000356452759127801
-1.05938926235552e-05
-0.000350677017011175
-1.25893859468216e-05
-0.000344348402771205
-1.44541332053384e-05
-0.000337507854734807
-1.61907625778001e-05
-0.000330195416056349
-1.78008528353486e-05
-0.000322450392195487
-1.92859450380076e-05
-0.000314311406203261
-2.06473691403773e-05
-0.000305816375125556
-2.18866296990651e-05
-0.00029700245135212
-2.30054914357358e-05
-0.000287905932914556
-2.40061318653175e-05
-0.000278562169193021
-2.48911435872618e-05
-0.000269005465374229
-2.56635476170479e-05
-0.00025926899161079
-2.6326770716443e-05
-0.000249384697310055
-2.68846063617774e-05
-0.000239383223320985
-2.73412459114342e-05
-0.000229293823727963
-2.77011929421148e-05
-0.000219144289879206
-2.79693626740766e-05
-0.000208960937496054
-2.81507524082555e-05
-0.000198768656815939
-2.82504576078065e-05
-0.000188591164986856
-2.8272736270864e-05
-0.00017845134394345
-2.82208777594907e-05
-0.000168371686384083
-2.80965369033386e-05
-0.000158374404212303
-2.79005866683897e-05
-0.000148480928322736
-2.76354985384831e-05
-0.000138711425675839
-2.73056714047567e-05
-0.000129084595995432
-2.69161658705851e-05
-0.000119617675734362
-2.64727694429877e-05
-0.000110327027809634
-2.59790416634365e-05
-0.000101228749648344
-2.54371290775795e-05
-9.23398132010496e-05
-2.48452440299361e-05
-8.36784832001384e-05
-2.41995744366317e-05
-7.52641816870875e-05
-2.34979568148008e-05
-6.71178380118114e-05
-2.27356958873619e-05
-5.92623822004792e-05
-2.19096403259645e-05
-5.1724343754091e-05
-2.10080908643157e-05
-4.45360180213513e-05
-2.00188567071942e-05
-3.77390685778938e-05
-1.89099059538295e-05
-3.13881279335062e-05
-1.76511302384177e-05
-2.55574278496682e-05
-1.61740443169266e-05
-2.03449810584979e-05
-1.44217266103319e-05
-1.58909387067272e-05
-1.22535288968455e-05
-1.23714273802817e-05
-9.57405893529858e-06
-1.00584895969804e-05
-6.12917249973307e-06
-9.24971958216162e-06
-1.83906136904985e-06
-1.04999368118543e-05
3.76857436078148e-06
-1.1604879108277e-05
4.55289954495018e-06
-9.00870415595305e-06
-6.69165647343052e-06
-3.59565375173717e-06
-1.36785112381911e-05
4.54923269403953e-06
-2.22541223708873e-05
1.52360678409566e-05
-2.94846594455423e-05
2.84026859760769e-05
-3.70446419223576e-05
4.42738455803278e-05
-4.49898622707662e-05
6.29992000426998e-05
-5.39533040014007e-05
8.41428832597493e-05
-6.10774200053975e-05
0.000107180085801204
-6.67846275050735e-05
0.000131428483092437
-7.00011378340106e-05
0.000155917601794148
-7.00933366938013e-05
0.000179153033790809
-6.42451353389639e-05
0.000200771828212331
-5.81174075868566e-05
0.000221229929503726
-5.40749977730953e-05
0.00024127505891013
-5.25340386556585e-05
0.000262121609914007
-5.53883794263627e-05
0.000286365707758825
-6.7175469548511e-05
0.000317979945406796
-9.2699116236418e-05
0.000358522673648112
-0.000120311992242681
0.000410223896162284
-0.000156200501341669
0.000475778176543056
-0.000205699828800306
0.000554100235966598
-0.00024687688311561
0.000626933858617649
-0.000204641350194931
0.000645977545136252
5.06018975730255e-05
0.000597096835619573
0.000264879923908489
0.000508050770668059
0.000329318969399044
0.000149158082846203
0.000504287254741034
6.05995554828473e-05
0.00046956733197332
0.000122249169473187
0.000340251947121852
0.000521953294201846
0.000111001085135426
0.000691820123647605
-6.01859909892584e-05
0.00038381270411493
-9.00309458185642e-05
4.59149042902084e-06
-7.07253483084718e-05
-6.93976690362545e-05
-5.65586200123712e-05
-4.31234112237791e-05
-4.83775086323777e-05
-2.55272335834677e-05
-4.33399725844513e-05
-1.67184971450269e-05
-4.13650090088839e-05
-7.78225334414715e-06
-4.26730095076018e-05
1.43081090804879e-06
-4.71663397165269e-05
1.00823960972191e-05
-5.54689213222601e-05
2.10640916051978e-05
-6.75298574579377e-05
3.25081921756844e-05
-8.24365863882578e-05
4.21303095193841e-05
-9.85987823431996e-05
4.72130672261752e-05
-0.000114846739705834
4.90193739854522e-05
-0.000130257832561537
4.76582937468788e-05
-0.000144194671692561
4.31636555209564e-05
-0.000156596033983138
3.70341750984307e-05
-0.00016799103824262
3.23818016402213e-05
-0.000178658949806898
2.79411395394248e-05
-0.000188891678820251
2.25481091309923e-05
-0.000199954463447555
1.9854785999509e-05
-0.000214673486834395
2.69175563842584e-05
-0.000236949905062176
5.46871860100358e-05
-0.000269347708300179
0.000123807134660861
-0.000301426352097045
0.000147223287340443
-0.000325737090986696
0.000117702733407225
-0.000344244020523074
9.17084646500773e-05
-0.000358796750612807
7.34909738168016e-05
-0.00037031055859728
5.95527003426963e-05
-0.00037944257615056
4.86836570629231e-05
-0.000386609426027802
3.9876402167346e-05
-0.000392112218050234
3.2512657584424e-05
-0.000396164476948857
2.61812220023881e-05
-0.000398926310174178
2.06025537434314e-05
-0.000400519281318877
1.55890318275615e-05
-0.000401039246922665
1.10104043944344e-05
-0.000400563428536061
6.77562026182124e-06
-0.000399156358727416
2.82147541550245e-06
-0.000396874599586221
-8.94460316399905e-07
-0.000393769803922027
-4.39664221183141e-06
-0.000389889217028237
-7.69974365409338e-06
-0.000385278617283958
-1.08167935517817e-05
-0.000379985630904315
-1.37577299225261e-05
-0.000374055777854363
-1.65237456734937e-05
-0.000367531054047556
-1.911410975364e-05
-0.000360452777912308
-2.15324093405946e-05
-0.000352861550180406
-2.3781990309711e-05
-0.000344797262318753
-2.58651406969858e-05
-0.000336299217240032
-2.77839901167231e-05
-0.000327406154703197
-2.95404316772217e-05
-0.000318156208036412
-3.11365763658515e-05
-0.000308586826119446
-3.2574873352704e-05
-0.000298734670322433
-3.38582876623156e-05
-0.000288635508172879
-3.49903057368084e-05
-0.000278324108754048
-3.59749470358802e-05
-0.000267834144770641
-3.68167346998466e-05
-0.000257198100613483
-3.75206505189473e-05
-0.000246447182094753
-3.80921644301489e-05
-0.000235611233113106
-3.85371419237524e-05
-0.000224718660771749
-3.88619350154341e-05
-0.000213796412371802
-3.90730008081965e-05
-0.000202870024144734
-3.9176845834864e-05
-0.000191963855566842
-3.91789048487674e-05
-0.000181101424658139
-3.90833086682045e-05
-0.000170305858942712
-3.88921026187595e-05
-0.000159600017780537
-3.86064278305783e-05
-0.000149006004880763
-3.82295114382387e-05
-0.000138544698689547
-3.77669775959818e-05
-0.000128235537881758
-3.7225326678367e-05
-0.000118096550592014
-3.66117567327374e-05
-0.000108144909677
-3.59306825784354e-05
-9.839755969873e-05
-3.51844790558564e-05
-8.88723613561493e-05
-3.43704423725121e-05
-7.95885172340642e-05
-3.34834185587112e-05
-7.05665243924185e-05
-3.25199496564495e-05
-6.18284352634901e-05
-3.14737850162797e-05
-5.33985315495521e-05
-3.03395440399002e-05
-4.53046781587589e-05
-2.91019442550981e-05
-3.75808279168093e-05
-2.77427069491551e-05
-3.02700589607442e-05
-2.62206749098777e-05
-2.34288316368331e-05
-2.44923575623306e-05
-1.71323921795513e-05
-2.24704837742012e-05
-1.14799580545498e-05
-2.00741607353248e-05
-6.61074757450515e-06
-1.71227393768963e-05
-2.69875647812405e-06
-1.3486050031681e-05
-1.08380821548627e-08
-8.81709089569463e-06
1.17073777098253e-06
-3.02063722217095e-06
2.80947065774182e-07
4.65836506598636e-06
-4.73660442380022e-07
5.30750705311026e-06
2.37378331929954e-06
-9.53910023510732e-06
8.25662918480917e-06
-1.95613571036855e-05
1.69513886151465e-05
-3.09488818012261e-05
2.83341638025544e-05
-4.08674346329654e-05
4.23120424386125e-05
-5.10225205584035e-05
5.91068252839934e-05
-6.17846451161522e-05
7.88131764602609e-05
-7.36596551776591e-05
0.000101025177026636
-8.32894205717726e-05
0.000125183848045851
-9.09432985242796e-05
0.000150608788733407
-9.54260785215765e-05
0.000176338056650034
-9.58226046104359e-05
0.000201029264077282
-8.89363427662026e-05
0.000224295368352531
-8.13835118620893e-05
0.000246551158229888
-7.63307876504586e-05
0.000268528554463509
-7.45114348892634e-05
0.000291388461309162
-7.82482862720126e-05
0.000317601996958222
-9.33890051975805e-05
0.000350934684048686
-0.000126031803326883
0.000393248013815126
-0.000162625322009123
0.000446694793398631
-0.000209647280925175
0.000513392204404485
-0.000272397239806155
0.000592200977119761
-0.000325685655830888
0.000665899853505988
-0.000278340226581159
0.000694422306949819
2.20794441291844e-05
0.000664061436339812
0.000295240794518483
0.0005940174424547
0.000399362963283965
0.000207858397649259
0.000569660479987827
9.19439402753641e-05
0.000537662472519746
0.000154247176941244
0.000422084170725534
0.000637531595996003
0.000183858160978663
0.000930046133394544
-3.36980554912867e-05
0.000601368920584923
-9.83973628087148e-05
6.92907977465334e-05
-8.39485850577792e-05
-8.38464467872349e-05
-6.81838144511153e-05
-5.88881818304139e-05
-5.92595149789255e-05
-3.44515330555223e-05
-5.41240281578232e-05
-2.18539839661565e-05
-5.25642481576391e-05
-9.34203334433442e-06
-5.48729384894216e-05
3.7395012398522e-06
-6.09411559030472e-05
1.61506135108657e-05
-7.1223005598651e-05
3.13459413008811e-05
-8.53344944800494e-05
4.66196810571253e-05
-0.000101955072561856
5.87508876012202e-05
-0.000119296197963267
6.45541926275864e-05
-0.000136213854596192
6.5937030618421e-05
-0.000152012643521451
6.34570826721402e-05
-0.000166372813711362
5.75238257108289e-05
-0.000179487482527651
5.01488439147163e-05
-0.000191949465565051
4.48437846776289e-05
-0.000204119882381212
4.01115563555807e-05
-0.000216450916875157
3.48791436249216e-05
-0.0002301811242648
3.35849933891729e-05
-0.000247476691319586
4.42131234390522e-05
-0.000270842449130534
7.8052943820998e-05
-0.000300733480709556
0.000153698166239871
-0.000328748497063948
0.000175238303694801
-0.000350176692018285
0.000139130928361563
-0.000366883540162036
0.000108415312793832
-0.000380183552476334
8.67909861311024e-05
-0.000390761798784117
7.0130946650479e-05
-0.000399144360490141
5.70662187689611e-05
-0.000405673336950913
4.64053786281209e-05
-0.000410606660565705
3.74459811991971e-05
-0.000414130924528571
2.97054859652405e-05
-0.000416389375060477
2.28610042753217e-05
-0.000417492469811794
1.66921265788824e-05
-0.000417528731279239
1.10466658618854e-05
-0.000416570452441393
5.81734142397289e-06
-0.000414679054433258
9.30077407371638e-07
-0.000411909051653834
-3.66446309583219e-06
-0.000408310072980283
-7.99562088537859e-06
-0.000403928341114471
-1.20814755199024e-05
-0.00039880971960318
-1.59354150630788e-05
-0.000393000772504913
-1.95666770207849e-05
-0.000386546110187623
-2.29784079907829e-05
-0.000379487936768402
-2.61722831728553e-05
-0.000371867839880175
-2.91525062288261e-05
-0.000363726751328262
-3.19230788616148e-05
-0.000355105005235564
-3.44868867896843e-05
-0.000346042430365407
-3.68465649868766e-05
-0.000336578359442227
-3.90045026003933e-05
-0.000326751573368209
-4.09633624398668e-05
-0.000316600210552824
-4.27262361680886e-05
-0.00030616165432719
-4.42968438879566e-05
-0.000295472418055523
-4.56795420084721e-05
-0.000284568033960917
-4.68793311304808e-05
-0.000273482950234936
-4.79018184258261e-05
-0.000262250435236837
-4.87531655170449e-05
-0.000250902485765827
-4.94401139011572e-05
-0.000239469741001228
-4.99698866883459e-05
-0.000227981406966935
-5.03502690497298e-05
-0.000216465225342989
-5.05891824321461e-05
-0.00020494751466419
-5.06945565136629e-05
-0.000193453388769835
-5.06730307431309e-05
-0.000182007086815447
-5.0529610622598e-05
-0.000170632436854399
-5.02667525798033e-05
-0.000159353006621491
-4.98858580634971e-05
-0.000148191630956791
-4.93908871029369e-05
-0.000137169945708275
-4.8788662844502e-05
-0.000126308165360495
-4.80871070261445e-05
-0.000115625116020214
-4.72948060730293e-05
-0.000105138767948038
-4.64170306506038e-05
-9.48668649168423e-05
-4.545638208704e-05
-8.48280788097799e-05
-4.44092284795781e-05
-7.50424629489276e-05
-4.32690344195742e-05
-6.553144905684e-05
-4.20309635485345e-05
-5.63180731243536e-05
-4.06871609487698e-05