4 	0.998973461255164 	5.20417042793042e-18 	0.0772039948712914 	0.00989280080542414 	3.33204911735799e-20
4 	1.00057035504746 	3.46944695195361e-18 	0.235367113058038 	0.0314587349966077 	1.24801296942282e-19
4 	1.0022257712263 	3.46944695195361e-18 	0.392421491220471 	0.0539879679641267 	-1.14263484121437e-19
4 	1.00394185545112 	1.21430643318376e-17 	0.5390076193236 	0.0754862863894595 	-4.39331428764143e-20
4 	1.0057208321255 	1.73472347597681e-17 	0.663066124465313 	0.0938783455320284 	-2.4632467857742e-20
4 	1.00756500729329 	1.90819582357449e-17 	0.755473970895149 	0.107698665609859 	5.58052461349189e-20
4 	1.00947677164175 	2.08166817117217e-17 	0.816104985591061 	0.11697014199399 	-2.90293939524182e-20
4 	1.01145860361575 	2.42861286636753e-17 	0.852661612512077 	0.12282042248879 	7.11622368541091e-21
4 	1.01351307264717 	2.60208521396521e-17 	0.874261474863736 	0.126456949808134 	-6.0528391799101e-21
4 	1.01564284250389 	2.25514051876985e-17 	0.887533947542187 	0.128721524636878 	1.31085438279387e-20
4 	1.01785067476275 	2.08166817117217e-17 	0.896361159726816 	0.130123354181957 	-2.7084290445669e-20
4 	1.02013943241123 	2.42861286636753e-17 	0.902830668607647 	0.130962128585038 	-9.3384266130262e-23
4 	1.02251208358263 	3.29597460435593e-17 	0.90804911316946 	0.131416640492381 	1.6831870433461e-20
4 	1.0249717054299 	4.16333634234434e-17 	0.912614398747309 	0.131596462920663 	-5.25280014355706e-21
4 	1.02752148814315 	4.5102810375397e-17 	0.916859593716017 	0.131570986182036 	-1.96721005646925e-21
4 	1.03016473911658 	4.16333634234434e-17 	0.920976028961484 	0.131385696801292 	-6.02012699118554e-22
4 	1.03290488727015 	3.12250225675825e-17 	0.925076402932161 	0.13107139896519 	9.82489388990471e-22
4 	1.03574548753216 	2.60208521396521e-17 	0.929228102233938 	0.130649566103994 	2.83385724895035e-21
4 	1.0386902254887 	3.29597460435593e-17 	0.93347143755844 	0.13013550802467 	-1.12610588162686e-22
4 	1.04174292220641 	3.98986399474666e-17 	0.937830062411711 	0.129540258911192 	-3.25991629926268e-22
4 	1.04490753923512 	3.46944695195361e-17 	0.942317076410141 	0.128871747885413 	-1.5394129172133e-21
4 	1.04818818379737 	2.94902990916057e-17 	0.946938507485385 	0.12813534890326 	-3.41634282656644e-22
4 	1.0515891141719 	3.12250225675825e-17 	0.951694381130614 	0.127333889896311 	3.16736773649804e-22
4 	1.05511474527861 	3.29597460435593e-17 	0.956579806494045 	0.126467478532216 	-1.03184605470868e-21
4 	1.05876965447288 	3.81639164714898e-17 	0.961588665315776 	0.125534403616503 	-1.40915782957331e-22
4 	1.06255858755727 	4.68375338513738e-17 	0.966716318231959 	0.124532524976995 	6.40014369163387e-22
4 	1.06648646501914 	4.68375338513738e-17 	0.971959923129386 	0.123459826510057 	-4.38751261191378e-22
4 	1.07055838850304 	3.81639164714898e-17 	0.977318316832526 	0.122314596802677 	-6.70860988340025e-22
4 	1.07477964752705 	3.12250225675825e-17 	0.982791944300058 	0.121095487163333 	1.44125135452261e-21
4 	1.07915572645279 	2.77555756156289e-17 	0.988382736455593 	0.119801570145974 	9.29287386381812e-22
4 	1.08369231171917 	2.77555756156289e-17 	0.994093953750361 	0.118432370354442 	1.47312174359159e-21
4 	1.08839529935026 	2.94902990916057e-17 	0.999930039956813 	0.116987864292778 	-1.52819842014838e-21
4 	1.0932708027486 	3.64291929955129e-17 	1.00589650139976 	0.115468463275982 	7.71606906987476e-23
4 	1.09832516078515 	4.16333634234434e-17 	1.01199981536215 	0.113874988210231 	7.72695211518708e-22
4 	1.10356494619828 	4.16333634234434e-17 	1.0182473713431 	0.112208641129987 	-3.322549252288e-21
4 	1.10899697431419 	4.33680868994202e-17 	1.02464744880379 	0.110470978279117 	5.46072338266287e-22
4 	1.11462831210237 	3.64291929955129e-17 	1.03120923156159 	0.108663888097831 	3.79093218238006e-21
4 	1.1204662875798 	2.60208521396521e-17 	1.03794284722224 	0.106789577061333 	-4.55922942940805e-21
4 	1.12651849957876 	2.08166817117217e-17 	1.04485942472241 	0.104850582758836 	1.6895971434688e-17
4 	1.13279282789374 	1.90819582357449e-17 	1.05197122373557 	0.102849844945557 	1.05729809376215e-16
4 	1.13929744382364 	2.42861286636753e-17 	1.05929165035906 	0.100790821380533 	-1.06524399520755e-16
4 	1.1460408211267 	3.12250225675825e-17 	1.06683395979916 	0.0986774146493753 	-1.83592420020929e-17
4 	1.15303174740625 	4.16333634234434e-17 	1.0746087300676 	0.0965134344665191 	-6.26372853826558e-21
4 	1.16027933594658 	4.5102810375397e-17 	1.08262361016337 	0.0943023503773364 	-5.00603364977459e-21
4 	1.16779303801958 	4.5102810375397e-17 	1.09088574766936 	0.0920478537121065 	1.93699139079629e-21
4 	1.1755826556837 	3.81639164714898e-17 	1.09940308163289 	0.0897543661104225 	2.89383709928211e-22
4 	1.18365835509872 	2.77555756156289e-17 	1.10818390509896 	0.0874272221090339 	4.67046403569389e-21
4 	1.19203068038085 	2.08166817117217e-17 	1.11723611926211 	0.0850726423611839 	1.9848346986644e-22
4 	1.20071056802485 	6.93889390390723e-18 	1.1265664956612 	0.0826975612099702 	-1.89513566819268e-21
4 	1.20970936192165 	-6.93889390390723e-18 	1.1361799189713 	0.0803094474096935 	7.45528528694982e-23
4 	1.21903882900203 	-1.04083408558608e-17 	1.14607862976934 	0.077916101953354 	-5.17476698559942e-23
4 	1.22871117553951 	-6.93889390390723e-18 	1.15626149919326 	0.075525434659025 	-1.39245789703069e-21
4 	1.23873906414829 	0 	1.16672337007101 	0.0731452285352495 	1.71136042609213e-21
4 	1.24913563151513 	0 	1.17745450961362 	0.070782894973636 	1.81440669372587e-21
4 	1.2599145069078 	-1.04083408558608e-17 	1.1884402409482 	0.0684452164618385 	-1.27229851404515e-21
4 	1.27108983150641 	-1.73472347597681e-17 	1.19966085402161 	0.0661380728839748 	-5.77634471035596e-22
4 	1.28267627860905 	-2.08166817117217e-17 	1.21109193518719 	0.0638661653431831 	-1.49752087765413e-21
4 	1.29468907476807 	-2.77555756156289e-17 	1.22270518915456 	0.0616328622545846 	-2.89951109290917e-21
4 	1.30714402191977 	-3.12250225675825e-17 	1.23446926430106 	0.0594405905222866 	1.75871998290911e-21
4 	1.31789285312119 	-2.77555756156289e-17 	1.2443850095162 	0.0576419015646161 	6.13413189089087e-21
4 	1.32446225981391 	-3.12250225675825e-17 	1.25035006596902 	0.0565776813888102 	5.4948741966891e-21
4 	1.33342870410197 	-2.77555756156289e-17 	1.25830619678494 	0.0551865585593503 	8.28172198557503e-22
4 	1.34729612743893 	-2.42861286636753e-17 	1.27029506014585 	0.0531270371780065 	-3.2541817170687e-21
4 	1.36168499916472 	-3.46944695195361e-17 	1.28226949148854 	0.0511113557841252 	-2.31658045371316e-21
4 	1.37661571868042 	-4.16333634234434e-17 	1.29418175535649 	0.0491327656517942 	5.93890952340352e-22
4 	1.39210957212284 	-4.85722573273506e-17 	1.30657664395673 	0.0470949531173822 	-8.0929016619455e-22
4 	1.41220272459524 	-5.20417042793042e-17 	1.32084853123517 	0.0447489684463901 	-2.74158138534746e-22
4 	1.43617694926586 	-4.85722573273506e-17 	1.3362165062325 	0.0421746274062348 	0
4 	1.45930396367274 	-4.16333634234434e-17 	1.35053100141477 	0.0397200614662775 	0
4 	1.48161370685419 	-4.16333634234434e-17 	1.36333162689606 	0.0374592255656799 	0
4 	1.50313505985141 	-5.20417042793042e-17 	1.37481965824929 	0.0353680642298005 	0
4 	1.52389588309638 	-5.55111512312578e-17 	1.38516583684439 	0.0334304564804991 	0
4 	1.54392305247857 	-5.55111512312578e-17 	1.39451036986354 	0.0316340708968876 	0
4 	1.56324249413703 	-5.89805981832114e-17 	1.40296666233055 	0.0299681063051696 	0
4 	1.58187921802306 	-6.24500451351651e-17 	1.41062609027852 	0.0284224802812542 	0
4 	1.59985735027679 	-6.24500451351651e-17 	1.41756256126775 	0.0269875159316349 	0
4 	1.61720016445966 	-6.24500451351651e-17 	1.42383634011038 	0.0256538994411597 	0
4 	1.63393011168312 	-5.89805981832114e-17 	1.4294970225133 	0.0244127556019415 	0
4 	1.65006884967273 	-5.55111512312578e-17 	1.43458573474731 	0.0232557446129779 	0
4 	1.66563727080512 	-5.55111512312578e-17 	1.43913670499729 	0.0221751369386802 	0
4 	1.68065552915414 	-5.55111512312578e-17 	1.4431783554102 	0.0211638533547094 	0
4 	1.69514306658136 	-5.55111512312578e-17 	1.44673404132232 	0.0202154714748639 	0
4 	1.70911863790442 	-5.55111512312578e-17 	1.44982253524188 	0.0193242057091897 	0
4 	1.7226003351761 	-5.55111512312578e-17 	1.45245832653286 	0.018484868863394 	0
4 	1.73560561110536 	-5.89805981832114e-17 	1.45465178638226 	0.0176928227765842 	0
4 	1.74815130165068 	-6.24500451351651e-17 	1.45640923189167 	0.0169439238349108 	0
4 	1.76025364781502 	-6.59194920871187e-17 	1.45773291234729 	0.016234467568693 	0
4 	1.77192831667064 	-6.93889390390723e-17 	1.4586209340073 	0.0155611351302046 	0
4 	1.78319042164083 	-6.93889390390723e-17 	1.45906713633352 	0.0149209433463014 	0
4 	1.79405454206499 	-7.28583859910259e-17 	1.45906093194013 	0.0143111992369664 	0
4 	1.80453474207227 	-7.63278329429795e-17 	1.45858712428401 	0.013729459341879 	0
4 	1.81464458878828 	-7.63278329429795e-17 	1.4576257210395 	0.0131734938470048 	0
4 	1.8243971698984 	-7.97972798949331e-17 	1.45615176691542 	0.0126412553000257 	0
4 	1.83380511059041 	-8.67361737988404e-17 	1.45413522689301 	0.012130851603207 	0
4 	1.84288058989839 	-8.67361737988404e-17 	1.45154095854658 	0.0116405229394282 	0
4 	1.85163535646909 	-8.67361737988404e-17 	1.44832881861002 	0.0111686222932127 	0
4 	1.86008074377113 	-9.0205620750794e-17 	1.44445395176649 	0.0107135992514007 	0
4 	1.8682276847667 	-8.67361737988404e-17 	1.43986730547453 	0.0102739867909681 	0
4 	1.8760867260648 	-8.32667268468867e-17 	1.43451639994874 	0.00984839077442857 	0
4 	1.88366804157438 	-8.32667268468867e-17 	1.42834635448411 	0.00943548187527507 	0
4 	1.8909814456749 	-8.32667268468867e-17 	1.42130112992225 	0.00903398965755457 	0
4 	1.89803640592158 	-8.32667268468867e-17 	1.41332489605723 	0.00864269855520883 	0
4 	1.90484205530155 	-8.32667268468867e-17 	1.40436338073489 	0.0082604455555507 	0
4 	1.91140720405698 	-8.32667268468867e-17 	1.3943650162199 	0.00788611950695445 	0
4 	1.91774035109035 	-8.32667268468867e-17 	1.3832816796537 	0.00751866229218383 	0
4 	1.9238496949667 	-8.32667268468867e-17 	1.37106883437725 	0.00715707285387519 	0
4 	1.92974314452705 	-8.32667268468867e-17 	1.35768491470096 	0.00680041426326946 	0
4 	1.9354283291268 	-8.32667268468867e-17 	1.34308984611274 	0.00644781612122134 	0
4 	1.9409126085123 	-8.32667268468867e-17 	1.32724263811441 	0.00609846362230693 	0
4 	1.94620308234835 	-8.32667268468867e-17 	1.31009800935882 	0.00575175463995366 	0
4 	1.95130659940914 	-8.32667268468867e-17 	1.2915894413779 	0.00540730414970465 	0
4 	1.95622976644424 	-8.32667268468867e-17 	1.27158557191567 	0.00506392425943421 	0
4 	1.96097895673142 	-8.32667268468867e-17 	1.24989936481145 	0.00471994130714216 	0
4 	1.96556031832711 	-8.32667268468867e-17 	1.22637241579647 	0.00437405922416938 	0
4 	1.96997978202541 	-8.32667268468867e-17 	1.20089356420507 	0.00402601123686207 	0
4 	1.97424306903575 	-8.32667268468867e-17 	1.17333348749418 	0.00367605503796475 	0
4 	1.9783556983893 	-8.32667268468867e-17 	1.14348408118496 	0.00332486914430622 	0
4 	1.98232299408358 	-8.32667268468867e-17 	1.11101987955194 	0.00297372314749367 	0
4 	1.98615009197469 	-8.32667268468867e-17 	1.07546618734688 	0.00262458335507027 	0
4 	1.98984194642589 	-8.32667268468867e-17 	1.03616435652226 	0.0022801929089326 	0
4 	1.99340333672126 	-8.32667268468867e-17 	0.992230673348741 	0.00194410809996974 	0
4 	1.99683887325273 	-8.32667268468867e-17 	0.942513644666915 	0.00162068595413851 	0
4 	2.00015300348844 	-8.32667268468867e-17 	0.885559251338938 	0.00131506312600953 	0
4 	2.00335001773022 	-8.32667268468867e-17 	0.819567892439146 	0.00103272653564359 	0
4 	2.00643405466757 	-8.32667268468867e-17 	0.742321586592978 	0.000778270469249349 	0
4 	2.00940910673542 	-8.32667268468867e-17 	0.651558320829367 	0.00055514952897032 	0
4 	2.01227902528252 	-8.32667268468867e-17 	0.546713705670119 	0.000366667596922561 	0
4 	2.01504752555717 	-8.32667268468867e-17 	0.430731462748379 	0.000217021273140336 	0
4 	2.01771819151684 	-8.32667268468867e-17 	0.308860547694428 	0.000108529517367278 	0
4 	2.02029448046774 	-8.32667268468867e-17 	0.185405070288975 	4.01924051307527e-05 	0
4 	2.02277972754047 	-8.32667268468867e-17 	0.0619058986789637 	7.32280787422934e-06 	0
