4 	0.0039111296779627 	-2.08166817117217e-17 	0.0987573226874905 	2.59540969890351e-05 	753.935058227869 	5.53732424889675e-06 	5.61021638912276e-38
4 	0.0118766651674914 	-2.77555756156289e-17 	0.0987534729640002 	0.000231730295137137 	312.464290162602 	6.46892116533688e-05 	0
4 	0.0201340015485759 	-3.12250225675825e-17 	0.0987497196412995 	0.000961413318472913 	69.8226698404911 	0.00021551564480249 	0
4 	0.0286938283423949 	-3.46944695195361e-17 	0.0987382443352868 	0.00240386015870587 	27.68946543402 	0.000294805395776403 	0
4 	0.0375672266585909 	-2.77555756156289e-17 	0.0987142473177622 	0.00423535658952923 	14.492884643361 	0.00017045045119036 	0
4 	0.0467656835403032 	-2.77555756156289e-17 	0.098675025550392 	0.00601454412449942 	9.16422817553009 	4.6901549956457e-05 	0
4 	0.0563011068347007 	-3.12250225675825e-17 	0.0986215524868617 	0.00757999270352455 	6.61427041416557 	4.30092333953093e-05 	0
4 	0.0661858406082649 	-4.16333634234434e-17 	0.0985569176492508 	0.00895225746694086 	5.19549812733765 	0.000107505086382847 	0
4 	0.0764326811267816 	-5.55111512312578e-17 	0.0984839280632253 	0.0101815409818913 	4.30939023850041 	0.000195658122824538 	0
4 	0.0870548934207258 	-6.59194920871187e-17 	0.0984044493256746 	0.0113076142365765 	3.70892986896318 	0.000292519289334377 	0
4 	0.0980662284574838 	-6.93889390390723e-17 	0.0983197702174524 	0.0123583264247075 	3.27798217691412 	0.000393963870566131 	0
4 	0.109480940942647 	-7.28583859910259e-17 	0.0982309166016257 	0.0133532032246772 	2.95567738655007 	0.000499141815056419 	0
4 	0.121313807773417 	-7.63278329429795e-17 	0.0981387657121596 	0.0143063268504448 	2.7072666288334 	0.000608247678228944 	0
4 	0.13358014716801 	-7.63278329429795e-17 	0.0980440900141091 	0.0152281909858422 	2.51154109105785 	0.000721844059516109 	0
4 	0.146295838495838 	-7.63278329429795e-17 	0.097947586816294 	0.016126862712181 	2.3548526855179 	0.000840643936648807 	0
4 	0.159477342834115 	-7.28583859910259e-17 	0.0978498992554208 	0.0170087204677808 	2.22803811853761 	0.000965440316569029 	0
4 	0.173141724277517 	-6.93889390390723e-17 	0.0977516293993152 	0.0178789339556225 	2.12473009220535 	0.0010970872855826 	0
4 	0.18730667202848 	-7.63278329429795e-17 	0.0976533462045328 	0.0187417836596745 	2.04037861770998 	0.00123649994650642 	0
4 	0.201990523296728 	-8.32667268468867e-17 	0.0975555905993924 	0.0196008776901383 	1.97165754461968 	0.0013846613259703 	0
4 	0.217212287037676 	-8.67361737988404e-17 	0.0974588790069487 	0.0204593007077453 	1.91609057138693 	0.00154263165407671 	0
4 	0.232991668560441 	-9.0205620750794e-17 	0.0973637061323881 	0.0213197162908921 	1.87180766930956 	0.00171155813985575 	0
4 	0.249349095037321 	-9.71445146547012e-17 	0.0972705476390119 	0.0221844361197972 	1.83738185643566 	0.00189268437670479 	0
4 	0.266305741947753 	-1.04083408558608e-16 	0.0971798632322548 	0.0230554644484743 	1.81171706190362 	0.00208735885761811 	0
4 	0.283883560490998 	-1.00613961606655e-16 	0.0970921006070381 	0.023934523235144 	1.79396938481204 	0.00229704214710607 	0
4 	0.30210530600303 	-9.71445146547012e-17 	0.0970077006803124 	0.0248230612789913 	1.78349071339297 	0.00252331219002062 	0
4 	0.320994567414414 	-9.71445146547012e-17 	0.096927104526549 	0.0257222493459707 	1.77978763212398 	0.00276786708607801 	0
4 	0.340575797787321 	-1.00613961606655e-16 	0.0968507624208727 	0.026632962310043 	1.78249096526116 	0.00303252444166909 	0
4 	0.360874345971201 	-9.71445146547012e-17 	0.0967791451835086 	0.0275557486370439 	1.79133281755382 	0.00331921613143951 	0
4 	0.38191648941809 	-9.0205620750794e-17 	0.0967127575657609 	0.0284907869999858 	1.80612893142526 	0.00362997685595158 	0
4 	0.403729468200046 	-8.32667268468867e-17 	0.0966521548133229 	0.0294378293746404 	1.82676478755956 	0.00396692383469567 	0
4 	0.426341520272733 	-7.28583859910259e-17 	0.0965979715827649 	0.0303961295948255 	1.85318424970229 	0.00433222347351962 	0
4 	0.449781918030829 	-6.93889390390723e-17 	0.0965509717157569 	0.0313643558235959 	1.88537976044214 	0.00472805028753614 	0
4 	0.474081006202548 	-6.93889390390723e-17 	0.0965120325109288 	0.0323403819640638 	1.92338320283616 	0.00515656605865907 	0
4 	0.499270241132363 	-6.93889390390723e-17 	0.0964817727479302 	0.0333207017587653 	1.96725657078816 	0.00561978982210719 	0
4 	0.525382231502763 	-6.93889390390723e-17 	0.0964603515888497 	0.034301607706213 	2.01708033159192 	0.00611952418300779 	0
4 	0.552450780547767 	-6.24500451351651e-17 	0.096451796227152 	0.0352784441409002 	2.07293777923877 	0.006670217985629 	0
4 	0.580510929812849 	-5.89805981832114e-17 	0.0964747977965293 	0.0362461271072997 	2.13496572171188 	0.00736081110268276 	0
4 	0.60959900451791 	-5.89805981832114e-17 	0.0965426850154127 	0.0372047541544319 	2.20377064093988 	0.00817135356831227 	0
4 	0.639752660582032 	-6.24500451351651e-17 	0.0966436019548937 	0.0381515182606362 	2.27935324410572 	0.00912333289284358 	0
4 	0.671010933370886 	-6.93889390390723e-17 	0.0967614185377903 	0.0390535422031088 	2.35873517054648 	0.0101240548319959 	0
4 	0.7034142882299 	-7.63278329429795e-17 	0.0968898508161129 	0.0398522692693726 	2.43595920584402 	0.0110418300769409 	0
4 	0.737004672868606 	-7.63278329429795e-17 	0.0970335546905365 	0.0404846121654935 	2.50391371096521 	0.0118027715448232 	0
4 	0.771825571663976 	-6.59194920871187e-17 	0.09719970048169 	0.0408971588164543 	2.55631048768884 	0.0123808917720024 	0
4 	0.807922061953053 	-5.89805981832114e-17 	0.0973930273615696 	0.0410502380414169 	2.58903569893051 	0.0127670233138625 	0
4 	0.845340872387742 	-5.20417042793042e-17 	0.0976150850657038 	0.0409162736749629 	2.60025163769297 	0.0129466961280088 	0
4 	0.884130443427309 	-5.20417042793042e-17 	0.0978654592473999 	0.0404780441072092 	2.58945875740853 	0.0128965931346882 	0
4 	0.924340990046897 	-5.55111512312578e-17 	0.0981433982202823 	0.0397298978060142 	2.55652911970935 	0.0125942550625504 	0
4 	0.966024566743241 	-5.55111512312578e-17 	0.0984489970658003 	0.038681494373314 	2.50131684541199 	0.0120307269521468 	0
4 	1.00923513492173 	-6.24500451351651e-17 	0.0987844203102665 	0.0373596633044282 	2.42360064234611 	0.0112169686034799 	0
4 	1.05402863275205 	-6.72205346941013e-17 	0.0991524959637479 	0.0358169955896416 	2.3239433580295 	0.0101918308979143 	0
4 	1.10046304758287 	-6.63531729561129e-17 	0.0995551034051635 	0.0341301423511679 	2.20449480747079 	0.00902041979039206 	0
4 	1.14859849100923 	-6.85215773010839e-17 	0.0999935336375246 	0.0323881379076551 	2.06908100769578 	0.00778429229419485 	0
4 	1.19849727668995 	-7.02563007770607e-17 	0.100465407838564 	0.0306844254341439 	1.92363785562058 	0.00657537396641707 	0
4 	1.25022400101563 	-6.67868538251071e-17 	0.100963986120557 	0.0291025200490549 	1.77623858520613 	0.0054808175778327 	0
4 	1.30384562673186 	-6.59194920871187e-17 	0.101487906115435 	0.0276917879386592 	1.63300702515895 	0.00456029837728265 	0
4 	1.35943156962566 	-6.76542155630955e-17 	0.102058042722628 	0.0264592093985498 	1.4958596845614 	0.00382604441299379 	0
4 	1.41705378838763 	-6.59194920871187e-17 	0.1026778454379 	0.0253846746698102 	1.36516300165513 	0.00319548198899887 	0
4 	1.47678687776592 	-6.07153216591882e-17 	0.103321668268455 	0.0244545713482808 	1.24327700204276 	0.00268416490424662 	0
4 	1.53870816513278 	-6.07153216591882e-17 	0.103978221031498 	0.0236527324573668 	1.13362769123276 	0.00226167814567317 	0
4 	1.60289781058851 	-5.72458747072346e-17 	0.104645734822749 	0.0229518746240542 	1.03776062102904 	0.00192480043896179 	0
4 	1.66943891073266 	-4.5102810375397e-17 	0.105323534727801 	0.0223174377334079 	0.955358793143234 	0.00166277369491683 	0
4 	1.73841760623657 	-3.81639164714898e-17 	0.106011365588329 	0.0217132875491063 	0.884771644901436 	0.00145876513767192 	0
4 	1.80992319335659 	-3.46944695195361e-17 	0.106709525695682 	0.0211065491999168 	0.823712857610326 	0.0012957035459831 	0
4 	1.88404823953248 	-3.46944695195361e-17 	0.107419911418619 	0.020470750792645 	0.769886443196731 	0.00115967746093109 	0
4 	1.96088870322037 	-3.12250225675825e-17 	0.108132172730237 	0.0197881374410823 	0.721379161366981 	0.00103874017040041 	0
4 	2 	-2.42861286636753e-17 	0.108485451954936 	0.0194335444411121 	0.69824076935744 	0.000980262149028701 	0
4 	2.04004996790234 	-2.08166817117217e-17 	0.108849505618761 	0.0190553072154057 	0.676920129748942 	0.000926021839615951 	0
4 	2.11873460271874 	-2.42861286636753e-17 	0.109547573333934 	0.0182907244951785 	0.636352956132151 	0.000823064818799692 	0
4 	2.19463865000284 	-2.77555756156289e-17 	0.110199459149945 	0.0175202848529604 	0.599947389358799 	0.000729044191222551 	0
4 	2.26786037121375 	-2.42861286636753e-17 	0.110814424571578 	0.0167598872603078 	0.567541862637752 	0.000642325211203904 	0
4 	2.33849455540975 	-2.08166817117217e-17 	0.111388326369748 	0.0160191390262061 	0.538781131957595 	0.000563224311241619 	0
4 	2.40663264195736 	-1.73472347597681e-17 	0.111922444965782 	0.0153050594172274 	0.513369557752718 	0.000491533867258357 	0
4 	2.47236283890404 	-1.38777878078145e-17 	0.112418371668119 	0.0146224285940348 	0.491091649267706 	0.000427099326469769 	0
4 	2.5357702371677 	-1.38777878078145e-17 	0.112877800854599 	0.0139739637638224 	0.471745375849752 	0.00036962099482813 	0
4 	2.59693692069107 	-1.38777878078145e-17 	0.113302571921893 	0.0133607446424948 	0.455125487607573 	0.000318645931356856 	0
4 	2.65594207270333 	-1.38777878078145e-17 	0.113694602100596 	0.0127826723756775 	0.441028045421033 	0.0002736221995346 	0
4 	2.71286207822658 	-1.38777878078145e-17 	0.114055825672343 	0.0122388589399614 	0.42925955768004 	0.00023396244104741 	0
4 	2.76777062295999 	-1.38777878078145e-17 	0.114388154519815 	0.0117279323013654 	0.419645771507733 	0.000199092518255425 	0
4 	2.82073878866949 	-1.04083408558608e-17 	0.114693451700456 	0.0112482607946714 	0.412037828475596 	0.000168481443460011 	0
4 	2.87183514520654 	-6.93889390390723e-18 	0.11497351501514 	0.0107981096285668 	0.40631549478198 	0.00014165632743992 	0
4 	2.92112583927514 	-6.93889390390723e-18 	0.115230067927126 	0.0103757456733854 	0.402388198645417 	0.000118207628861141 	0
4 	2.96867468006189 	-6.93889390390723e-18 	0.115464755406049 	0.00997950506553836 	0.400194782128575 	9.77890653371521e-05 	0
