9.99999999996702e-07 	1.00078222593559 	6.93889390390723e-18 	0.033926839410826 	0.000117920013092671 	-5.16470380530019e-24
9.99999999996702e-07 	1.0023753330335 	1.04083408558608e-17 	0.109078959506415 	0.000656837480353774 	-4.74468776852634e-24
9.99999999996702e-07 	1.00402680030972 	6.93889390390723e-18 	0.198755088244124 	0.00194846349352767 	5.01599895357719e-24
9.99999999996702e-07 	1.00573876566848 	0 	0.300794093863354 	0.00417837983188397 	2.64932552952414e-24
9.99999999996702e-07 	1.00751344533172 	3.46944695195361e-18 	0.408622088750159 	0.00730051002967878 	-1.01692555347726e-23
9.99999999996702e-07 	1.00935313670806 	0 	0.512165026549467 	0.0110399100628267 	-9.00437852661973e-24
9.99999999996702e-07 	1.01126022136694 	-1.04083408558608e-17 	0.60202817803621 	0.0150051172198635 	5.69891771875688e-24
9.99999999996702e-07 	1.01323716812165 	-1.38777878078145e-17 	0.673747559998164 	0.0188663886346734 	6.48120628981286e-24
9.99999999996702e-07 	1.01528653622536 	-1.38777878078145e-17 	0.728107511646516 	0.0224438674343882 	-2.75752725317471e-24
9.99999999996702e-07 	1.01741097868415 	-1.38777878078145e-17 	0.768564348049909 	0.0256783374584921 	-5.51494230639347e-24
9.99999999996702e-07 	1.0196132456915 	-1.73472347597681e-17 	0.798896142929233 	0.0285756466380668 	-2.75741504608618e-24
9.99999999996702e-07 	1.02189618818853 	-1.73472347597681e-17 	0.822171870212612 	0.0311698740649742 	0
9.99999999996702e-07 	1.02426276155468 	-1.38777878078145e-17 	0.84059592629167 	0.0335030450283477 	0
9.99999999996702e-07 	1.0267160294336 	-2.08166817117217e-17 	0.855672852982144 	0.0356153162911145 	-1.43439832099062e-24
9.99999999996702e-07 	1.02925916769917 	-2.42861286636753e-17 	0.868414558061585 	0.0375414060090918 	-2.86872852546088e-24
9.99999999996702e-07 	1.03189546856683 	-2.42861286636753e-17 	0.879504472662196 	0.0393100535242871 	-5.61307926434262e-25
9.99999999996702e-07 	1.03462834485551 	-2.77555756156289e-17 	0.889410500862945 	0.040944604563779 	1.07159050450294e-24
9.99999999996702e-07 	1.0374613344057 	-2.77555756156289e-17 	0.898458776478142 	0.0424638475158776 	-4.75806738183489e-25
9.99999999996702e-07 	1.04039810465935 	-2.77555756156289e-17 	0.90688108032515 	0.0438827843445906 	-5.98398401320592e-26
9.99999999996702e-07 	1.04344245740754 	-2.08166817117217e-17 	0.914845371092302 	0.0452132680397378 	1.57177014488816e-24
9.99999999996702e-07 	1.04659833371208 	-1.73472347597681e-17 	0.922475635491482 	0.0464645297814066 	1.29970575366678e-24
9.99999999996702e-07 	1.04986981900746 	-1.73472347597681e-17 	0.929864969674314 	0.0476436405841731 	3.42476034191473e-25
9.99999999996702e-07 	1.05326114838955 	-1.38777878078145e-17 	0.937084329361888 	0.0487559351170717 	0
9.99999999996702e-07 	1.0567767120982 	-1.04083408558608e-17 	0.944188460987533 	0.0498053946091915 	0
9.99999999996702e-07 	1.06042106120061 	-1.04083408558608e-17 	0.951219989190808 	0.0507949808942102 	-3.14667154687752e-25
9.99999999996703e-07 	1.06419891348289 	-1.04083408558608e-17 	0.958212332920202 	0.0517269174161019 	1.02200486530902e-24
9.99999999996703e-07 	1.06811515955747 	-6.93889390390723e-18 	0.965191873609693 	0.0526029049556257 	2.98835508584517e-24
9.99999999996703e-07 	1.07217486919424 	-6.93889390390723e-18 	0.972179609620486 	0.0534242636848283 	3.77227148714512e-25
9.99999999996703e-07 	1.07638329788362 	-6.93889390390723e-18 	0.979192436497074 	0.0541920022291511 	-2.54837404969143e-24
9.99999999996703e-07 	1.08074589364001 	-1.04083408558608e-17 	0.986244140510153 	0.0549068205808935 	-2.1634452828324e-24
9.99999999996702e-07 	1.08526830405455 	-1.04083408558608e-17 	0.99334616205342 	0.0555690627115917 	-1.77904267585167e-24
9.99999999996703e-07 	1.08995638360617 	-1.04083408558608e-17 	1.00050817368511 	0.0561786426240609 	-1.62909095460501e-24
9.99999999996703e-07 	1.09481620124051 	-1.38777878078145e-17 	1.00773851962729 	0.0567349716456722 	-1.48031530404718e-24
9.99999999996703e-07 	1.09985404822647 	-1.38777878078145e-17 	1.01504456964969 	0.0572369118104073 	-3.35129983152156e-24
9.99999999996703e-07 	1.10507644630056 	-1.38777878078145e-17 	1.02243303795947 	0.0576827702990311 	-5.22329650021896e-24
9.99999999996703e-07 	1.11049015610956 	-6.93889390390723e-18 	1.02991030235156 	0.0580703377852151 	4.35241665976908e-25
9.99999999996703e-07 	1.11610218596257 	3.46944695195361e-18 	1.03748273392701 	0.0583969648106896 	6.09330690925006e-24
9.99999999996703e-07 	1.12191980090358 	0 	1.04515701979683 	0.0586596678954346 	3.04652356942288e-24
9.99999999996703e-07 	1.1279505321164 	-1.04083408558608e-17 	1.05294044001609 	0.0588552601053154 	4.52778604835056e-19
9.99999999996703e-07 	1.13420218667417 	-1.38777878078145e-17 	1.06084105392234 	0.058980504796279 	2.95056535098412e-19
9.99999999996703e-07 	1.14068285764598 	-6.93889390390723e-18 	1.0688677649043 	0.0590322899183613 	-7.33025932632411e-19
9.99999999996703e-07 	1.14740093457373 	0 	1.07703026151418 	0.0590078084464556 	-5.98724194800751e-19
9.99999999996703e-07 	1.1543651143328 	0 	1.08533885248951 	0.0589047162036271 	8.64411811424835e-25
9.99999999996703e-07 	1.16158441239061 	3.46944695195361e-18 	1.09380421967886 	0.0587212523199678 	8.49374635899537e-24
9.99999999996703e-07 	1.16906817447755 	6.93889390390723e-18 	1.10243712770141 	0.0584563409995893 	-1.14212578733124e-23
9.99999999996703e-07 	1.17682608868546 	1.38777878078145e-17 	1.11124812635661 	0.0581096852512331 	-1.04434737615439e-23
9.99999999996703e-07 	1.18486819800938 	2.08166817117217e-17 	1.120247247056 	0.0576818335275533 	0
9.99999999996703e-07 	1.19320491334865 	2.08166817117217e-17 	1.12944367594836 	0.0571742032895399 	0
9.99999999996703e-07 	1.20184702698435 	1.73472347597681e-17 	1.13884539478182 	0.0565890599449976 	-1.41664073668956e-23
9.99999999996703e-07 	1.21080572655041 	1.04083408558608e-17 	1.14845879075925 	0.0559294574083477 	-5.70299934620005e-23
9.99999999996703e-07 	1.22009260951658 	1.38777878078145e-17 	1.15828824248624 	0.0551991504346022 	-7.15650805201662e-23
9.99999999996703e-07 	1.22971969820185 	1.73472347597681e-17 	1.16833569282457 	0.0544024870532634 	1.80677811321825e-24
9.99999999996703e-07 	1.23969945533799 	1.38777878078145e-17 	1.17860022270851 	0.0535442856219954 	2.56106492378719e-23
9.99999999996703e-07 	1.25004480020312 	1.38777878078145e-17 	1.18907764407492 	0.0526296976493996 	-4.03054727251682e-23
9.99999999996703e-07 	1.26076912534637 	1.04083408558608e-17 	1.1997601349386 	0.0516640567377428 	-3.54005593027028e-23
9.99999999996703e-07 	1.27188631392513 	6.93889390390723e-18 	1.21063594239702 	0.0506527176053391 	3.65811577759143e-24
9.99999999996704e-07 	1.28341075767752 	1.04083408558608e-17 	1.22168917455718 	0.0496008974931563 	-3.59212330054255e-23
9.99999999996704e-07 	1.29535737555319 	1.04083408558608e-17 	1.23289968768482 	0.048513538823899 	-8.27791014363702e-23
9.99999999996704e-07 	1.30774163302655 	6.93889390390723e-18 	1.244243062858 	0.0473951964381745 	-4.32162949620116e-23
9.99999999996704e-07 	1.3205795621177 	6.93889390390723e-18 	1.25569067794765 	0.0462499165443912 	-4.93406403343179e-23
9.99999999996704e-07 	1.33388778214653 	6.93889390390723e-18 	1.26720990659007 	0.0450810489422985 	-9.86768068400962e-23
9.99999999996704e-07 	1.34768352124731 	1.04083408558608e-17 	1.27876446890349 	0.0438910093351877 	-4.12916221709009e-23
9.99999999996704e-07 	1.36198463867132 	6.93889390390723e-18 	1.2903149306823 	0.0426812296361178 	1.26967704780837e-22
9.99999999996704e-07 	1.3768096479065 	-3.46944695195361e-18 	1.3018195329143 	0.0414523768872795 	2.29884939393077e-22
9.99999999996704e-07 	1.39217774064408 	-3.46944695195361e-18 	1.31395690905702 	0.0401212767981723 	1.10916213453927e-22
9.99999999996704e-07 	1.41220272459525 	0 	1.32785394479745 	0.0385375943555106 	0
9.99999999996704e-07 	1.43617694926587 	3.46944695195361e-18 	1.34279546744816 	0.0367506693576372 	0
9.99999999996704e-07 	1.45930396367274 	1.04083408558608e-17 	1.35689574230818 	0.0349668188318625 	0
9.99999999996704e-07 	1.48161370685419 	1.38777878078145e-17 	1.36950952443756 	0.033271937773287 	0
9.99999999996704e-07 	1.50313505985141 	1.04083408558608e-17 	1.38082275073656 	0.0316602972469543 	0
9.99999999996704e-07 	1.52389588309638 	6.93889390390723e-18 	1.39099773103392 	0.0301297474268599 	0
9.99999999996704e-07 	1.54392305247857 	6.93889390390723e-18 	1.40017163791971 	0.0286792830392015 	0
9.99999999996704e-07 	1.56324249413704 	3.46944695195361e-18 	1.4084581116958 	0.0273076505024447 	0
9.99999999996704e-07 	1.58187921802306 	0 	1.415950345574 	0.0260129073394705 	0
9.99999999996704e-07 	1.59985735027679 	0 	1.42272452501635 	0.0247923298057958 	0
9.99999999996704e-07 	1.61720016445966 	0 	1.42884301456781 	0.0236425149844166 	0
9.99999999996704e-07 	1.63393011168312 	0 	1.43435703839481 	0.0225595737964997 	0
9.99999999996704e-07 	1.65006884967273 	0 	1.43930880240308 	0.021539339674253 	0
9.99999999996704e-07 	1.66563727080512 	0 	1.44373310505876 	0.0205775529557897 	0
9.99999999996704e-07 	1.68065552915415 	0 	1.44765852112686 	0.0196700055246627 	0
9.99999999996704e-07 	1.69514306658136 	0 	1.45110824654432 	0.0188126437871104 	0
9.99999999996704e-07 	1.70911863790442 	-3.46944695195361e-18 	1.45410068188573 	0.0180016346956534 	0
9.99999999996704e-07 	1.7226003351761 	-6.93889390390723e-18 	1.45664981654875 	0.0172334020205896 	0
9.99999999996704e-07 	1.73560561110536 	-6.93889390390723e-18 	1.45876546088507 	0.0165046402996012 	0
9.99999999996704e-07 	1.74815130165068 	-6.93889390390723e-18 	1.46045336109219 	0.0158123130461782 	0
9.99999999996704e-07 	1.76025364781502 	-6.93889390390723e-18 	1.46171522234609 	0.0151536405634759 	0
9.99999999996704e-07 	1.77192831667064 	-6.93889390390723e-18 	1.46254865933855 	0.0145260814570476 	0
9.99999999996704e-07 	1.78319042164083 	-6.93889390390723e-18 	1.46294708983268 	0.01392731083548 	0
9.99999999996704e-07 	1.79405454206499 	-6.93889390390723e-18 	1.46289958581682 	0.0133551972899382 	0
9.99999999996704e-07 	1.80453474207227 	-6.93889390390723e-18 	1.46239069813028 	0.0128077800533051 	0
9.99999999996705e-07 	1.81464458878828 	-6.93889390390723e-18 	1.46140027389384 	0.0122832472328778 	0
9.99999999996705e-07 	1.8243971698984 	-6.93889390390723e-18 	1.45990329146363 	0.0117799156548236 	0
9.99999999996705e-07 	1.83380511059041 	-6.93889390390723e-18 	1.45786974445818 	0.0112962126207502 	0
9.99999999996705e-07 	1.84288058989839 	-6.93889390390723e-18 	1.45526461373632 	0.0108306597268586 	0
9.99999999996704e-07 	1.85163535646909 	-6.93889390390723e-18 	1.45204797238438 	0.0103818588082496 	0
9.99999999996704e-07 	1.86008074377113 	-6.93889390390723e-18 	1.44817527130562 	0.00994848002313426 	0
9.99999999996704e-07 	1.8682276847667 	-6.93889390390723e-18 	1.44359784862173 	0.00952925206616208 	0
9.99999999996704e-07 	1.8760867260648 	-6.93889390390723e-18 	1.43826369127144 	0.00912295448404049 	0
9.99999999996704e-07 	1.88366804157438 	-6.93889390390723e-18 	1.43211844924478 	0.00872841205409503 	0
9.99999999996704e-07 	1.8909814456749 	-1.04083408558608e-17 	1.42510666158532 	0.00834449118016015 	0
9.99999999996704e-07 	1.89803640592158 	-1.04083408558608e-17 	1.41717310240149 	0.00797009827023099 	0
9.99999999996704e-07 	1.90484205530155 	-3.46944695195361e-18 	1.4082641030663 	0.00760418009669146 	0
9.99999999996704e-07 	1.91140720405698 	3.46944695195361e-18 	1.39832866527502 	0.00724572622467055 	0
9.99999999996704e-07 	1.91774035109035 	6.93889390390723e-18 	1.38731916011647 	0.00689377383594954 	0
9.99999999996704e-07 	1.9238496949667 	1.04083408558608e-17 	1.37519141712935 	0.00654741567391378 	0
9.99999999996704e-07 	1.92974314452705 	1.38777878078145e-17 	1.36190404189149 	0.00620581066208255 	0
9.99999999996704e-07 	1.9354283291268 	1.73472347597681e-17 	1.34741684920609 	0.00586819221150011 	0
9.99999999996704e-07 	1.9409126085123 	2.08166817117217e-17 	1.33168834395119 	0.00553387706921905 	0
9.99999999996704e-07 	1.94620308234835 	2.08166817117217e-17 	1.31467220424503 	0.00520243044342778 	0
9.99999999996704e-07 	1.95130659940914 	1.73472347597681e-17 	1.29630199727287 	0.00487342300626267 	0
9.99999999996704e-07 	1.95622976644424 	1.04083408558608e-17 	1.27645669114627 	0.00454579567205365 	0
9.99999999996704e-07 	1.96097895673142 	6.93889390390723e-18 	1.2549600076249 	0.00421793036087789 	0
9.99999999996704e-07 	1.96556031832711 	3.46944695195361e-18 	1.23164454293763 	0.00388860073976208 	0
9.99999999996704e-07 	1.96997978202541 	0 	1.20638292530902 	0.00355772893844311 	0
9.99999999996704e-07 	1.97424306903575 	0 	1.17903411307291 	0.00322600855058762 	0
9.99999999996704e-07 	1.9783556983893 	3.46944695195361e-18 	1.14937784860255 	0.002894532607778 	0
9.99999999996704e-07 	1.98232299408358 	1.04083408558608e-17 	1.11707361896321 	0.00256498008449466 	0
9.99999999996704e-07 	1.98615009197469 	1.04083408558608e-17 	1.08162789866369 	0.00223972944761626 	0
9.99999999996704e-07 	1.98984194642589 	1.04083408558608e-17 	1.04235946867504 	0.00192191537377515 	0
9.99999999996704e-07 	1.99340333672126 	1.38777878078145e-17 	0.998359448865763 	0.00161542138023865 	0
9.99999999996705e-07 	1.99683887325273 	1.38777878078145e-17 	0.948451019895243 	0.00132480277401747 	0
9.99999999996705e-07 	2.00015300348844 	1.73472347597681e-17 	0.891158880316057 	0.00105515502317246 	0
9.99999999996705e-07 	2.00335001773022 	2.08166817117217e-17 	0.824672965098538 	0.000811434942428857 	0
9.99999999996705e-07 	2.00643405466757 	1.73472347597681e-17 	0.746790741461074 	0.000597412848024776 	0
9.99999999996705e-07 	2.00940910673542 	1.38777878078145e-17 	0.655350102978314 	0.000415314874985005 	0
9.99999999996705e-07 	2.01227902528252 	1.73472347597681e-17 	0.54991927729903 	0.000266781360070628 	0
9.99999999996705e-07 	2.01504752555717 	2.08166817117217e-17 	0.433394399840437 	0.000153293294982837 	0
9.99999999996705e-07 	2.01771819151684 	2.08166817117217e-17 	0.310865006572097 	7.44590217798632e-05 	0
9.99999999996705e-07 	2.02029448046774 	2.42861286636753e-17 	0.186629319193691 	2.70432755746325e-05 	0
9.99999999996705e-07 	2.02277972754047 	2.67848758580755e-17 	0.0622402368215463 	5.31318912100586e-06 	0
