/*--------------------------------*- C++ -*----------------------------------*\
  =========                 |
  \\      /  F ield         | OpenFOAM: The Open Source CFD Toolbox
   \\    /   O peration     | Website:  https://openfoam.org
    \\  /    A nd           | Version:  7
     \\/     M anipulation  |
\*---------------------------------------------------------------------------*/
FoamFile
{
    version     2.0;
    format      ascii;
    class       volScalarField;
    location    "0";
    object      k_LES;
}
// * * * * * * * * * * * * * * * * * * * * * * * * * * * * * * * * * * * * * //

dimensions      [0 2 -2 0 0 0 0];

internalField   nonuniform List<scalar>
15600
(
0.00446012
0.00102949
-0.00020992
0.00066667
0.00034914
0.00023235
0.00016515
0.00009748
0.00036650
0.00031928
0.00019290
0.00028801
0.00026963
0.00046056
0.00041489
0.00046792
0.00060435
0.00040736
0.00049762
0.00117331
0.00070708
0.00059743
0.00028710
0.00029614
0.00031307
0.00033155
0.00037819
0.00040538
0.00046655
0.00051507
0.00055672
0.00064178
0.00072794
0.00081022
0.00089888
0.00097971
0.00107705
0.00116283
0.00129356
0.00135910
0.00144805
0.00157276
0.00165282
0.00170016
0.00182165
0.00191056
0.00199011
0.00207503
0.00212078
0.00215120
0.00224585
0.00230601
0.00231020
0.00235011
0.00234300
0.00234833
0.00236949
0.00236118
0.00243507
0.00241691
0.00242396
0.00243545
0.00241608
0.00239301
0.00246783
0.00241852
0.00251786
0.00252854
0.00247008
0.00243432
0.00238804
0.00239866
0.00238797
0.00241911
0.00241375
0.00234500
0.00237211
0.00232237
0.00237383
0.00225118
0.00229552
0.00221374
0.00221248
0.00216464
0.00215089
0.00212383
0.00210329
0.00213892
0.00219920
0.00221196
0.00227345
0.00231565
0.00237046
0.00237233
0.00250768
0.00258836
0.00288163
0.00345749
0.00523729
0.00109499
0.00029001
-0.00014658
-0.00060635
-0.00032170
-0.00006382
-0.00133018
-0.00007082
-0.00004043
-0.00058065
-0.00087575
0.00002234
-0.00041503
0.00000723
-0.00014114
-0.00125657
-0.00107504
-0.00223310
-0.00161058
-0.00249295
0.00305512
0.01121636
0.00438702
0.00047899
0.00155296
0.00077941
0.00056003
0.00054916
0.00050287
0.00072832
0.00081266
0.00085897
0.00077501
0.00118276
0.00149015
0.00157175
0.00185287
0.00197583
0.00187224
0.00224995
0.00290477
0.00238632
0.00194452
0.00146603
0.00150115
0.00158203
0.00171244
0.00189893
0.00212722
0.00238420
0.00266535
0.00299333
0.00335854
0.00374783
0.00414960
0.00452604
0.00487985
0.00524437
0.00565338
0.00600273
0.00632755
0.00660527
0.00698878
0.00733665
0.00767401
0.00804833
0.00842112
0.00871602
0.00903133
0.00923759
0.00939594
0.00956387
0.00975043
0.00988477
0.00996293
0.00994253
0.01001002
0.01001676
0.01012708
0.01034455
0.01032116
0.01032829
0.01036527
0.01028649
0.01026071
0.01025681
0.01031866
0.01037114
0.01043057
0.01040784
0.01043172
0.01044113
0.01047638
0.01047177
0.01048236
0.01047591
0.01035830
0.01032035
0.01021659
0.01007039
0.00986478
0.00979350
0.00974719
0.00966825
0.00957783
0.00962432
0.00958649
0.00959711
0.00970497
0.00991781
0.01003132
0.01022632
0.01041561
0.01062502
0.01082689
0.01128420
0.01200001
0.01327214
0.01488679
0.01617306
0.01167436
0.00619766
0.00151026
0.00028615
0.00055829
0.00104917
-0.00046915
0.00061143
-0.00021466
-0.00094752
0.00008982
0.00031055
-0.00113987
-0.00101286
-0.00183731
-0.00210403
-0.00097862
-0.00515410
-0.00011808
0.00399064
0.01030703
0.02193968
0.01088797
0.00311950
0.00272833
0.00163950
0.00131963
0.00127064
0.00116029
0.00134058
0.00145929
0.00190348
0.00208339
0.00259155
0.00279790
0.00343161
0.00377160
0.00413783
0.00407691
0.00431537
0.00442259
0.00386626
0.00326148
0.00290510
0.00300930
0.00320751
0.00352130
0.00393298
0.00440356
0.00490237
0.00544795
0.00606771
0.00671492
0.00736520
0.00800021
0.00858908
0.00913197
0.00968698
0.01028124
0.01078707
0.01124307
0.01170218
0.01226933
0.01277940
0.01330257
0.01384327
0.01439494
0.01484365
0.01531450
0.01568370
0.01593507
0.01612686
0.01639163
0.01660731
0.01675119
0.01671790
0.01678464
0.01683149
0.01705083
0.01734726
0.01735081
0.01737961
0.01749629
0.01732364
0.01726952
0.01736387
0.01747444
0.01755287
0.01758638
0.01764988
0.01775799
0.01785856
0.01795752
0.01797668
0.01799354
0.01796719
0.01788395
0.01778193
0.01760003
0.01739696
0.01715678
0.01699415
0.01695685
0.01681547
0.01676482
0.01683412
0.01690603
0.01700177
0.01722943
0.01749754
0.01775345
0.01811070
0.01853859
0.01892911
0.01938553
0.02020612
0.02154468
0.02346614
0.02516538
0.02511174
0.02239795
0.01869133
0.01305624
0.00770769
0.00780729
0.00674964
0.00508987
0.00397997
0.00423314
0.00184583
0.00378963
0.00067737
-0.00043229
-0.00032796
-0.00004521
-0.00131957
0.00073561
-0.00197976
0.00524567
0.01858456
0.02264097
0.03458059
0.02016021
0.00718423
0.00499779
0.00286860
0.00217355
0.00226354
0.00217210
0.00245457
0.00256803
0.00316429
0.00368238
0.00434555
0.00474587
0.00519476
0.00571036
0.00580344
0.00568225
0.00571328
0.00566992
0.00504397
0.00442669
0.00422455
0.00443457
0.00478890
0.00530291
0.00593384
0.00661264
0.00729957
0.00803597
0.00883270
0.00962031
0.01037460
0.01109120
0.01176870
0.01238966
0.01295676
0.01358270
0.01414050
0.01466939
0.01519874
0.01583053
0.01644008
0.01704775
0.01770967
0.01834068
0.01891055
0.01943966
0.01985902
0.02018040
0.02042730
0.02070717
0.02100895
0.02113444
0.02116633
0.02124370
0.02135971
0.02163820
0.02197873
0.02204426
0.02211280
0.02223598
0.02210706
0.02206538
0.02210363
0.02232324
0.02242749
0.02247206
0.02260349
0.02280037
0.02294978
0.02309521
0.02315075
0.02316770
0.02315335
0.02310118
0.02301980
0.02281917
0.02252488
0.02229874
0.02209552
0.02207072
0.02192012
0.02187130
0.02200811
0.02222819
0.02242670
0.02274280
0.02310321
0.02346571
0.02398161
0.02457245
0.02516237
0.02583309
0.02697778
0.02859190
0.03067517
0.03202855
0.03148153
0.03010796
0.02796974
0.02497640
0.02135917
0.02009130
0.01708493
0.01579810
0.01267420
0.01253834
0.01084209
0.01287258
0.00588772
0.00529368
0.00570079
0.00541359
0.00268148
0.00284676
0.00398800
0.01348318
0.03824415
0.03812900
0.04701737
0.03109822
0.01073651
0.00748887
0.00415990
0.00339008
0.00339278
0.00337068
0.00367876
0.00402189
0.00460049
0.00517715
0.00591208
0.00638469
0.00672974
0.00708781
0.00703795
0.00700167
0.00697132
0.00661336
0.00600548
0.00544710
0.00539961
0.00574291
0.00625618
0.00695888
0.00776771
0.00859559
0.00938952
0.01023404
0.01109292
0.01190992
0.01266287
0.01337992
0.01407104
0.01467124
0.01523425
0.01581620
0.01639001
0.01697123
0.01757942
0.01824913
0.01890401
0.01956436
0.02029482
0.02099043
0.02163197
0.02217592
0.02261352
0.02297255
0.02326924
0.02355900
0.02389696
0.02406459
0.02417939
0.02426901
0.02444159
0.02475498
0.02508841
0.02525207
0.02536991
0.02548574
0.02542035
0.02535524
0.02539786
0.02569005
0.02582714
0.02590069
0.02604567
0.02631064
0.02647962
0.02666030
0.02673172
0.02677311
0.02679366
0.02676732
0.02669231
0.02651602
0.02620106
0.02597160
0.02576385
0.02570446
0.02556598
0.02555099
0.02576752
0.02609636
0.02637356
0.02679789
0.02724891
0.02771292
0.02833585
0.02904672
0.02978776
0.03067751
0.03202043
0.03379155
0.03569938
0.03679809
0.03613158
0.03532915
0.03491285
0.03362988
0.03266056
0.03261910
0.03038695
0.03040026
0.02836455
0.02458957
0.02442255
0.02537977
0.01747055
0.01778572
0.01859499
0.01763371
0.01112542
0.01227626
0.02225011
0.03971548
0.06020822
0.05455537
0.05934543
0.04262590
0.01462918
0.00921762
0.00578256
0.00441525
0.00433584
0.00441635
0.00482474
0.00529353
0.00582128
0.00647418
0.00720159
0.00762016
0.00781926
0.00811247
0.00813340
0.00807243
0.00780624
0.00742644
0.00682712
0.00636671
0.00645684
0.00693576
0.00759801
0.00844890
0.00938706
0.01030552
0.01114485
0.01202302
0.01287218
0.01365906
0.01436089
0.01505749
0.01571911
0.01629047
0.01682581
0.01739277
0.01797075
0.01860920
0.01927081
0.01998309
0.02068065
0.02137919
0.02214793
0.02289932
0.02357853
0.02410880
0.02457638
0.02496425
0.02530530
0.02562146
0.02594026
0.02614525
0.02633897
0.02645085
0.02668244
0.02702671
0.02733173
0.02759454
0.02776620
0.02786268
0.02785763
0.02776884
0.02780788
0.02815046
0.02833219
0.02845496
0.02858151
0.02887227
0.02908178
0.02929465
0.02935952
0.02940870
0.02948418
0.02947679
0.02941122
0.02924365
0.02892261
0.02870216
0.02849188
0.02841026
0.02826699
0.02831516
0.02860007
0.02898440
0.02935007
0.02984805
0.03040760
0.03100354
0.03167008
0.03246413
0.03333125
0.03439707
0.03587105
0.03764373
0.03930343
0.04022981
0.03959227
0.03931416
0.03950064
0.03959981
0.03979654
0.04071108
0.04138513
0.04209868
0.04179814
0.04087660
0.04062633
0.03929012
0.03437713
0.03313735
0.03250921
0.03189822
0.02404205
0.02355594
0.04517036
0.06705911
0.07774703
0.06893342
0.07131385
0.05405185
0.01836215
0.01053720
0.00738671
0.00565494
0.00529782
0.00539125
0.00582498
0.00634723
0.00687593
0.00747140
0.00809151
0.00854754
0.00880965
0.00900192
0.00900983
0.00875700
0.00846769
0.00806715
0.00754297
0.00719540
0.00741709
0.00802217
0.00879905
0.00975936
0.01077513
0.01173675
0.01258178
0.01344243
0.01424856
0.01497268
0.01563530
0.01629825
0.01691872
0.01746439
0.01799197
0.01855608
0.01915315
0.01985053
0.02056518
0.02131503
0.02205362
0.02278640
0.02357914
0.02437064
0.02507303
0.02558291
0.02607650
0.02650478
0.02688026
0.02723458
0.02751762
0.02775541
0.02801839
0.02816583
0.02841459
0.02878279
0.02907305
0.02940102
0.02962014
0.02969299
0.02972518
0.02964075
0.02969282
0.03005702
0.03026562
0.03045965
0.03055783
0.03084102
0.03106356
0.03132064
0.03137183
0.03142828
0.03155015
0.03156690
0.03149468
0.03133028
0.03102258
0.03081042
0.03060216
0.03050667
0.03036704
0.03047729
0.03081053
0.03124671
0.03167181
0.03224891
0.03290287
0.03358605
0.03429101
0.03514796
0.03611157
0.03731308
0.03885437
0.04055562
0.04194542
0.04277363
0.04223688
0.04229669
0.04311372
0.04402232
0.04518424
0.04622346
0.04802874
0.04948592
0.05102993
0.05235835
0.05263687
0.05048956
0.05089284
0.04895204
0.04861275
0.04752977
0.04104001
0.04349004
0.06678855
0.08193166
0.08419391
0.07907785
0.08127024
0.06538671
0.02293105
0.01175883
0.00858753
0.00670609
0.00619385
0.00626656
0.00667394
0.00725591
0.00781528
0.00836865
0.00894539
0.00935895
0.00958049
0.00966511
0.00957865
0.00932018
0.00899248
0.00861942
0.00817132
0.00794379
0.00828697
0.00899734
0.00986018
0.01089063
0.01193651
0.01290513
0.01373696
0.01455567
0.01530101
0.01597644
0.01660813
0.01723520
0.01782295
0.01835764
0.01889852
0.01948306
0.02010841
0.02085741
0.02162444
0.02241202
0.02319050
0.02395462
0.02475833
0.02557894
0.02630676
0.02680687
0.02731122
0.02777516
0.02818558
0.02856570
0.02882929
0.02909734
0.02942215
0.02958139
0.02983975
0.03021637
0.03050261
0.03087110
0.03111990
0.03117739
0.03122159
0.03115642
0.03125451
0.03160603
0.03183569
0.03207984
0.03215664
0.03240556
0.03263948
0.03292945
0.03297425
0.03302469
0.03317491
0.03323175
0.03314692
0.03297797
0.03269885
0.03248727
0.03227712
0.03217207
0.03205267
0.03220376
0.03257672
0.03305445
0.03352243
0.03418697
0.03491634
0.03564805
0.03638219
0.03729887
0.03833006
0.03962733
0.04118172
0.04276488
0.04394094
0.04470143
0.04429631
0.04462113
0.04587507
0.04734413
0.04896816
0.05092917
0.05290336
0.05466174
0.05696844
0.05823272
0.05997339
0.06066085
0.06222408
0.06270607
0.06395229
0.06359028
0.06089739
0.06585980
0.08586216
0.08933772
0.08603997
0.08521915
0.08815268
0.07624824
0.02996001
0.01338131
0.00939304
0.00754979
0.00696536
0.00703501
0.00745123
0.00801315
0.00858115
0.00916442
0.00962031
0.00995567
0.01011733
0.01013581
0.01002899
0.00975921
0.00943081
0.00910355
0.00873912
0.00862236
0.00907307
0.00986371
0.01078909
0.01185391
0.01289245
0.01384610
0.01465806
0.01542480
0.01612078
0.01675865
0.01737353
0.01797148
0.01853946
0.01908930
0.01966573
0.02028289
0.02094062
0.02173118
0.02254596
0.02337184
0.02418448
0.02498410
0.02579583
0.02663671
0.02737682
0.02789860
0.02839388
0.02887684
0.02933822
0.02972492
0.02999590
0.03029378
0.03065273
0.03081663
0.03108102
0.03145528
0.03173397
0.03212632
0.03238763
0.03243782
0.03248166
0.03245728
0.03260020
0.03292943
0.03318398
0.03342920
0.03349453
0.03369532
0.03394688
0.03425112
0.03429558
0.03433261
0.03449268
0.03459718
0.03450235
0.03433030
0.03407849
0.03386958
0.03364316
0.03353369
0.03344251
0.03361770
0.03401504
0.03452408
0.03504020
0.03577910
0.03656841
0.03730615
0.03806778
0.03903998
0.04012966
0.04147953
0.04299942
0.04443830
0.04545615
0.04615751
0.04592841
0.04646204
0.04798416
0.04979223
0.05177864
0.05410488
0.05662128
0.05913722
0.06152801
0.06332689
0.06453561
0.06698505
0.06902599
0.07231188
0.07357048
0.07514004
0.07370469
0.08245057
0.09085649
0.09189501
0.08794841
0.08767076
0.09230798
0.08532106
0.03898603
0.01515493
0.01040820
0.00842607
0.00775447
0.00780705
0.00821524
0.00869856
0.00923610
0.00974349
0.01015247
0.01041804
0.01050410
0.01051494
0.01038287
0.01010303
0.00979035
0.00952400
0.00925366
0.00924194
0.00978152
0.01062749
0.01160123
0.01266324
0.01367915
0.01460886
0.01539534
0.01611404
0.01677236
0.01739095
0.01799457
0.01857455
0.01914252
0.01973128
0.02035322
0.02102091
0.02171484
0.02253534
0.02339125
0.02424908
0.02509502
0.02594158
0.02676110
0.02760449
0.02835613
0.02891430
0.02940504
0.02987684
0.03039747
0.03077864
0.03107612
0.03140377
0.03177089
0.03194179
0.03221915
0.03257967
0.03284141
0.03324550
0.03349756
0.03354582
0.03359527
0.03363204
0.03381019
0.03410708
0.03438438
0.03459154
0.03465546
0.03480825
0.03508268
0.03537897
0.03542148
0.03544725
0.03560700
0.03575594
0.03565887
0.03548377
0.03525404
0.03505843
0.03481836
0.03469313
0.03462094
0.03480441
0.03521811
0.03574620
0.03630151
0.03710550
0.03794465
0.03866947
0.03944130
0.04046329
0.04159724
0.04296003
0.04441542
0.04569141
0.04659340
0.04724744
0.04721860
0.04800904
0.04966716
0.05174300
0.05398692
0.05659720
0.05925740
0.06237469
0.06485662
0.06711555
0.06940004
0.07191551
0.07373177
0.07667496
0.07946658
0.08288841
0.08378343
0.09138483
0.08847527
0.09330661
0.08928939
0.08814554
0.09396571
0.09207829
0.04927807
0.01707367
0.01145932
0.00922266
0.00853581
0.00856156
0.00889737
0.00930526
0.00973104
0.01019051
0.01053967
0.01077452
0.01083702
0.01079414
0.01064743
0.01038269
0.01010248
0.00989638
0.00972288
0.00980876
0.01041931
0.01130005
0.01230219
0.01334139
0.01432725
0.01522368
0.01598692
0.01667084
0.01730674
0.01791531
0.01852093
0.01910047
0.01968933
0.02032357
0.02099605
0.02172905
0.02246601
0.02330881
0.02419980
0.02508659
0.02596649
0.02685857
0.02769343
0.02852546
0.02929055
0.02988273
0.03037715
0.03082787
0.03139403
0.03177054
0.03210756
0.03245472
0.03281758
0.03299454
0.03329871
0.03363313
0.03388759
0.03427595
0.03450649
0.03454830
0.03460418
0.03471982
0.03492248
0.03519425
0.03547511
0.03564382
0.03570040
0.03580933
0.03610235
0.03637569
0.03641374
0.03644167
0.03659015
0.03676768
0.03669410
0.03650137
0.03630628
0.03611634
0.03588389
0.03573344
0.03566556
0.03584373
0.03626363
0.03679399
0.03738063
0.03822876
0.03911644
0.03983442
0.04059691
0.04164387
0.04281377
0.04414951
0.04551593
0.04663074
0.04744151
0.04807847
0.04824115
0.04927204
0.05101312
0.05326537
0.05567457
0.05846796
0.06150380
0.06449333
0.06714943
0.07007324
0.07274012
0.07567068
0.07724171
0.07853203
0.08133901
0.08545228
0.08864733
0.09704727
0.09376353
0.09475496
0.09007843
0.08798761
0.09393602
0.09667438
0.06035401
0.01977334
0.01259695
0.01002119
0.00925354
0.00918016
0.00946139
0.00978104
0.01015266
0.01054171
0.01083618
0.01104443
0.01109240
0.01100981
0.01085454
0.01061264
0.01037726
0.01022581
0.01014899
0.01032565
0.01098809
0.01188978
0.01289963
0.01390986
0.01486355
0.01572048
0.01646802
0.01713384
0.01776491
0.01837522
0.01899493
0.01958572
0.02021410
0.02088842
0.02162126
0.02242300
0.02321692
0.02407300
0.02500291
0.02592679
0.02683403
0.02775717
0.02860523
0.02942993
0.03020137
0.03082984
0.03133409
0.03176355
0.03236427
0.03273848
0.03311135
0.03346982
0.03381484
0.03399782
0.03432401
0.03463839
0.03490870
0.03526724
0.03546815
0.03549109
0.03556288
0.03574288
0.03596227
0.03623196
0.03649659
0.03663060
0.03666680
0.03674160
0.03704165
0.03730157
0.03732428
0.03736265
0.03749206
0.03766743
0.03765230
0.03744135
0.03727501
0.03708469
0.03688699
0.03670608
0.03664352
0.03680128
0.03721090
0.03773099
0.03834321
0.03921907
0.04013271
0.04085777
0.04159128
0.04265582
0.04385089
0.04510267
0.04636175
0.04735201
0.04808713
0.04872501
0.04906076
0.05028089
0.05208710
0.05442741
0.05703521
0.05991603
0.06316151
0.06621950
0.06913015
0.07229448
0.07503062
0.07830698
0.08072294
0.08241808
0.08421422
0.08670372
0.09093682
0.09373237
0.09962341
0.09471535
0.09068442
0.08783125
0.09284768
0.09928655
0.07145066
0.02330026
0.01376236
0.01078198
0.00987272
0.00970138
0.00992586
0.01019455
0.01050954
0.01082813
0.01107652
0.01125228
0.01128600
0.01118541
0.01102188
0.01080536
0.01062021
0.01052121
0.01053178
0.01079520
0.01148666
0.01240187
0.01340632
0.01438813
0.01530024
0.01612733
0.01686769
0.01752858
0.01817161
0.01879661
0.01943985
0.02005661
0.02073556
0.02144894
0.02224985
0.02311408
0.02397059
0.02485090
0.02582720
0.02679326
0.02771795
0.02865265
0.02950071
0.03032875
0.03110694
0.03177015
0.03229457
0.03271457
0.03333085
0.03371220
0.03409772
0.03445878
0.03478202
0.03497396
0.03530400
0.03562495
0.03592393
0.03625320
0.03640802
0.03640871
0.03650792
0.03671630
0.03695569
0.03724489
0.03748155
0.03757713
0.03759594
0.03763843
0.03792809
0.03819067
0.03818688
0.03824806
0.03834822
0.03849793
0.03855348
0.03834597
0.03817629
0.03800031
0.03784539
0.03765025
0.03758740
0.03771353
0.03809514
0.03859864
0.03922837
0.04011373
0.04101471
0.04175772
0.04247089
0.04354970
0.04472913
0.04588227
0.04701591
0.04793957
0.04860753
0.04923300
0.04974713
0.05113422
0.05297715
0.05535724
0.05804621
0.06114378
0.06429509
0.06755446
0.07081778
0.07399321
0.07676245
0.07972912
0.08284570
0.08569250
0.08800024
0.08941507
0.09256289
0.09587078
0.09777284
0.09462757
0.09094364
0.08776716
0.09136896
0.09997566
0.08138986
0.02817943
0.01509971
0.01159629
0.01044838
0.01018577
0.01032625
0.01053533
0.01079362
0.01105213
0.01127548
0.01141599
0.01142613
0.01131944
0.01116451
0.01096264
0.01083392
0.01078922
0.01087651
0.01121593
0.01192643
0.01284039
0.01383925
0.01479015
0.01565594
0.01646679
0.01720990
0.01787559
0.01854106
0.01919726
0.01987238
0.02053134
0.02126262
0.02203210
0.02289839
0.02381367
0.02473948
0.02565940
0.02667993
0.02768635
0.02861431
0.02955541
0.03039399
0.03123294
0.03200106
0.03270931
0.03327363
0.03369808
0.03430460
0.03469499
0.03506629
0.03543688
0.03573789
0.03593361
0.03626657
0.03661581
0.03694150
0.03724338
0.03734008
0.03732045
0.03745172
0.03766539
0.03792348
0.03825029
0.03844808
0.03851628
0.03851266
0.03852461
0.03878313
0.03905013
0.03903053
0.03911857
0.03918701
0.03931407
0.03941088
0.03922755
0.03904947
0.03890674
0.03876789
0.03857839
0.03850112
0.03860915
0.03894159
0.03942803
0.04006264
0.04093198
0.04180392
0.04255073
0.04327383
0.04435611
0.04548677
0.04654596
0.04754771
0.04844555
0.04906256
0.04964801
0.05034498
0.05189920
0.05369735
0.05610035
0.05893212
0.06204046
0.06523004
0.06860962
0.07187985
0.07522554
0.07827509
0.08128206
0.08457745
0.08773687
0.09069785
0.09351046
0.09652151
0.09768908
0.09814426
0.09402878
0.09074598
0.08773617
0.08990855
0.09926520
0.08964571
0.03489412
0.01674556
0.01243958
0.01100784
0.01063193
0.01068149
0.01083126
0.01103000
0.01123805
0.01142367
0.01153366
0.01154054
0.01142813
0.01127921
0.01110881
0.01101943
0.01103108
0.01119258
0.01158795
0.01231429
0.01321982
0.01420965
0.01512168
0.01595351
0.01675722
0.01751201
0.01819361
0.01889185
0.01958951
0.02030327
0.02102036
0.02180421
0.02265634
0.02358289
0.02453742
0.02553025
0.02649843
0.02755491
0.02859126
0.02951682
0.03047038
0.03129962
0.03214634
0.03289854
0.03365024
0.03427141
0.03470613
0.03529202
0.03567911
0.03603970
0.03643106
0.03670291
0.03691577
0.03724283
0.03762454
0.03796813
0.03824405
0.03829462
0.03825628
0.03840027
0.03861764
0.03889256
0.03926316
0.03941381
0.03946277
0.03942339
0.03942428
0.03965151
0.03992756
0.03988997
0.03997918
0.04002584
0.04014951
0.04025308
0.04007817
0.03992440
0.03980389
0.03966130
0.03949985
0.03939392
0.03949776
0.03977304
0.04025135
0.04087154
0.04170897
0.04252907
0.04324726
0.04401279
0.04509324
0.04616161
0.04712029
0.04799367
0.04885869
0.04947041
0.05002413
0.05086007
0.05256781
0.05430323
0.05673072
0.05962690
0.06273555
0.06596023
0.06939526
0.07275223
0.07610196
0.07932579
0.08243563
0.08585714
0.08898078
0.09202552
0.09587428
0.09880039
0.09922709
0.09533105
0.09324545
0.09030990
0.08768029
0.08862576
0.09766055
0.09588363
0.04348407
0.01879912
0.01336513
0.01159603
0.01106070
0.01100398
0.01109032
0.01124402
0.01138784
0.01153401
0.01162853
0.01162847
0.01151361
0.01138008
0.01124004
0.01118365
0.01125197
0.01147933
0.01191428
0.01265283
0.01355379
0.01452682
0.01539048
0.01621147
0.01701135
0.01778973
0.01849555
0.01923179
0.01998342
0.02074322
0.02153393
0.02237261
0.02332415
0.02431600
0.02529434
0.02634776
0.02736204
0.02844830
0.02949861
0.03043937
0.03140801
0.03223045
0.03308310
0.03382383
0.03460335
0.03528154
0.03573557
0.03629397
0.03667618
0.03705081
0.03744332
0.03770952
0.03794270
0.03825789
0.03864322
0.03902342
0.03925968
0.03928518
0.03924358
0.03936536
0.03958547
0.03989551
0.04029112
0.04040840
0.04041493
0.04033729
0.04033910
0.04057095
0.04085292
0.04080069
0.04083746
0.04089464
0.04101959
0.04109873
0.04090846
0.04080096
0.04069003
0.04053200
0.04041129
0.04030107
0.04037475
0.04061850
0.04107752
0.04167627
0.04245980
0.04322304
0.04389794
0.04473105
0.04577644
0.04675758
0.04761512
0.04837796
0.04917902
0.04981220
0.05040108
0.05129098
0.05310274
0.05484318
0.05725745
0.06019878
0.06327678
0.06653706
0.06993266
0.07340508
0.07689110
0.08011196
0.08325250
0.08684592
0.08964449
0.09260757
0.09602402
0.09847661
0.09810914
0.09436568
0.09233016
0.08970946
0.08749079
0.08754687
0.09557514
0.09990756
0.05372472
0.02143952
0.01443018
0.01218799
0.01147487
0.01130191
0.01131894
0.01141318
0.01151705
0.01163518
0.01170056
0.01168524
0.01158833
0.01146768
0.01136383
0.01133494
0.01145514
0.01173205
0.01220043
0.01294308
0.01384571
0.01479625
0.01561229
0.01644426
0.01724405
0.01805855
0.01879589
0.01957890
0.02038937
0.02120918
0.02207629
0.02298140
0.02403082
0.02508422
0.02609001
0.02719864
0.02824566
0.02935528
0.03041710
0.03138291
0.03236430
0.03319749
0.03405729
0.03478335
0.03558136
0.03630503
0.03678797
0.03731128
0.03769681
0.03810283
0.03849060
0.03876725
0.03901007
0.03933649
0.03967428
0.04010371
0.04029634
0.04032460
0.04027490
0.04035719
0.04059093
0.04094176
0.04134155
0.04144272
0.04140254
0.04127653
0.04126688
0.04153957
0.04183379
0.04177161
0.04174041
0.04181302
0.04191046
0.04197700
0.04175107
0.04168351
0.04159363
0.04141750
0.04132104
0.04122615
0.04125622
0.04148656
0.04189141
0.04248756
0.04318564
0.04389822
0.04456109
0.04543737
0.04641289
0.04728642
0.04803850
0.04872614
0.04945736
0.05011284
0.05077114
0.05167903
0.05352245
0.05529216
0.05769623
0.06066027
0.06366282
0.06691363
0.07037592
0.07392165
0.07729917
0.08058534
0.08381119
0.08732902
0.09034563
0.09289713
0.09575793
0.09676182
0.09755232
0.09504372
0.09127567
0.08888550
0.08710698
0.08663504
0.09334135
0.10196536
0.06475865
0.02496936
0.01569487
0.01283320
0.01187597
0.01158018
0.01151153
0.01155795
0.01163470
0.01171110
0.01175411
0.01173176
0.01164590
0.01154573
0.01147835
0.01147545
0.01164113
0.01195485
0.01244817
0.01319712
0.01410122
0.01501601
0.01580752
0.01666560
0.01747984
0.01832823
0.01910763
0.01995275
0.02081423
0.02169379
0.02265332
0.02363138
0.02477407
0.02587803
0.02691963
0.02807290
0.02915652
0.03027037
0.03136034
0.03235582
0.03334001
0.03419455
0.03505370
0.03578111
0.03659685
0.03735173
0.03786653
0.03836824
0.03876862
0.03920227
0.03958110
0.03987084
0.04014484
0.04046135
0.04075592
0.04119240
0.04137442
0.04141294
0.04134355
0.04140392
0.04163867
0.04202109
0.04242254
0.04250403
0.04245150
0.04228007
0.04224729
0.04254369
0.04284844
0.04278687
0.04272222
0.04278350
0.04281982
0.04288458
0.04265245
0.04259502
0.04254218
0.04235432
0.04226503
0.04215291
0.04215181
0.04236806
0.04271772
0.04328233
0.04389969
0.04456685
0.04522280
0.04611597
0.04701666
0.04776547
0.04843208
0.04905833
0.04973100
0.05040461
0.05113097
0.05205604
0.05382145
0.05565614
0.05805588
0.06102047
0.06391926
0.06721101
0.07065628
0.07426778
0.07761636
0.08082885
0.08421513
0.08777942
0.09090001
0.09363599
0.09583344
0.09560678
0.09711196
0.09463876
0.09010857
0.08794543
0.08659983
0.08579276
0.09119308
0.10217011
0.07562204
0.02974163
0.01722606
0.01356895
0.01229892
0.01184366
0.01169663
0.01168837
0.01172926
0.01177540
0.01179898
0.01176768
0.01169162
0.01161707
0.01158298
0.01160695
0.01180919
0.01215256
0.01266825
0.01342942
0.01432652
0.01519320
0.01599530
0.01688171
0.01773343
0.01861246
0.01944095
0.02034774
0.02126516
0.02219436
0.02326276
0.02431716
0.02554572
0.02669414
0.02778100
0.02899048
0.03011762
0.03122267
0.03232948
0.03334885
0.03432791
0.03522484
0.03608297
0.03683870
0.03765823
0.03843310
0.03896671
0.03946893
0.03989503
0.04033909
0.04070569
0.04102882
0.04133816
0.04163324
0.04191569
0.04232999
0.04250078
0.04255948
0.04247533
0.04252513
0.04273443
0.04313677
0.04354092
0.04360494
0.04355528
0.04338068
0.04331789
0.04358765
0.04386564
0.04383402
0.04376487
0.04380103
0.04377452
0.04381920
0.04361924
0.04354393
0.04353398
0.04334720
0.04324817
0.04309039
0.04306767
0.04325508
0.04356958
0.04406475
0.04463198
0.04524888
0.04588657
0.04678102
0.04758090
0.04821526
0.04883596
0.04938572
0.05000139
0.05068636
0.05147470
0.05244264
0.05406288
0.05598095
0.05836155
0.06126644
0.06409639
0.06742942
0.07082849
0.07443084
0.07776444
0.08105992
0.08442749
0.08789133
0.09103193
0.09398331
0.09591886
0.09652940
0.09387464
0.09235801
0.08890471
0.08695423
0.08594191
0.08497923
0.08922629
0.10110564
0.08536376
0.03608440
0.01920354
0.01443145
0.01276311
0.01212362
0.01188031
0.01180417
0.01181509
0.01183383
0.01182974
0.01179805
0.01173300
0.01168176
0.01167924
0.01173170
0.01195727
0.01232593
0.01287325
0.01364558
0.01452635
0.01535380
0.01619169
0.01710053
0.01800435
0.01892059
0.01980756
0.02076062
0.02174945
0.02272580
0.02389452
0.02503662
0.02634180
0.02753970
0.02868470
0.02996414
0.03113327
0.03222914
0.03332009
0.03434592
0.03532443
0.03628910
0.03715839
0.03797812
0.03876970
0.03954359
0.04012108
0.04063767
0.04107084
0.04151406
0.04188974
0.04222627
0.04259402
0.04286895
0.04316283
0.04354662
0.04367518
0.04376187
0.04369142
0.04371582
0.04389339
0.04428271
0.04469127
0.04477376
0.04472349
0.04457067
0.04448135
0.04468903
0.04491497
0.04492133
0.04487345
0.04488359
0.04480700
0.04480460
0.04463848
0.04453003
0.04455560
0.04435769
0.04424023
0.04406823
0.04402625
0.04415693
0.04445563
0.04487956
0.04540017
0.04597818
0.04658005
0.04744969
0.04816756
0.04868333
0.04925908
0.04972089
0.05028401
0.05095112
0.05179542
0.05282860
0.05431539
0.05626711
0.05860621
0.06143668
0.06421342
0.06755862
0.07090374
0.07453967
0.07778665
0.08101741
0.08448263
0.08772568
0.09064059
0.09363473
0.09558710
0.09602208
0.09326979
0.09096546
0.08767669
0.08590640
0.08517112
0.08415360
0.08746183
0.09915589
0.09319736
0.04428804
0.02181428
0.01550607
0.01329352
0.01242143
0.01206544
0.01191961
0.01189208
0.01188597
0.01185562
0.01182556
0.01177263
0.01173951
0.01176938
0.01185027
0.01208679
0.01248137
0.01306551
0.01384171
0.01470734
0.01552463
0.01641017
0.01733125
0.01829462
0.01926871
0.02021317
0.02120338
0.02227605
0.02331354
0.02456141
0.02579616
0.02716708
0.02843113
0.02964302
0.03096208
0.03217731
0.03327713
0.03434294
0.03537657
0.03634095
0.03739159
0.03828710
0.03917464
0.03995748
0.04069136
0.04132209
0.04185693
0.04231473
0.04273591
0.04312797
0.04346772
0.04390157
0.04417929
0.04446157
0.04483001
0.04491862
0.04500769
0.04499757
0.04497385
0.04513423
0.04549123
0.04589212
0.04599512
0.04594980
0.04581151
0.04571939
0.04586141
0.04601775
0.04608283
0.04606023
0.04605113
0.04592597
0.04587465
0.04570685
0.04556988
0.04559664
0.04541285
0.04525427
0.04507659
0.04504507
0.04510417
0.04536450
0.04573918
0.04622312
0.04675672
0.04732737
0.04811853
0.04880371
0.04921946
0.04969983
0.05008519
0.05059100
0.05122127
0.05208586
0.05319140
0.05460603
0.05651398
0.05879470
0.06154950
0.06427023
0.06761079
0.07094559
0.07451386
0.07771004
0.08090699
0.08429746
0.08757576
0.09034216
0.09285689
0.09452618
0.09431254
0.09340562
0.08954288
0.08643643
0.08483837
0.08432293
0.08328111
0.08588075
0.09671786
0.09865436
0.05427153
0.02528537
0.01686327
0.01393137
0.01275864
0.01226491
0.01203811
0.01196514
0.01193617
0.01188340
0.01184981
0.01181438
0.01179024
0.01185241
0.01196597
0.01221140
0.01262337
0.01323433
0.01401817
0.01488013
0.01571730
0.01664751
0.01758474
0.01860723
0.01965631
0.02064997
0.02169571
0.02285856
0.02396185
0.02527170
0.02660790
0.02803611
0.02936172
0.03064373
0.03197970
0.03325283
0.03433805
0.03540784
0.03644778
0.03742232
0.03853306
0.03947335
0.04041989
0.04122186
0.04189544
0.04254529
0.04310145
0.04361485
0.04399798
0.04438188
0.04475393
0.04524155
0.04553496
0.04580818
0.04613810
0.04624120
0.04630306
0.04636848
0.04631516
0.04646410
0.04681032
0.04718111
0.04727635
0.04723300
0.04708552
0.04699207
0.04710644
0.04720131
0.04733236
0.04734021
0.04728460
0.04713190
0.04703757
0.04681257
0.04664828
0.04667733
0.04652557
0.04633797
0.04613344
0.04609965
0.04610208
0.04631084
0.04665838
0.04711895
0.04760121
0.04811393
0.04878631
0.04945809
0.04981450
0.05015820
0.05050288
0.05094648
0.05153231
0.05236963
0.05349268
0.05489460
0.05673013
0.05895509
0.06161903
0.06431130
0.06759783
0.07094559
0.07442103
0.07752494
0.08072385
0.08409067
0.08720651
0.09007716
0.09240888
0.09321813
0.09386644
0.09169809
0.08818108
0.08522550
0.08376964
0.08337898
0.08238434
0.08446107
0.09409053
0.10174886
0.06535158
0.02995466
0.01862970
0.01473369
0.01317177
0.01249258
0.01216714
0.01204180
0.01198381
0.01191603
0.01187529
0.01185403
0.01184078
0.01192596
0.01207418
0.01233899
0.01276297