/*--------------------------------*- C++ -*----------------------------------*\
  =========                 |
  \\      /  F ield         | OpenFOAM: The Open Source CFD Toolbox
   \\    /   O peration     | Website:  https://openfoam.org
    \\  /    A nd           | Version:  7
     \\/     M anipulation  |
\*---------------------------------------------------------------------------*/
FoamFile
{
    version     2.0;
    format      ascii;
    class       volSymmTensorField;
    location    "0";
    object      tauij_LES;
}
// * * * * * * * * * * * * * * * * * * * * * * * * * * * * * * * * * * * * * //

dimensions      [0 2 -2 0 0 0 0];

internalField   nonuniform List<symmTensor>
15600
(
(0.00488137 -0.00004601 0.00000000 0.00000972 0.00000000 0.00402915)
(-0.00009865 -0.00034637 0.00000000 0.00034678 0.00000000 0.00181084)
(-0.00006597 -0.00000221 0.00000000 -0.00017301 0.00000000 -0.00018086)
(0.00001026 -0.00014430 0.00000000 0.00034345 0.00000000 0.00097963)
(0.00004790 -0.00008955 0.00000000 0.00016596 0.00000000 0.00048442)
(0.00001352 -0.00001990 0.00000000 0.00003081 0.00000000 0.00042037)
(0.00002898 -0.00001628 0.00000000 -0.00001178 0.00000000 0.00031310)
(0.00000991 0.00001226 0.00000000 -0.00005099 0.00000000 0.00023604)
(0.00001175 -0.00002781 0.00000000 0.00006873 0.00000000 0.00065253)
(0.00004978 -0.00005980 0.00000000 0.00007587 0.00000000 0.00051292)
(0.00002313 -0.00002658 0.00000000 0.00003021 0.00000000 0.00033247)
(-0.00003035 -0.00000724 0.00000000 0.00011337 0.00000000 0.00049300)
(0.00003384 -0.00002455 0.00000000 0.00001102 0.00000000 0.00049440)
(0.00007562 -0.00008474 0.00000000 0.00010040 0.00000000 0.00074510)
(-0.00002801 -0.00002893 0.00000000 0.00015333 0.00000000 0.00070446)
(0.00005994 -0.00006087 0.00000000 0.00006564 0.00000000 0.00081026)
(0.00005814 -0.00007847 0.00000000 0.00010647 0.00000000 0.00104409)
(0.00002536 -0.00004248 0.00000000 0.00006313 0.00000000 0.00072623)
(0.00007367 -0.00007971 0.00000000 0.00008914 0.00000000 0.00083243)
(0.00036076 -0.00027739 0.00000000 0.00022510 0.00000000 0.00176076)
(0.00038489 -0.00018321 0.00000000 0.00009053 0.00000000 0.00093873)
(0.00047468 -0.00000489 0.00000000 0.00000179 0.00000000 0.00071840)
(0.00025777 -0.00000042 0.00000000 -0.00000062 0.00000000 0.00031705)
(0.00027890 -0.00000039 0.00000000 -0.00000051 0.00000000 0.00031390)
(0.00030573 -0.00000036 0.00000000 -0.00000039 0.00000000 0.00032080)
(0.00033580 -0.00000039 0.00000000 -0.00000050 0.00000000 0.00032779)
(0.00039663 -0.00000038 0.00000000 -0.00000012 0.00000000 0.00035986)
(0.00043961 -0.00000038 0.00000000 -0.00000058 0.00000000 0.00037174)
(0.00051932 -0.00000009 0.00000000 -0.00000035 0.00000000 0.00041412)
(0.00058256 0.00000008 0.00000000 -0.00000040 0.00000000 0.00044798)
(0.00063715 -0.00000007 0.00000000 -0.00000123 0.00000000 0.00047751)
(0.00074518 0.00000018 0.00000000 -0.00000109 0.00000000 0.00053947)
(0.00085353 0.00000068 0.00000000 -0.00000096 0.00000000 0.00060331)
(0.00094903 0.00000077 0.00000000 -0.00000166 0.00000000 0.00067307)
(0.00104408 0.00000137 0.00000000 -0.00000174 0.00000000 0.00075543)
(0.00112683 0.00000176 0.00000000 -0.00000176 0.00000000 0.00083435)
(0.00122886 0.00000222 0.00000000 -0.00000162 0.00000000 0.00092687)
(0.00131740 0.00000229 0.00000000 -0.00000266 0.00000000 0.00101093)
(0.00144625 0.00000404 0.00000000 -0.00000114 0.00000000 0.00114200)
(0.00149212 0.00000402 0.00000000 -0.00000211 0.00000000 0.00122819)
(0.00154566 0.00000493 0.00000000 -0.00000195 0.00000000 0.00135239)
(0.00165359 0.00000557 0.00000000 -0.00000075 0.00000000 0.00149267)
(0.00171557 0.00000586 0.00000000 -0.00000138 0.00000000 0.00159145)
(0.00175846 0.00000492 0.00000000 -0.00000459 0.00000000 0.00164644)
(0.00187106 0.00000602 0.00000000 -0.00000329 0.00000000 0.00177554)
(0.00195216 0.00000583 0.00000000 -0.00000444 0.00000000 0.00187340)
(0.00200721 0.00000649 0.00000000 -0.00000445 0.00000000 0.00197746)
(0.00207293 0.00000656 0.00000000 -0.00000462 0.00000000 0.00208175)
(0.00209573 0.00000663 0.00000000 -0.00000497 0.00000000 0.00215080)
(0.00211558 0.00000607 0.00000000 -0.00000562 0.00000000 0.00219244)
(0.00218219 0.00000765 0.00000000 -0.00000286 0.00000000 0.00231237)
(0.00224569 0.00000740 0.00000000 -0.00000250 0.00000000 0.00236883)
(0.00222723 0.00000728 0.00000000 -0.00000490 0.00000000 0.00239807)
(0.00225862 0.00000713 0.00000000 -0.00000421 0.00000000 0.00244581)
(0.00223353 0.00000648 0.00000000 -0.00000481 0.00000000 0.00245728)
(0.00224388 0.00000638 0.00000000 -0.00000592 0.00000000 0.00245869)
(0.00222558 0.00000669 0.00000000 -0.00000409 0.00000000 0.00251749)
(0.00222679 0.00000511 0.00000000 -0.00000660 0.00000000 0.00250217)
(0.00232718 0.00000501 0.00000000 -0.00000449 0.00000000 0.00254745)
(0.00231864 0.00000600 0.00000000 -0.00000566 0.00000000 0.00252083)
(0.00230069 0.00000552 0.00000000 -0.00000591 0.00000000 0.00255315)
(0.00231663 0.00000495 0.00000000 -0.00000623 0.00000000 0.00256049)
(0.00228267 0.00000504 0.00000000 -0.00000459 0.00000000 0.00255407)
(0.00228176 0.00000479 0.00000000 -0.00000641 0.00000000 0.00251067)
(0.00233614 0.00000441 0.00000000 -0.00000157 0.00000000 0.00260109)
(0.00228640 0.00000459 0.00000000 -0.00000501 0.00000000 0.00255565)
(0.00237929 0.00000360 0.00000000 0.00000052 0.00000000 0.00265592)
(0.00237312 0.00000443 0.00000000 -0.00000036 0.00000000 0.00268432)
(0.00229075 0.00000379 0.00000000 -0.00000262 0.00000000 0.00265204)
(0.00226770 0.00000267 0.00000000 -0.00000509 0.00000000 0.00260602)
(0.00224201 0.00000265 0.00000000 -0.00000622 0.00000000 0.00254029)
(0.00228094 0.00000261 0.00000000 -0.00000545 0.00000000 0.00252184)
(0.00224956 0.00000340 0.00000000 -0.00000554 0.00000000 0.00253192)
(0.00227922 0.00000194 0.00000000 -0.00000406 0.00000000 0.00256306)
(0.00228647 0.00000257 0.00000000 -0.00000449 0.00000000 0.00254551)
(0.00220887 0.00000240 0.00000000 -0.00000627 0.00000000 0.00248741)
(0.00223557 0.00000226 0.00000000 -0.00000421 0.00000000 0.00251286)
(0.00220028 0.00000199 0.00000000 -0.00000637 0.00000000 0.00245083)
(0.00223829 0.00000078 0.00000000 -0.00000113 0.00000000 0.00251050)
(0.00211122 0.00000116 0.00000000 -0.00000461 0.00000000 0.00239575)
(0.00217414 -0.00000047 0.00000000 -0.00000025 0.00000000 0.00241717)
(0.00209408 0.00000120 0.00000000 -0.00000416 0.00000000 0.00233756)
(0.00208823 0.00000069 0.00000000 -0.00000250 0.00000000 0.00233922)
(0.00203835 0.00000123 0.00000000 -0.00000475 0.00000000 0.00229568)
(0.00201438 0.00000107 0.00000000 -0.00000516 0.00000000 0.00229256)
(0.00197331 0.00000037 0.00000000 -0.00000492 0.00000000 0.00227927)
(0.00196589 0.00000116 0.00000000 -0.00000492 0.00000000 0.00224562)
(0.00201298 0.00000061 0.00000000 -0.00000441 0.00000000 0.00226926)
(0.00210221 0.00000146 0.00000000 -0.00000554 0.00000000 0.00230173)
(0.00206949 0.00000283 0.00000000 -0.00000585 0.00000000 0.00236028)
(0.00211272 0.00000119 0.00000000 -0.00000545 0.00000000 0.00243963)
(0.00213794 0.00000206 0.00000000 -0.00000449 0.00000000 0.00249786)
(0.00216808 0.00000141 0.00000000 -0.00000309 0.00000000 0.00257592)
(0.00219065 0.00000172 0.00000000 -0.00000466 0.00000000 0.00255867)
(0.00233316 0.00000117 0.00000000 -0.00000235 0.00000000 0.00268456)
(0.00245796 0.00000286 0.00000000 -0.00000637 0.00000000 0.00272513)
(0.00287078 0.00000293 0.00000000 -0.00000673 0.00000000 0.00289920)
(0.00359882 0.00000284 0.00000000 -0.00000680 0.00000000 0.00332297)
(0.00382120 0.00019411 0.00000000 0.00002846 0.00000000 0.00662491)
(0.00086603 0.00020642 0.00000000 0.00005856 0.00000000 0.00126538)
(-0.00006861 -0.00006611 0.00000000 -0.00006059 0.00000000 0.00070922)
(-0.00008399 -0.00004325 0.00000000 -0.00001797 0.00000000 -0.00019121)
(-0.00013203 -0.00016095 0.00000000 -0.00019602 0.00000000 -0.00088466)
(-0.00003507 -0.00003587 0.00000000 -0.00004402 0.00000000 -0.00056431)
(-0.00001710 -0.00001434 0.00000000 -0.00000991 0.00000000 -0.00010063)
(-0.00023711 -0.00036216 0.00000000 -0.00058639 0.00000000 -0.00183686)
(-0.00001473 -0.00004404 0.00000000 -0.00009061 0.00000000 -0.00003628)
(-0.00000221 0.00003285 0.00000000 0.00008996 0.00000000 -0.00016862)
(0.00003276 0.00001021 0.00000000 -0.00006658 0.00000000 -0.00112748)
(-0.00014073 -0.00026222 0.00000000 -0.00046362 0.00000000 -0.00114715)
(0.00000400 -0.00000125 0.00000000 -0.00001078 0.00000000 0.00005146)
(0.00006120 0.00003167 0.00000000 -0.00007944 0.00000000 -0.00081183)
(0.00002638 0.00011432 0.00000000 0.00029609 0.00000000 -0.00030801)
(-0.00000086 0.00006765 0.00000000 0.00022346 0.00000000 -0.00050488)
(-0.00003825 -0.00001388 0.00000000 0.00006359 0.00000000 -0.00253849)
(-0.00008828 -0.00014717 0.00000000 -0.00024405 0.00000000 -0.00181775)
(-0.00028529 -0.00033010 0.00000000 -0.00039049 0.00000000 -0.00379042)
(-0.00120019 -0.00056431 0.00000000 -0.00030923 0.00000000 -0.00171173)
(-0.00343899 -0.00071194 0.00000000 -0.00013740 0.00000000 -0.00140951)
(0.00245292 0.00002230 0.00000000 0.00001267 0.00000000 0.00364466)
(0.01302075 -0.00031622 0.00000000 0.00022898 0.00000000 0.00918300)
(0.00329000 -0.00146204 0.00000000 0.00080420 0.00000000 0.00467984)
(0.00042276 -0.00029909 0.00000000 0.00010383 0.00000000 0.00043139)
(0.00020755 -0.00052957 0.00000000 0.00103702 0.00000000 0.00186134)
(0.00016561 -0.00022238 0.00000000 0.00032147 0.00000000 0.00107175)
(0.00006423 -0.00012341 0.00000000 0.00023077 0.00000000 0.00082508)
(0.00005886 -0.00010410 0.00000000 0.00018663 0.00000000 0.00085283)
(0.00005041 -0.00008597 0.00000000 0.00014472 0.00000000 0.00081061)
(0.00003776 -0.00011624 0.00000000 0.00032118 0.00000000 0.00109770)
(0.00009415 -0.00015911 0.00000000 0.00028635 0.00000000 0.00124482)
(0.00019950 -0.00025505 0.00000000 0.00033467 0.00000000 0.00118377)
(0.00008516 -0.00018606 0.00000000 0.00041519 0.00000000 0.00104966)
(0.00022149 -0.00028585 0.00000000 0.00038232 0.00000000 0.00176171)
(0.00022045 -0.00031673 0.00000000 0.00048942 0.00000000 0.00227043)
(0.00030965 -0.00044971 0.00000000 0.00067644 0.00000000 0.00215740)
(0.00033870 -0.00039188 0.00000000 0.00048937 0.00000000 0.00287766)
(0.00041042 -0.00045057 0.00000000 0.00053343 0.00000000 0.00300782)
(0.00040447 -0.00042765 0.00000000 0.00049179 0.00000000 0.00284821)
(0.00066470 -0.00058318 0.00000000 0.00058203 0.00000000 0.00325316)
(0.00104453 -0.00068731 0.00000000 0.00057027 0.00000000 0.00419475)
(0.00143241 -0.00049004 0.00000000 0.00024144 0.00000000 0.00309880)
(0.00137719 -0.00003236 0.00000000 0.00004045 0.00000000 0.00247140)
(0.00126030 0.00000948 0.00000000 0.00002226 0.00000000 0.00164949)
(0.00138460 0.00000655 0.00000000 0.00002303 0.00000000 0.00159466)
(0.00154395 0.00000537 0.00000000 0.00002475 0.00000000 0.00159537)
(0.00176010 0.00000381 0.00000000 0.00002501 0.00000000 0.00163976)
(0.00203951 0.00000265 0.00000000 0.00002766 0.00000000 0.00173069)
(0.00237310 0.00000487 0.00000000 0.00003060 0.00000000 0.00185074)
(0.00272978 0.00000844 0.00000000 0.00003309 0.00000000 0.00200553)
(0.00311432 0.00001131 0.00000000 0.00003902 0.00000000 0.00217736)
(0.00355266 0.00001322 0.00000000 0.00004373 0.00000000 0.00239027)
(0.00402739 0.00001639 0.00000000 0.00004834 0.00000000 0.00264134)
(0.00451368 0.00002501 0.00000000 0.00005448 0.00000000 0.00292750)
(0.00497036 0.00003212 0.00000000 0.00006295 0.00000000 0.00326589)
(0.00535935 0.00004245 0.00000000 0.00007035 0.00000000 0.00362237)
(0.00570486 0.00004910 0.00000000 0.00007678 0.00000000 0.00397806)
(0.00603595 0.00005300 0.00000000 0.00008427 0.00000000 0.00436852)
(0.00639942 0.00005801 0.00000000 0.00009397 0.00000000 0.00481337)
(0.00666428 0.00006844 0.00000000 0.00010163 0.00000000 0.00523955)
(0.00686705 0.00007601 0.00000000 0.00011102 0.00000000 0.00567703)
(0.00697133 0.00007887 0.00000000 0.00012695 0.00000000 0.00611227)
(0.00723176 0.00007281 0.00000000 0.00013795 0.00000000 0.00660784)
(0.00747433 0.00007571 0.00000000 0.00014749 0.00000000 0.00705149)
(0.00775040 0.00007188 0.00000000 0.00015884 0.00000000 0.00743879)
(0.00807402 0.00007165 0.00000000 0.00016679 0.00000000 0.00785584)
(0.00839752 0.00007354 0.00000000 0.00017903 0.00000000 0.00826569)
(0.00857303 0.00007534 0.00000000 0.00018482 0.00000000 0.00867418)
(0.00878999 0.00006938 0.00000000 0.00019178 0.00000000 0.00908089)
(0.00889677 0.00007120 0.00000000 0.00019872 0.00000000 0.00937968)
(0.00898209 0.00006926 0.00000000 0.00020272 0.00000000 0.00960706)
(0.00904241 0.00007004 0.00000000 0.00020848 0.00000000 0.00987686)
(0.00918795 0.00006022 0.00000000 0.00021106 0.00000000 0.01010186)
(0.00923549 0.00006288 0.00000000 0.00021985 0.00000000 0.01031419)
(0.00928567 0.00006120 0.00000000 0.00022603 0.00000000 0.01041416)
(0.00919160 0.00004966 0.00000000 0.00022858 0.00000000 0.01046488)
(0.00926359 0.00005173 0.00000000 0.00022612 0.00000000 0.01053033)
(0.00913015 0.00003873 0.00000000 0.00023106 0.00000000 0.01067231)
(0.00924204 0.00001620 0.00000000 0.00023725 0.00000000 0.01077489)
(0.00952848 0.00001323 0.00000000 0.00023817 0.00000000 0.01092246)
(0.00947709 0.00003319 0.00000000 0.00023759 0.00000000 0.01092763)
(0.00942704 0.00000950 0.00000000 0.00024355 0.00000000 0.01098598)
(0.00948885 0.00001265 0.00000000 0.00024812 0.00000000 0.01099357)
(0.00941755 0.00001123 0.00000000 0.00024000 0.00000000 0.01091542)
(0.00943985 0.00000297 0.00000000 0.00023519 0.00000000 0.01084638)
(0.00942312 -0.00000499 0.00000000 0.00024416 0.00000000 0.01084633)
(0.00944807 -0.00000342 0.00000000 0.00024333 0.00000000 0.01094591)
(0.00946958 -0.00001464 0.00000000 0.00024283 0.00000000 0.01102987)
(0.00945044 -0.00001005 0.00000000 0.00024280 0.00000000 0.01116791)
(0.00938053 -0.00001783 0.00000000 0.00024164 0.00000000 0.01119352)
(0.00945314 -0.00002965 0.00000000 0.00024015 0.00000000 0.01117016)
(0.00954128 -0.00003482 0.00000000 0.00023207 0.00000000 0.01110891)
(0.00967971 -0.00003737 0.00000000 0.00022919 0.00000000 0.01104385)
(0.00965161 -0.00002736 0.00000000 0.00022625 0.00000000 0.01106569)
(0.00967742 -0.00004536 0.00000000 0.00022908 0.00000000 0.01105822)
(0.00972416 -0.00003755 0.00000000 0.00023177 0.00000000 0.01099589)
(0.00956582 -0.00004691 0.00000000 0.00023175 0.00000000 0.01091903)
(0.00952322 -0.00004837 0.00000000 0.00022797 0.00000000 0.01088951)
(0.00942213 -0.00005434 0.00000000 0.00022617 0.00000000 0.01078488)
(0.00928083 -0.00005188 0.00000000 0.00022928 0.00000000 0.01063068)
(0.00906590 -0.00005983 0.00000000 0.00021879 0.00000000 0.01044488)
(0.00908950 -0.00006306 0.00000000 0.00020964 0.00000000 0.01028787)
(0.00903675 -0.00005827 0.00000000 0.00020981 0.00000000 0.01024783)
(0.00894040 -0.00005474 0.00000000 0.00020388 0.00000000 0.01019222)
(0.00882419 -0.00005818 0.00000000 0.00020844 0.00000000 0.01012302)
(0.00882233 -0.00006401 0.00000000 0.00020467 0.00000000 0.01022165)
(0.00874492 -0.00006698 0.00000000 0.00019832 0.00000000 0.01022975)
(0.00880200 -0.00006167 0.00000000 0.00019458 0.00000000 0.01019764)
(0.00892476 -0.00007021 0.00000000 0.00019786 0.00000000 0.01028732)
(0.00912895 -0.00006574 0.00000000 0.00020483 0.00000000 0.01050183)
(0.00909420 -0.00005636 0.00000000 0.00020927 0.00000000 0.01075916)
(0.00920262 -0.00007032 0.00000000 0.00020992 0.00000000 0.01104011)
(0.00928494 -0.00005738 0.00000000 0.00021357 0.00000000 0.01133270)
(0.00942928 -0.00005956 0.00000000 0.00020731 0.00000000 0.01161344)
(0.00967077 -0.00006613 0.00000000 0.00020778 0.00000000 0.01177523)
(0.01016238 -0.00007717 0.00000000 0.00021296 0.00000000 0.01219307)
(0.01091588 -0.00010976 0.00000000 0.00022676 0.00000000 0.01285737)
(0.01229343 -0.00015010 0.00000000 0.00025339 0.00000000 0.01399747)
(0.01346951 -0.00005975 0.00000000 0.00027481 0.00000000 0.01602926)
(0.01099869 0.00114382 0.00000000 0.00045750 0.00000000 0.02088993)
(0.00772083 0.00256025 0.00000000 0.00107572 0.00000000 0.01455217)
(0.00238620 0.00201671 0.00000000 0.00181955 0.00000000 0.00818956)
(0.00085109 0.00049353 0.00000000 0.00027119 0.00000000 0.00189825)
(0.00002173 -0.00012541 0.00000000 -0.00027426 0.00000000 0.00082484)
(0.00012900 -0.00003310 0.00000000 -0.00022498 0.00000000 0.00121256)
(0.00016807 0.00020162 0.00000000 0.00024993 0.00000000 0.00168033)
(0.00000027 -0.00023469 0.00000000 -0.00058378 0.00000000 -0.00035479)
(-0.00012970 -0.00010411 0.00000000 -0.00001600 0.00000000 0.00136857)
(0.00000494 -0.00004423 0.00000000 -0.00013341 0.00000000 -0.00030086)
(0.00000641 -0.00023088 0.00000000 -0.00067573 0.00000000 -0.00122572)
(-0.00005721 -0.00016020 0.00000000 -0.00030844 0.00000000 0.00054530)
(0.00000802 -0.00000220 0.00000000 -0.00001284 0.00000000 0.00062593)
(-0.00011449 -0.00016288 0.00000000 -0.00026976 0.00000000 -0.00189548)
(-0.00002750 -0.00002593 0.00000000 -0.00000170 0.00000000 -0.00199653)
(-0.00006971 -0.00013322 0.00000000 -0.00023865 0.00000000 -0.00336626)
(-0.00010501 -0.00018705 0.00000000 -0.00030863 0.00000000 -0.00379442)
(-0.00033916 -0.00051925 0.00000000 -0.00084763 0.00000000 -0.00077045)
(-0.00094956 -0.00107036 0.00000000 -0.00123631 0.00000000 -0.00812233)
(0.00014870 -0.00023917 0.00000000 -0.00023539 0.00000000 -0.00014948)
(0.00557913 0.00109360 0.00000000 0.00020793 0.00000000 0.00219422)
(0.01150456 0.00007983 0.00000000 0.00013560 0.00000000 0.00897389)
(0.02683413 -0.00086563 0.00000000 0.00075141 0.00000000 0.01629381)
(0.01098942 -0.00347414 0.00000000 0.00161245 0.00000000 0.00917408)
(0.00287522 -0.00112058 0.00000000 0.00059880 0.00000000 0.00276500)
(0.00078975 -0.00111173 0.00000000 0.00173039 0.00000000 0.00293651)
(0.00040955 -0.00055261 0.00000000 0.00081467 0.00000000 0.00205477)
(0.00031229 -0.00047921 0.00000000 0.00074367 0.00000000 0.00158331)
(0.00025273 -0.00038965 0.00000000 0.00061427 0.00000000 0.00167428)
(0.00022327 -0.00034218 0.00000000 0.00053753 0.00000000 0.00155976)
(0.00017841 -0.00036343 0.00000000 0.00078787 0.00000000 0.00171489)
(0.00019361 -0.00037688 0.00000000 0.00078595 0.00000000 0.00193903)
(0.00045412 -0.00059941 0.00000000 0.00082408 0.00000000 0.00252874)
(0.00048940 -0.00071879 0.00000000 0.00110009 0.00000000 0.00257729)
(0.00061433 -0.00079444 0.00000000 0.00109357 0.00000000 0.00347520)
(0.00052916 -0.00078688 0.00000000 0.00130182 0.00000000 0.00376482)
(0.00082061 -0.00103486 0.00000000 0.00139984 0.00000000 0.00464278)
(0.00083074 -0.00093862 0.00000000 0.00120144 0.00000000 0.00551103)
(0.00097338 -0.00098068 0.00000000 0.00114988 0.00000000 0.00615240)
(0.00102942 -0.00095093 0.00000000 0.00105575 0.00000000 0.00606865)
(0.00137972 -0.00098499 0.00000000 0.00092893 0.00000000 0.00632209)
(0.00164778 -0.00088566 0.00000000 0.00081012 0.00000000 0.00638728)
(0.00207302 -0.00053345 0.00000000 0.00036704 0.00000000 0.00529245)
(0.00217023 -0.00005289 0.00000000 0.00015127 0.00000000 0.00420147)
(0.00244722 0.00003971 0.00000000 0.00011459 0.00000000 0.00324839)
(0.00279724 0.00002852 0.00000000 0.00011612 0.00000000 0.00310525)
(0.00320772 0.00002218 0.00000000 0.00012168 0.00000000 0.00308563)
(0.00373428 0.00001429 0.00000000 0.00012550 0.00000000 0.00318283)
(0.00437111 0.00001041 0.00000000 0.00013979 0.00000000 0.00335506)
(0.00506559 0.00001575 0.00000000 0.00015200 0.00000000 0.00358953)
(0.00578145 0.00002383 0.00000000 0.00016798 0.00000000 0.00385532)
(0.00653840 0.00002660 0.00000000 0.00018668 0.00000000 0.00417080)
(0.00737836 0.00003082 0.00000000 0.00021134 0.00000000 0.00454573)
(0.00820486 0.00003932 0.00000000 0.00023550 0.00000000 0.00498947)
(0.00897578 0.00005918 0.00000000 0.00026261 0.00000000 0.00549202)
(0.00964622 0.00007657 0.00000000 0.00029760 0.00000000 0.00605659)
(0.01020358 0.00009657 0.00000000 0.00033414 0.00000000 0.00664044)
(0.01065042 0.00011028 0.00000000 0.00036707 0.00000000 0.00724646)
(0.01103977 0.00011541 0.00000000 0.00039741 0.00000000 0.00793678)
(0.01143673 0.00011760 0.00000000 0.00043707 0.00000000 0.00868867)
(0.01170760 0.00013663 0.00000000 0.00047275 0.00000000 0.00939378)
(0.01188952 0.00014411 0.00000000 0.00051516 0.00000000 0.01008146)
(0.01204138 0.00014153 0.00000000 0.00055691 0.00000000 0.01080607)
(0.01233887 0.00011260 0.00000000 0.00059880 0.00000000 0.01160099)
(0.01263907 0.00011042 0.00000000 0.00063901 0.00000000 0.01228072)
(0.01301657 0.00008690 0.00000000 0.00068292 0.00000000 0.01290564)
(0.01344306 0.00007597 0.00000000 0.00072394 0.00000000 0.01351953)
(0.01389493 0.00007862 0.00000000 0.00076218 0.00000000 0.01413277)
(0.01413171 0.00007293 0.00000000 0.00079094 0.00000000 0.01476464)
(0.01442349 0.00005328 0.00000000 0.00081716 0.00000000 0.01538835)
(0.01463208 0.00005272 0.00000000 0.00083474 0.00000000 0.01590058)
(0.01472964 0.00005397 0.00000000 0.00084865 0.00000000 0.01629186)
(0.01473309 0.00004566 0.00000000 0.00088491 0.00000000 0.01663572)
(0.01487578 0.00001610 0.00000000 0.00089882 0.00000000 0.01700866)
(0.01498788 0.00001588 0.00000000 0.00093089 0.00000000 0.01729585)
(0.01510813 0.00002335 0.00000000 0.00093674 0.00000000 0.01745751)
(0.01498165 -0.00000652 0.00000000 0.00095349 0.00000000 0.01750065)
(0.01504160 -0.00000673 0.00000000 0.00095211 0.00000000 0.01757557)
(0.01488865 -0.00004130 0.00000000 0.00097054 0.00000000 0.01780380)
(0.01507873 -0.00009762 0.00000000 0.00098849 0.00000000 0.01803443)
(0.01541105 -0.00010023 0.00000000 0.00099748 0.00000000 0.01828600)
(0.01534481 -0.00004830 0.00000000 0.00099519 0.00000000 0.01836162)
(0.01534717 -0.00011086 0.00000000 0.00101109 0.00000000 0.01840096)
(0.01553719 -0.00009067 0.00000000 0.00101406 0.00000000 0.01844133)
(0.01542571 -0.00009892 0.00000000 0.00101488 0.00000000 0.01820669)
(0.01544511 -0.00011946 0.00000000 0.00099869 0.00000000 0.01809523)
(0.01554608 -0.00013280 0.00000000 0.00100608 0.00000000 0.01817559)
(0.01556467 -0.00013214 0.00000000 0.00101808 0.00000000 0.01836612)
(0.01554494 -0.00014829 0.00000000 0.00100787 0.00000000 0.01855292)
(0.01542849 -0.00014992 0.00000000 0.00101851 0.00000000 0.01872577)
(0.01550834 -0.00017165 0.00000000 0.00100973 0.00000000 0.01878169)
(0.01572850 -0.00018617 0.00000000 0.00100285 0.00000000 0.01878464)
(0.01596136 -0.00019961 0.00000000 0.00097546 0.00000000 0.01878029)
(0.01620119 -0.00020111 0.00000000 0.00096480 0.00000000 0.01874905)
(0.01627022 -0.00017923 0.00000000 0.00096130 0.00000000 0.01872184)
(0.01633846 -0.00021245 0.00000000 0.00096632 0.00000000 0.01868229)
(0.01638910 -0.00019371 0.00000000 0.00097194 0.00000000 0.01857333)
(0.01623577 -0.00021225 0.00000000 0.00096888 0.00000000 0.01856325)
(0.01611014 -0.00022104 0.00000000 0.00096146 0.00000000 0.01849226)
(0.01592293 -0.00022550 0.00000000 0.00095551 0.00000000 0.01832162)
(0.01574702 -0.00021685 0.00000000 0.00094678 0.00000000 0.01810012)
(0.01551452 -0.00023666 0.00000000 0.00091892 0.00000000 0.01788011)
(0.01548647 -0.00024087 0.00000000 0.00089513 0.00000000 0.01760670)
(0.01547446 -0.00023007 0.00000000 0.00089299 0.00000000 0.01754625)
(0.01531024 -0.00021738 0.00000000 0.00088000 0.00000000 0.01744069)
(0.01521684 -0.00022068 0.00000000 0.00087221 0.00000000 0.01744059)
(0.01521965 -0.00024078 0.00000000 0.00087059 0.00000000 0.01757800)
(0.01523181 -0.00024723 0.00000000 0.00085008 0.00000000 0.01773017)
(0.01537734 -0.00023905 0.00000000 0.00084014 0.00000000 0.01778606)
(0.01558451 -0.00025251 0.00000000 0.00084983 0.00000000 0.01802451)
(0.01575591 -0.00024928 0.00000000 0.00087224 0.00000000 0.01836693)
(0.01582158 -0.00024275 0.00000000 0.00087981 0.00000000 0.01880552)
(0.01602133 -0.00027200 0.00000000 0.00089184 0.00000000 0.01930824)
(0.01625141 -0.00025138 0.00000000 0.00089594 0.00000000 0.01992983)
(0.01655218 -0.00026992 0.00000000 0.00089284 0.00000000 0.02041321)
(0.01702714 -0.00029791 0.00000000 0.00089169 0.00000000 0.02085223)
(0.01783795 -0.00035604 0.00000000 0.00092564 0.00000000 0.02164865)
(0.01900325 -0.00046273 0.00000000 0.00097608 0.00000000 0.02311004)
(0.02044073 -0.00055144 0.00000000 0.00108179 0.00000000 0.02540976)
(0.02041030 -0.00019997 0.00000000 0.00114227 0.00000000 0.02877819)
(0.01637987 0.00187429 0.00000000 0.00134587 0.00000000 0.03249775)
(0.01294509 0.00483896 0.00000000 0.00272978 0.00000000 0.02912102)
(0.00909206 0.00628469 0.00000000 0.00497861 0.00000000 0.02331198)
(0.00462724 0.00402791 0.00000000 0.00380052 0.00000000 0.01768472)
(0.00176652 0.00221087 0.00000000 0.00289447 0.00000000 0.01075439)
(0.00115411 0.00158760 0.00000000 0.00235604 0.00000000 0.01210442)
(0.00087950 0.00115928 0.00000000 0.00169124 0.00000000 0.01092853)
(0.00039325 0.00065397 0.00000000 0.00116728 0.00000000 0.00861920)
(0.00050849 0.00095956 0.00000000 0.00185744 0.00000000 0.00559400)
(0.00042895 0.00043465 0.00000000 0.00050020 0.00000000 0.00753713)
(0.00031068 0.00004345 0.00000000 -0.00035389 0.00000000 0.00373487)
(0.00020164 0.00037552 0.00000000 0.00070268 0.00000000 0.00667493)
(-0.00010323 -0.00001820 0.00000000 0.00020559 0.00000000 0.00125238)
(0.00002600 -0.00008491 0.00000000 -0.00033819 0.00000000 -0.00055239)
(-0.00008880 -0.00020822 0.00000000 -0.00041646 0.00000000 -0.00015067)
(-0.00020266 -0.00045699 0.00000000 -0.00093600 0.00000000 0.00104824)
(-0.00042719 -0.00074940 0.00000000 -0.00133473 0.00000000 -0.00087721)
(-0.00014697 -0.00025816 0.00000000 -0.00044095 0.00000000 0.00205913)
(-0.00054721 -0.00069642 0.00000000 -0.00091097 0.00000000 -0.00250134)
(0.00491042 0.00081943 0.00000000 -0.00008817 0.00000000 0.00566908)
(0.02534956 0.00465965 0.00000000 0.00094709 0.00000000 0.01087248)
(0.02818092 0.00030553 0.00000000 0.00042392 0.00000000 0.01667709)
(0.04471100 -0.00142858 0.00000000 0.00152477 0.00000000 0.02292541)
(0.02344232 -0.00511705 0.00000000 0.00264753 0.00000000 0.01423056)
(0.00592024 -0.00272178 0.00000000 0.00202728 0.00000000 0.00642094)
(0.00221914 -0.00236238 0.00000000 0.00291259 0.00000000 0.00486386)
(0.00067177 -0.00097549 0.00000000 0.00157801 0.00000000 0.00348743)
(0.00055355 -0.00079502 0.00000000 0.00120801 0.00000000 0.00258554)
(0.00053008 -0.00077247 0.00000000 0.00117823 0.00000000 0.00281876)
(0.00051852 -0.00075170 0.00000000 0.00113447 0.00000000 0.00269121)
(0.00053086 -0.00085767 0.00000000 0.00145463 0.00000000 0.00292365)
(0.00052841 -0.00087527 0.00000000 0.00155538 0.00000000 0.00305228)
(0.00081607 -0.00109445 0.00000000 0.00156053 0.00000000 0.00395198)
(0.00097522 -0.00133396 0.00000000 0.00194471 0.00000000 0.00444484)
(0.00106209 -0.00140982 0.00000000 0.00205020 0.00000000 0.00557880)
(0.00118714 -0.00156549 0.00000000 0.00231155 0.00000000 0.00599305)
(0.00132064 -0.00158097 0.00000000 0.00218088 0.00000000 0.00688801)
(0.00137112 -0.00150504 0.00000000 0.00200857 0.00000000 0.00804103)
(0.00148370 -0.00140381 0.00000000 0.00173013 0.00000000 0.00839306)
(0.00159510 -0.00128644 0.00000000 0.00148143 0.00000000 0.00828796)
(0.00183695 -0.00111188 0.00000000 0.00119921 0.00000000 0.00839039)
(0.00222778 -0.00091953 0.00000000 0.00095583 0.00000000 0.00815624)
(0.00261714 -0.00051655 0.00000000 0.00055245 0.00000000 0.00691835)
(0.00290361 -0.00005899 0.00000000 0.00033269 0.00000000 0.00561708)
(0.00356884 0.00008162 0.00000000 0.00028946 0.00000000 0.00459081)
(0.00422986 0.00005913 0.00000000 0.00029120 0.00000000 0.00434807)
(0.00496326 0.00004142 0.00000000 0.00030115 0.00000000 0.00431338)
(0.00582719 0.00002076 0.00000000 0.00031222 0.00000000 0.00446640)
(0.00681040 0.00001280 0.00000000 0.00034599 0.00000000 0.00471128)
(0.00781186 0.00001732 0.00000000 0.00037598 0.00000000 0.00503743)
(0.00880525 0.00002527 0.00000000 0.00041430 0.00000000 0.00537958)
(0.00982125 0.00001893 0.00000000 0.00046126 0.00000000 0.00578943)
(0.01087271 0.00002388 0.00000000 0.00051869 0.00000000 0.00627400)
(0.01181236 0.00003638 0.00000000 0.00057750 0.00000000 0.00685076)
(0.01261695 0.00006050 0.00000000 0.00064017 0.00000000 0.00749208)
(0.01327781 0.00007927 0.00000000 0.00072028 0.00000000 0.00818431)
(0.01382167 0.00009810 0.00000000 0.00080452 0.00000000 0.00891121)
(0.01420120 0.00011610 0.00000000 0.00087299 0.00000000 0.00970512)
(0.01441458 0.00010893 0.00000000 0.00094803 0.00000000 0.01055091)
(0.01466612 0.00009449 0.00000000 0.00103702 0.00000000 0.01146227)
(0.01484774 0.00010747 0.00000000 0.00111823 0.00000000 0.01231504)
(0.01498001 0.00010384 0.00000000 0.00120830 0.00000000 0.01315047)
(0.01508662 0.00007948 0.00000000 0.00129970 0.00000000 0.01401117)
(0.01534155 0.00001189 0.00000000 0.00138630 0.00000000 0.01493322)
(0.01566797 -0.00000199 0.00000000 0.00146901 0.00000000 0.01574316)
(0.01604440 -0.00005800 0.00000000 0.00156341 0.00000000 0.01648769)
(0.01654084 -0.00008699 0.00000000 0.00164780 0.00000000 0.01723071)
(0.01703482 -0.00008271 0.00000000 0.00172345 0.00000000 0.01792309)
(0.01734064 -0.00010144 0.00000000 0.00178163 0.00000000 0.01869883)
(0.01763695 -0.00013508 0.00000000 0.00183880 0.00000000 0.01940356)
(0.01785305 -0.00014286 0.00000000 0.00187659 0.00000000 0.01998839)
(0.01796424 -0.00013607 0.00000000 0.00190014 0.00000000 0.02049642)
(0.01797824 -0.00014917 0.00000000 0.00196700 0.00000000 0.02090935)
(0.01809196 -0.00020473 0.00000000 0.00199803 0.00000000 0.02132434)
(0.01830227 -0.00020434 0.00000000 0.00205724 0.00000000 0.02165839)
(0.01840686 -0.00018730 0.00000000 0.00208108 0.00000000 0.02178093)
(0.01835148 -0.00022966 0.00000000 0.00211188 0.00000000 0.02186930)
(0.01841094 -0.00023583 0.00000000 0.00210838 0.00000000 0.02196807)
(0.01831042 -0.00028478 0.00000000 0.00214918 0.00000000 0.02225982)
(0.01849681 -0.00037637 0.00000000 0.00218692 0.00000000 0.02259267)
(0.01882952 -0.00036658 0.00000000 0.00219320 0.00000000 0.02293473)
(0.01882048 -0.00028925 0.00000000 0.00220232 0.00000000 0.02306571)
(0.01891928 -0.00038184 0.00000000 0.00222812 0.00000000 0.02307821)
(0.01917058 -0.00034699 0.00000000 0.00223540 0.00000000 0.02306596)
(0.01915018 -0.00035207 0.00000000 0.00223727 0.00000000 0.02282667)
(0.01921569 -0.00037639 0.00000000 0.00219910 0.00000000 0.02271596)