/*--------------------------------*- C++ -*----------------------------------*\
  =========                 |
  \\      /  F ield         | OpenFOAM: The Open Source CFD Toolbox
   \\    /   O peration     | Website:  https://openfoam.org
    \\  /    A nd           | Version:  7
     \\/     M anipulation  |
\*---------------------------------------------------------------------------*/
FoamFile
{
    version     2.0;
    format      ascii;
    class       volVectorField;
    location    "0";
    object      U_LES;
}
// * * * * * * * * * * * * * * * * * * * * * * * * * * * * * * * * * * * * * //

dimensions      [0 1 -1 0 0 0 0];

internalField   nonuniform List<vector>
15600
(
(0.00061381 0.00039155 0.00000000)
(-0.00845784 0.00544631 0.00000000)
(-0.00236762 0.00185923 0.00000000)
(-0.00341240 0.00538598 0.00000000)
(-0.00198944 0.00322448 0.00000000)
(-0.00256903 0.00367127 0.00000000)
(-0.00273649 0.00293353 0.00000000)
(-0.00278627 0.00282699 0.00000000)
(-0.00289939 0.00647397 0.00000000)
(-0.00410672 0.00580526 0.00000000)
(-0.00279344 0.00387611 0.00000000)
(-0.00254512 0.00682912 0.00000000)
(-0.00408633 0.00451571 0.00000000)
(-0.00424911 0.00538017 0.00000000)
(-0.00229135 0.00549442 0.00000000)
(-0.00208732 0.00256990 0.00000000)
(-0.00099552 0.00095855 0.00000000)
(0.00065945 -0.00101601 0.00000000)
(0.00347875 -0.00331072 0.00000000)
(0.01011398 -0.00800263 0.00000000)
(0.01187404 -0.00584335 0.00000000)
(0.01371167 -0.00010337 0.00000000)
(0.00688774 0.00004772 0.00000000)
(0.00487375 0.00003851 0.00000000)
(0.00319847 0.00003821 0.00000000)
(0.00153445 0.00003984 0.00000000)
(-0.00041964 0.00005440 0.00000000)
(-0.00259790 0.00005386 0.00000000)
(-0.00507328 0.00006360 0.00000000)
(-0.00765549 0.00006634 0.00000000)
(-0.01046051 0.00006246 0.00000000)
(-0.01358081 0.00007353 0.00000000)
(-0.01693787 0.00007972 0.00000000)
(-0.02026927 0.00007311 0.00000000)
(-0.02354042 0.00007290 0.00000000)
(-0.02676569 0.00007241 0.00000000)
(-0.02987690 0.00006983 0.00000000)
(-0.03269475 0.00005799 0.00000000)
(-0.03508826 0.00006054 0.00000000)
(-0.03750204 0.00005205 0.00000000)
(-0.03962241 0.00004998 0.00000000)
(-0.04129069 0.00004142 0.00000000)
(-0.04284655 0.00003528 0.00000000)
(-0.04431552 0.00002422 0.00000000)
(-0.04527658 0.00002447 0.00000000)
(-0.04619020 0.00002016 0.00000000)
(-0.04689135 0.00001225 0.00000000)
(-0.04710581 0.00000128 0.00000000)
(-0.04702332 -0.00000311 0.00000000)
(-0.04684203 -0.00000622 0.00000000)
(-0.04635532 -0.00000765 0.00000000)
(-0.04584679 -0.00001393 0.00000000)
(-0.04520395 -0.00002393 0.00000000)
(-0.04409994 -0.00002235 0.00000000)
(-0.04322417 -0.00002552 0.00000000)
(-0.04221880 -0.00001808 0.00000000)
(-0.04129358 -0.00002336 0.00000000)
(-0.04027596 -0.00002518 0.00000000)
(-0.03914093 -0.00002276 0.00000000)
(-0.03819881 -0.00002541 0.00000000)
(-0.03658731 -0.00004122 0.00000000)
(-0.03495264 -0.00003113 0.00000000)
(-0.03352482 -0.00003119 0.00000000)
(-0.03245467 -0.00002393 0.00000000)
(-0.03114543 -0.00002457 0.00000000)
(-0.03055432 -0.00001336 0.00000000)
(-0.02949459 -0.00002662 0.00000000)
(-0.02814105 -0.00004153 0.00000000)
(-0.02663935 -0.00004387 0.00000000)
(-0.02538465 -0.00002998 0.00000000)
(-0.02418308 -0.00002490 0.00000000)
(-0.02311115 -0.00001933 0.00000000)
(-0.02216262 -0.00002119 0.00000000)
(-0.02114390 -0.00002478 0.00000000)
(-0.01990570 -0.00002587 0.00000000)
(-0.01932325 -0.00001202 0.00000000)
(-0.01851160 -0.00001787 0.00000000)
(-0.01768267 -0.00002456 0.00000000)
(-0.01595352 -0.00004086 0.00000000)
(-0.01466212 -0.00003052 0.00000000)
(-0.01351739 -0.00002190 0.00000000)
(-0.01268031 -0.00002390 0.00000000)
(-0.01162844 -0.00002364 0.00000000)
(-0.01086347 -0.00001988 0.00000000)
(-0.01007719 -0.00002003 0.00000000)
(-0.00941717 -0.00000488 0.00000000)
(-0.00956755 0.00000250 0.00000000)
(-0.00984773 0.00001726 0.00000000)
(-0.01055162 0.00000734 0.00000000)
(-0.01089333 0.00000997 0.00000000)
(-0.01142773 0.00001831 0.00000000)
(-0.01232118 0.00001601 0.00000000)
(-0.01330126 0.00003279 0.00000000)
(-0.01522577 0.00005547 0.00000000)
(-0.01822701 0.00009628 0.00000000)
(-0.02263688 0.00011120 0.00000000)
(-0.02835998 0.00016254 0.00000000)
(-0.03452655 0.00012238 0.00000000)
(-0.03946827 -0.00205492 0.00000000)
(-0.00975469 -0.00259276 0.00000000)
(-0.00251275 -0.00183980 0.00000000)
(0.00161267 0.00095951 0.00000000)
(0.00234953 0.00252797 0.00000000)
(0.00145321 0.00151589 0.00000000)
(0.00020649 0.00017028 0.00000000)
(0.00197732 0.00245486 0.00000000)
(-0.00012803 -0.00000539 0.00000000)
(0.00018643 0.00023342 0.00000000)
(-0.00009498 -0.00016830 0.00000000)
(-0.00051091 -0.00058204 0.00000000)
(0.00008190 0.00005467 0.00000000)
(-0.00026551 -0.00133723 0.00000000)
(-0.00128137 -0.00009376 0.00000000)
(-0.00172585 -0.00041133 0.00000000)
(-0.00619014 -0.00655305 0.00000000)
(-0.00278289 -0.00590082 0.00000000)
(-0.01783686 -0.02011655 0.00000000)
(-0.03093842 -0.01795016 0.00000000)
(-0.02492163 -0.00653532 0.00000000)
(0.00986653 0.00158027 0.00000000)
(0.01102658 0.00095458 0.00000000)
(-0.01220070 0.00861229 0.00000000)
(-0.00536571 0.00393793 0.00000000)
(-0.00612755 0.01060540 0.00000000)
(-0.00499941 0.00684670 0.00000000)
(-0.00417643 0.00716157 0.00000000)
(-0.00477084 0.00800430 0.00000000)
(-0.00535791 0.00869985 0.00000000)
(-0.00484971 0.01228275 0.00000000)
(-0.00615919 0.01242449 0.00000000)
(-0.00816969 0.01160326 0.00000000)
(-0.00682500 0.01347450 0.00000000)
(-0.00994593 0.01376277 0.00000000)
(-0.00825422 0.01405003 0.00000000)
(-0.00811606 0.01242114 0.00000000)
(-0.00699851 0.00829566 0.00000000)
(-0.00361212 0.00392552 0.00000000)
(0.00072211 -0.00142615 0.00000000)
(0.00764157 -0.00817744 0.00000000)
(0.01593662 -0.01301901 0.00000000)
(0.02380853 -0.00912816 0.00000000)
(0.02258212 -0.00036224 0.00000000)
(0.01607368 0.00054761 0.00000000)
(0.01057126 0.00043204 0.00000000)
(0.00573350 0.00041586 0.00000000)
(0.00070926 0.00044679 0.00000000)
(-0.00494819 0.00052567 0.00000000)
(-0.01152101 0.00059054 0.00000000)
(-0.01859959 0.00063610 0.00000000)
(-0.02632684 0.00068705 0.00000000)
(-0.03443559 0.00073534 0.00000000)
(-0.04317574 0.00079698 0.00000000)
(-0.05235065 0.00083077 0.00000000)
(-0.06140385 0.00079831 0.00000000)
(-0.07016373 0.00078300 0.00000000)
(-0.07867969 0.00075851 0.00000000)
(-0.08663430 0.00069687 0.00000000)
(-0.09354527 0.00060887 0.00000000)
(-0.09977878 0.00055957 0.00000000)
(-0.10544589 0.00050971 0.00000000)
(-0.11033949 0.00046597 0.00000000)
(-0.11453266 0.00035926 0.00000000)
(-0.11796685 0.00030651 0.00000000)
(-0.12062062 0.00023641 0.00000000)
(-0.12299325 0.00021469 0.00000000)
(-0.12453638 0.00017029 0.00000000)
(-0.12569966 0.00008398 0.00000000)
(-0.12562858 -0.00002383 0.00000000)
(-0.12480389 -0.00005769 0.00000000)
(-0.12380607 -0.00009153 0.00000000)
(-0.12297806 -0.00009798 0.00000000)
(-0.12127048 -0.00017034 0.00000000)
(-0.11864507 -0.00025269 0.00000000)
(-0.11548896 -0.00024794 0.00000000)
(-0.11293708 -0.00026675 0.00000000)
(-0.10995640 -0.00021931 0.00000000)
(-0.10756535 -0.00024483 0.00000000)
(-0.10438968 -0.00027679 0.00000000)
(-0.10153338 -0.00026307 0.00000000)
(-0.09829166 -0.00029414 0.00000000)
(-0.09410578 -0.00042550 0.00000000)
(-0.08971781 -0.00034590 0.00000000)
(-0.08644653 -0.00031486 0.00000000)
(-0.08324290 -0.00026377 0.00000000)
(-0.08035205 -0.00023443 0.00000000)
(-0.07801500 -0.00016623 0.00000000)
(-0.07565341 -0.00025647 0.00000000)
(-0.07207588 -0.00037432 0.00000000)
(-0.06781777 -0.00040106 0.00000000)
(-0.06418378 -0.00030742 0.00000000)
(-0.06087185 -0.00027184 0.00000000)
(-0.05794028 -0.00023391 0.00000000)
(-0.05527003 -0.00023461 0.00000000)
(-0.05259556 -0.00026760 0.00000000)
(-0.04921731 -0.00027559 0.00000000)
(-0.04716867 -0.00015009 0.00000000)
(-0.04500693 -0.00020487 0.00000000)
(-0.04235634 -0.00027598 0.00000000)
(-0.03848362 -0.00037556 0.00000000)
(-0.03493983 -0.00029575 0.00000000)
(-0.03247708 -0.00020117 0.00000000)
(-0.02982669 -0.00024911 0.00000000)
(-0.02721556 -0.00021936 0.00000000)
(-0.02503814 -0.00019570 0.00000000)
(-0.02305859 -0.00020545 0.00000000)
(-0.02159613 -0.00003959 0.00000000)
(-0.02188823 0.00004027 0.00000000)
(-0.02272410 0.00015518 0.00000000)
(-0.02411832 0.00008087 0.00000000)
(-0.02495977 0.00011186 0.00000000)
(-0.02667355 0.00019694 0.00000000)
(-0.02896107 0.00019476 0.00000000)
(-0.03218958 0.00035202 0.00000000)
(-0.03728844 0.00058919 0.00000000)
(-0.04554332 0.00088657 0.00000000)
(-0.05660111 0.00113952 0.00000000)
(-0.07053819 0.00148185 0.00000000)
(-0.08208694 0.00065749 0.00000000)
(-0.07109764 -0.00854943 0.00000000)
(-0.05372504 -0.01718001 0.00000000)
(-0.02517968 -0.02042241 0.00000000)
(-0.01266524 -0.00748066 0.00000000)
(-0.00547278 -0.00362053 0.00000000)
(-0.00537197 -0.00355846 0.00000000)
(-0.00217100 -0.00268899 0.00000000)
(-0.00199006 -0.00054114 0.00000000)
(-0.00031399 -0.00096323 0.00000000)
(-0.00010911 0.00012194 0.00000000)
(-0.00052323 -0.00065591 0.00000000)
(-0.00011380 -0.00020223 0.00000000)
(0.00047473 0.00055965 0.00000000)
(-0.00176974 -0.00256598 0.00000000)
(-0.00274548 -0.00302702 0.00000000)
(-0.00443393 -0.00680411 0.00000000)
(-0.00607435 -0.01021377 0.00000000)
(0.00415625 -0.00234856 0.00000000)
(-0.03095665 -0.04002189 0.00000000)
(-0.00371167 -0.00710300 0.00000000)
(0.04017567 0.01024400 0.00000000)
(0.04069558 0.00458220 0.00000000)
(0.03715575 0.00207699 0.00000000)
(-0.01042038 0.01116878 0.00000000)
(-0.02126617 0.01051857 0.00000000)
(-0.01122879 0.01617759 0.00000000)
(-0.00868683 0.01203129 0.00000000)
(-0.00815566 0.01320094 0.00000000)
(-0.00904532 0.01505119 0.00000000)
(-0.00952541 0.01574481 0.00000000)
(-0.00948324 0.02050794 0.00000000)
(-0.01012199 0.02201042 0.00000000)
(-0.01501190 0.02207710 0.00000000)
(-0.01571617 0.02485696 0.00000000)
(-0.01750773 0.02509606 0.00000000)
(-0.01473268 0.02575158 0.00000000)
(-0.01598576 0.02240026 0.00000000)
(-0.01307536 0.01596866 0.00000000)
(-0.00856129 0.00887743 0.00000000)
(-0.00186167 0.00020840 0.00000000)
(0.00761671 -0.00831865 0.00000000)
(0.01656505 -0.01440031 0.00000000)
(0.02580717 -0.00907169 0.00000000)
(0.02532051 -0.00021456 0.00000000)
(0.01888771 0.00146544 0.00000000)
(0.01066272 0.00122002 0.00000000)
(0.00290875 0.00120149 0.00000000)
(-0.00534273 0.00130642 0.00000000)
(-0.01455549 0.00151992 0.00000000)
(-0.02498482 0.00169093 0.00000000)
(-0.03617158 0.00182025 0.00000000)
(-0.04819770 0.00193280 0.00000000)
(-0.06070135 0.00205242 0.00000000)
(-0.07379831 0.00218491 0.00000000)
(-0.08714780 0.00223598 0.00000000)
(-0.10008989 0.00212789 0.00000000)
(-0.11237268 0.00206893 0.00000000)
(-0.12388816 0.00197618 0.00000000)
(-0.13456234 0.00178026 0.00000000)
(-0.14369326 0.00153813 0.00000000)
(-0.15171832 0.00140448 0.00000000)
(-0.15880824 0.00126871 0.00000000)
(-0.16515518 0.00112047 0.00000000)
(-0.17015009 0.00085371 0.00000000)
(-0.17394188 0.00071089 0.00000000)
(-0.17690600 0.00054097 0.00000000)
(-0.17905490 0.00045692 0.00000000)
(-0.18035469 0.00032812 0.00000000)
(-0.18079543 0.00010552 0.00000000)
(-0.17991606 -0.00015135 0.00000000)
(-0.17832650 -0.00021968 0.00000000)
(-0.17620748 -0.00029788 0.00000000)
(-0.17403952 -0.00032780 0.00000000)
(-0.17092399 -0.00053785 0.00000000)
(-0.16675058 -0.00068952 0.00000000)
(-0.16255866 -0.00069441 0.00000000)
(-0.15844378 -0.00071972 0.00000000)
(-0.15384953 -0.00064211 0.00000000)
(-0.15010470 -0.00066190 0.00000000)
(-0.14570470 -0.00074523 0.00000000)
(-0.14103248 -0.00076651 0.00000000)
(-0.13613341 -0.00082294 0.00000000)
(-0.13037719 -0.00109053 0.00000000)
(-0.12455007 -0.00091894 0.00000000)
(-0.11954287 -0.00082721 0.00000000)
(-0.11491501 -0.00070511 0.00000000)
(-0.11113166 -0.00063905 0.00000000)
(-0.10726652 -0.00050716 0.00000000)
(-0.10346967 -0.00072427 0.00000000)
(-0.09832329 -0.00098445 0.00000000)
(-0.09253216 -0.00100634 0.00000000)
(-0.08746584 -0.00080646 0.00000000)
(-0.08291743 -0.00072847 0.00000000)
(-0.07852780 -0.00067413 0.00000000)
(-0.07448863 -0.00064105 0.00000000)
(-0.07050142 -0.00073665 0.00000000)
(-0.06577079 -0.00073430 0.00000000)
(-0.06254633 -0.00044172 0.00000000)
(-0.05899873 -0.00059752 0.00000000)
(-0.05501534 -0.00073883 0.00000000)
(-0.04997820 -0.00096031 0.00000000)
(-0.04511505 -0.00074905 0.00000000)
(-0.04152943 -0.00054778 0.00000000)
(-0.03785301 -0.00066420 0.00000000)
(-0.03414903 -0.00056129 0.00000000)
(-0.03136746 -0.00048995 0.00000000)
(-0.02867839 -0.00051089 0.00000000)
(-0.02692574 -0.00009800 0.00000000)
(-0.02715184 0.00012167 0.00000000)
(-0.02825783 0.00034212 0.00000000)
(-0.02979174 0.00020934 0.00000000)
(-0.03107138 0.00029217 0.00000000)
(-0.03354121 0.00051474 0.00000000)
(-0.03686206 0.00056605 0.00000000)
(-0.04165284 0.00097954 0.00000000)
(-0.04932158 0.00159484 0.00000000)
(-0.06077898 0.00231147 0.00000000)
(-0.07598963 0.00295263 0.00000000)
(-0.09339501 0.00348280 0.00000000)
(-0.10468988 0.00104368 0.00000000)
(-0.09165640 -0.01331399 0.00000000)
(-0.07326328 -0.02951679 0.00000000)
(-0.05661618 -0.03849099 0.00000000)
(-0.03697098 -0.03336625 0.00000000)
(-0.01982044 -0.02486001 0.00000000)
(-0.01402939 -0.02060724 0.00000000)
(-0.00851245 -0.01342893 0.00000000)
(-0.00598945 -0.01089220 0.00000000)
(-0.00291478 -0.00419656 0.00000000)
(-0.00059990 -0.00175506 0.00000000)
(-0.00053803 -0.00122407 0.00000000)
(0.00221092 0.00197951 0.00000000)
(0.00015600 0.00148485 0.00000000)
(0.00032951 -0.00138769 0.00000000)
(0.00124866 -0.00028859 0.00000000)
(0.00625045 0.00157912 0.00000000)
(0.00604571 -0.00251400 0.00000000)
(0.00912913 0.00668271 0.00000000)
(0.01520506 0.00161201 0.00000000)
(0.10163233 0.03574965 0.00000000)
(0.18384121 0.04609501 0.00000000)
(0.09827624 0.01006673 0.00000000)
(0.08022960 0.00424604 0.00000000)
(0.00272960 0.01160744 0.00000000)
(-0.03691173 0.01972448 0.00000000)
(-0.01976580 0.02330081 0.00000000)
(-0.01299213 0.01953096 0.00000000)
(-0.01250086 0.01954503 0.00000000)
(-0.01405936 0.02276669 0.00000000)
(-0.01529200 0.02474154 0.00000000)
(-0.01684869 0.03002987 0.00000000)
(-0.01740410 0.03284446 0.00000000)
(-0.02231580 0.03328465 0.00000000)
(-0.02372382 0.03671792 0.00000000)
(-0.02436183 0.03739815 0.00000000)
(-0.02400084 0.03698619 0.00000000)
(-0.02268722 0.03143071 0.00000000)
(-0.01906521 0.02387443 0.00000000)
(-0.01393296 0.01390667 0.00000000)
(-0.00628406 0.00304110 0.00000000)
(0.00287507 -0.00711161 0.00000000)
(0.01349597 -0.01323991 0.00000000)
(0.02291281 -0.00861891 0.00000000)
(0.02326994 0.00034114 0.00000000)
(0.01658064 0.00266536 0.00000000)
(0.00634871 0.00237275 0.00000000)
(-0.00393440 0.00239153 0.00000000)
(-0.01504640 0.00261092 0.00000000)
(-0.02729020 0.00299290 0.00000000)
(-0.04089637 0.00330149 0.00000000)
(-0.05543534 0.00353324 0.00000000)
(-0.07077203 0.00372783 0.00000000)
(-0.08646877 0.00390788 0.00000000)
(-0.10251579 0.00407776 0.00000000)
(-0.11844686 0.00410624 0.00000000)
(-0.13356052 0.00388115 0.00000000)
(-0.14772498 0.00372381 0.00000000)
(-0.16077448 0.00348701 0.00000000)
(-0.17218472 0.00310767 0.00000000)
(-0.18221490 0.00267225 0.00000000)
(-0.19085302 0.00240871 0.00000000)
(-0.19828626 0.00215000 0.00000000)
(-0.20448200 0.00184023 0.00000000)
(-0.20919586 0.00138793 0.00000000)
(-0.21275736 0.00112457 0.00000000)
(-0.21534659 0.00083862 0.00000000)
(-0.21696318 0.00064405 0.00000000)
(-0.21743836 0.00039833 0.00000000)
(-0.21703318 0.00001587 0.00000000)
(-0.21522019 -0.00040255 0.00000000)
(-0.21262078 -0.00052601 0.00000000)
(-0.20957011 -0.00063810 0.00000000)
(-0.20639316 -0.00070973 0.00000000)
(-0.20226466 -0.00108050 0.00000000)
(-0.19720925 -0.00129255 0.00000000)
(-0.19178934 -0.00131263 0.00000000)
(-0.18662161 -0.00134891 0.00000000)
(-0.18103183 -0.00125077 0.00000000)
(-0.17618375 -0.00123664 0.00000000)
(-0.17085583 -0.00138801 0.00000000)
(-0.16510817 -0.00147375 0.00000000)
(-0.15894114 -0.00155737 0.00000000)
(-0.15219817 -0.00193774 0.00000000)
(-0.14541255 -0.00167693 0.00000000)
(-0.13958008 -0.00149501 0.00000000)
(-0.13423591 -0.00128700 0.00000000)
(-0.12926228 -0.00121414 0.00000000)
(-0.12445625 -0.00102427 0.00000000)
(-0.11944209 -0.00136648 0.00000000)
(-0.11345770 -0.00177468 0.00000000)
(-0.10674244 -0.00178399 0.00000000)
(-0.10075777 -0.00146615 0.00000000)
(-0.09538764 -0.00134951 0.00000000)
(-0.09003177 -0.00129052 0.00000000)
(-0.08502561 -0.00120527 0.00000000)
(-0.08007929 -0.00137034 0.00000000)
(-0.07456674 -0.00134177 0.00000000)
(-0.07032497 -0.00088933 0.00000000)
(-0.06583948 -0.00116255 0.00000000)
(-0.06091682 -0.00135035 0.00000000)
(-0.05514539 -0.00169202 0.00000000)
(-0.04955634 -0.00135165 0.00000000)
(-0.04515043 -0.00102476 0.00000000)
(-0.04093221 -0.00119882 0.00000000)
(-0.03675642 -0.00099297 0.00000000)
(-0.03353393 -0.00085690 0.00000000)
(-0.03060017 -0.00086616 0.00000000)
(-0.02880572 -0.00019393 0.00000000)
(-0.02881995 0.00022697 0.00000000)
(-0.02999182 0.00053180 0.00000000)
(-0.03154542 0.00037990 0.00000000)
(-0.03310544 0.00052666 0.00000000)
(-0.03593078 0.00092647 0.00000000)
(-0.03999110 0.00110810 0.00000000)
(-0.04599922 0.00183750 0.00000000)
(-0.05537568 0.00293653 0.00000000)
(-0.06875278 0.00412240 0.00000000)
(-0.08562988 0.00519238 0.00000000)
(-0.10378260 0.00565189 0.00000000)
(-0.11412332 0.00135202 0.00000000)
(-0.10343791 -0.01661913 0.00000000)
(-0.08741440 -0.03764518 0.00000000)
(-0.06998658 -0.05080594 0.00000000)
(-0.05438448 -0.05329702 0.00000000)
(-0.04285192 -0.04798257 0.00000000)
(-0.02751775 -0.04079645 0.00000000)
(-0.01755069 -0.02989155 0.00000000)
(-0.01266994 -0.02144762 0.00000000)
(-0.01052961 -0.01180867 0.00000000)
(-0.00008688 -0.00310419 0.00000000)
(0.00366149 0.00051477 0.00000000)
(0.00865810 0.00861837 0.00000000)
(0.00612260 0.00917900 0.00000000)
(0.01193157 0.01058285 0.00000000)
(0.01508019 0.01545190 0.00000000)
(0.01894742 0.01967542 0.00000000)
(0.01829240 0.01562589 0.00000000)
(0.01426347 0.01932223 0.00000000)
(0.08753025 0.06307299 0.00000000)
(0.19727771 0.10192842 0.00000000)
(0.35875472 0.09428034 0.00000000)
(0.18137894 0.01994821 0.00000000)
(0.13931783 0.00798658 0.00000000)
(0.02848439 0.01010701 0.00000000)
(-0.04710143 0.02596066 0.00000000)
(-0.02911996 0.03092694 0.00000000)
(-0.01793770 0.02735772 0.00000000)
(-0.01730692 0.02736993 0.00000000)
(-0.01890909 0.03091138 0.00000000)
(-0.02079335 0.03388804 0.00000000)
(-0.02316195 0.03932637 0.00000000)
(-0.02578410 0.04371522 0.00000000)
(-0.02868275 0.04430466 0.00000000)
(-0.03050956 0.04763489 0.00000000)
(-0.03078607 0.04831481 0.00000000)
(-0.03105915 0.04619577 0.00000000)
(-0.02881357 0.03936300 0.00000000)
(-0.02434343 0.03018049 0.00000000)
(-0.01886046 0.01837451 0.00000000)
(-0.01113748 0.00639446 0.00000000)
(-0.00221270 -0.00486891 0.00000000)
(0.00775247 -0.01128598 0.00000000)
(0.01697625 -0.00727011 0.00000000)
(0.01776520 0.00130540 0.00000000)
(0.01062375 0.00406499 0.00000000)
(-0.00116447 0.00384486 0.00000000)
(-0.01363344 0.00396255 0.00000000)
(-0.02707416 0.00431638 0.00000000)
(-0.04183688 0.00489043 0.00000000)
(-0.05789906 0.00534769 0.00000000)
(-0.07495423 0.00570004 0.00000000)
(-0.09261698 0.00594664 0.00000000)
(-0.11035907 0.00615944 0.00000000)
(-0.12813538 0.00631803 0.00000000)
(-0.14541422 0.00626399 0.00000000)
(-0.16147465 0.00588111 0.00000000)
(-0.17631839 0.00556658 0.00000000)
(-0.18958089 0.00512833 0.00000000)
(-0.20114928 0.00452659 0.00000000)
(-0.21108475 0.00389219 0.00000000)
(-0.21963619 0.00345066 0.00000000)
(-0.22674099 0.00303533 0.00000000)
(-0.23245683 0.00252147 0.00000000)
(-0.23651908 0.00187637 0.00000000)
(-0.23939406 0.00148707 0.00000000)
(-0.24139243 0.00106760 0.00000000)
(-0.24225081 0.00072586 0.00000000)
(-0.24187437 0.00034356 0.00000000)
(-0.24053786 -0.00019839 0.00000000)
(-0.23799498 -0.00076525 0.00000000)
(-0.23455863 -0.00097075 0.00000000)
(-0.23069952 -0.00110595 0.00000000)
(-0.22666479 -0.00123344 0.00000000)
(-0.22178950 -0.00175712 0.00000000)
(-0.21616855 -0.00202811 0.00000000)
(-0.21020279 -0.00206070 0.00000000)
(-0.20419337 -0.00211902 0.00000000)
(-0.19790658 -0.00201024 0.00000000)
(-0.19206633 -0.00194795 0.00000000)
(-0.18604369 -0.00217122 0.00000000)
(-0.17953116 -0.00232781 0.00000000)
(-0.17248929 -0.00246022 0.00000000)
(-0.16509383 -0.00289757 0.00000000)
(-0.15784965 -0.00255898 0.00000000)
(-0.15138787 -0.00226665 0.00000000)
(-0.14551648 -0.00197734 0.00000000)
(-0.13999545 -0.00192429 0.00000000)
(-0.13431259 -0.00169039 0.00000000)
(-0.12843828 -0.00213528 0.00000000)
(-0.12189846 -0.00268226 0.00000000)
(-0.11460662 -0.00269232 0.00000000)
(-0.10791525 -0.00225002 0.00000000)
(-0.10196913 -0.00209069 0.00000000)
(-0.09598859 -0.00203615 0.00000000)
(-0.09031460 -0.00189897 0.00000000)
(-0.08476127 -0.00211278 0.00000000)
(-0.07883056 -0.00205337 0.00000000)
(-0.07375467 -0.00148113 0.00000000)
(-0.06849137 -0.00185772 0.00000000)
(-0.06294088 -0.00207054 0.00000000)
(-0.05686099 -0.00250759 0.00000000)
(-0.05081145 -0.00206638 0.00000000)
(-0.04581717 -0.00159643 0.00000000)
(-0.04124133 -0.00179590 0.00000000)
(-0.03697410 -0.00148418 0.00000000)
(-0.03350302 -0.00126214 0.00000000)
(-0.03056247 -0.00123223 0.00000000)
(-0.02878813 -0.00033211 0.00000000)
(-0.02851851 0.00032947 0.00000000)
(-0.02970184 0.00071633 0.00000000)
(-0.03124493 0.00058305 0.00000000)
(-0.03295755 0.00079254 0.00000000)
(-0.03591708 0.00139920 0.00000000)
(-0.04057540 0.00178667 0.00000000)
(-0.04746158 0.00286998 0.00000000)
(-0.05799491 0.00452121 0.00000000)
(-0.07227842 0.00614580 0.00000000)
(-0.08973406 0.00762245 0.00000000)
(-0.10727608 0.00779743 0.00000000)
(-0.11719633 0.00178196 0.00000000)
(-0.10960721 -0.01863538 0.00000000)
(-0.09532060 -0.04305694 0.00000000)
(-0.08017760 -0.05929256 0.00000000)
(-0.06556185 -0.06533463 0.00000000)
(-0.05410270 -0.06268385 0.00000000)
(-0.03991221 -0.05774190 0.00000000)
(-0.03066917 -0.04479973 0.00000000)
(-0.01715835 -0.03271527 0.00000000)
(-0.00902379 -0.01855749 0.00000000)
(-0.00362716 -0.00442131 0.00000000)
(0.00761115 0.00620485 0.00000000)
(0.01528618 0.01825479 0.00000000)
(0.01843056 0.02441408 0.00000000)
(0.02646651 0.03501914 0.00000000)
(0.03355654 0.04810467 0.00000000)
(0.04122050 0.06260239 0.00000000)
(0.03776417 0.05626425 0.00000000)
(0.05354553 0.07846800 0.00000000)
(0.19056075 0.16712357 0.00000000)
(0.42456603 0.20166786 0.00000000)
(0.53011952 0.15186293 0.00000000)
(0.28854803 0.03645566 0.00000000)
(0.21133488 0.01378999 0.00000000)
(0.06627998 0.00895590 0.00000000)
(-0.05059108 0.03238471 0.00000000)
(-0.03758384 0.03731141 0.00000000)
(-0.02439244 0.03561599 0.00000000)
(-0.02169125 0.03498432 0.00000000)
(-0.02323992 0.03880423 0.00000000)
(-0.02565011 0.04277817 0.00000000)
(-0.02833612 0.04834269 0.00000000)
(-0.03193981 0.05305561 0.00000000)
(-0.03408884 0.05412332 0.00000000)
(-0.03649495 0.05690107 0.00000000)
(-0.03673554 0.05700351 0.00000000)
(-0.03619215 0.05299009 0.00000000)
(-0.03336738 0.04529138 0.00000000)
(-0.02917160 0.03537166 0.00000000)
(-0.02362600 0.02282701 0.00000000)
(-0.01641908 0.01006143 0.00000000)
(-0.00808495 -0.00196955 0.00000000)
(0.00108451 -0.00870848 0.00000000)
(0.00937281 -0.00541237 0.00000000)
(0.01007610 0.00263262 0.00000000)
(0.00216171 0.00565843 0.00000000)
(-0.01084718 0.00562067 0.00000000)
(-0.02506498 0.00587814 0.00000000)
(-0.04043274 0.00640239 0.00000000)
(-0.05708690 0.00715864 0.00000000)
(-0.07494924 0.00776279 0.00000000)
(-0.09376622 0.00823265 0.00000000)
(-0.11286275 0.00848005 0.00000000)
(-0.13176580 0.00869210 0.00000000)
(-0.15035997 0.00878758 0.00000000)
(-0.16804154 0.00858469 0.00000000)
(-0.18432672 0.00800804 0.00000000)
(-0.19903448 0.00748679 0.00000000)
(-0.21199600 0.00680296 0.00000000)
(-0.22308730 0.00596237 0.00000000)
(-0.23270113 0.00513360 0.00000000)
(-0.24070215 0.00447435 0.00000000)
(-0.24718171 0.00386450 0.00000000)
(-0.25205575 0.00312846 0.00000000)
(-0.25544082 0.00228726 0.00000000)
(-0.25766400 0.00177835 0.00000000)
(-0.25896028 0.00120539 0.00000000)
(-0.25898535 0.00068969 0.00000000)
(-0.25779370 0.00016035 0.00000000)
(-0.25566069 -0.00052466 0.00000000)
(-0.25252669 -0.00122390 0.00000000)
(-0.24852751 -0.00152658 0.00000000)
(-0.24408626 -0.00169022 0.00000000)
(-0.23934289 -0.00187695 0.00000000)
(-0.23391794 -0.00253560 0.00000000)
(-0.22787098 -0.00286462 0.00000000)
(-0.22147537 -0.00292300 0.00000000)
(-0.21485561 -0.00300139 0.00000000)
(-0.20806680 -0.00290255 0.00000000)
(-0.20159000 -0.00278473 0.00000000)
(-0.19501305 -0.00307834 0.00000000)
(-0.18791385 -0.00328988 0.00000000)
(-0.18031880 -0.00350364 0.00000000)
(-0.17248717 -0.00393611 0.00000000)
(-0.16498242 -0.00353657 0.00000000)
(-0.15806912 -0.00312160 0.00000000)
(-0.15182254 -0.00276027 0.00000000)
(-0.14582350 -0.00274990 0.00000000)
(-0.13949208 -0.00250137 0.00000000)
(-0.13309826 -0.00300520 0.00000000)
(-0.12613731 -0.00367444 0.00000000)
(-0.11853871 -0.00371248 0.00000000)
(-0.11124729 -0.00314057 0.00000000)
(-0.10496394 -0.00292542 0.00000000)
(-0.09856271 -0.00288300 0.00000000)
(-0.09243063 -0.00270040 0.00000000)
(-0.08641265 -0.00292406 0.00000000)
(-0.08032433 -0.00284807 0.00000000)
(-0.07455992 -0.00221371 0.00000000)
(-0.06870994 -0.00264701 0.00000000)
(-0.06270424 -0.00287547 0.00000000)
(-0.05644729 -0.00338283 0.00000000)
(-0.05015939 -0.00286624 0.00000000)
(-0.04473267 -0.00224860 0.00000000)
(-0.03999590 -0.00242703 0.00000000)
(-0.03577588 -0.00201936 0.00000000)
(-0.03217126 -0.00169261 0.00000000)
(-0.02929495 -0.00158485 0.00000000)
(-0.02758956 -0.00050211 0.00000000)
(-0.02709396 0.00040426 0.00000000)
(-0.02814140 0.00089952 0.00000000)
(-0.02968281 0.00081597 0.00000000)
(-0.03150997 0.00107188 0.00000000)
(-0.03452180 0.00191525 0.00000000)
(-0.03961140 0.00258527 0.00000000)
(-0.04716948 0.00404662 0.00000000)
(-0.05835291 0.00626358 0.00000000)
(-0.07298728 0.00829633 0.00000000)
(-0.09019207 0.01009913 0.00000000)
(-0.10680113 0.00988560 0.00000000)
(-0.11642246 0.00240713 0.00000000)
(-0.11178264 -0.01980127 0.00000000)
(-0.09969561 -0.04645233 0.00000000)
(-0.08518295 -0.06474980 0.00000000)
(-0.07109962 -0.07226440 0.00000000)
(-0.05869372 -0.07040932 0.00000000)
(-0.04579428 -0.06411293 0.00000000)
(-0.03306472 -0.05171538 0.00000000)
(-0.02275048 -0.03865359 0.00000000)
(-0.00981636 -0.02193869 0.00000000)
(-0.00117670 -0.00275322 0.00000000)
(0.01368513 0.01159104 0.00000000)
(0.02092869 0.03155311 0.00000000)
(0.03314806 0.04632922 0.00000000)
(0.04452071 0.06404620 0.00000000)
(0.05739499 0.08255897 0.00000000)
(0.07303799 0.10658371 0.00000000)
(0.07971273 0.11669037 0.00000000)
(0.12019500 0.14954782 0.00000000)
(0.31671910 0.28415884 0.00000000)
(0.61510236 0.31996004 0.00000000)
(0.67270756 0.20346732 0.00000000)
(0.40436292 0.05825601 0.00000000)
(0.29093577 0.02176917 0.00000000)
(0.11545400 0.00941840 0.00000000)
(-0.04734103 0.03509954 0.00000000)
(-0.04553641 0.04379304 0.00000000)
(-0.03076851 0.04250104 0.00000000)
(-0.02718305 0.04333447 0.00000000)
(-0.02784823 0.04657169 0.00000000)
(-0.03020249 0.05095363 0.00000000)
(-0.03306943 0.05658281 0.00000000)
(-0.03673308 0.06083382 0.00000000)
(-0.03884254 0.06247222 0.00000000)
(-0.04087577 0.06421437 0.00000000)
(-0.04118052 0.06319517 0.00000000)
(-0.04041852 0.05853227 0.00000000)
(-0.03770252 0.05068829 0.00000000)
(-0.03380937 0.04018659 0.00000000)
(-0.02851212 0.02720765 0.00000000)
(-0.02183385 0.01374149 0.00000000)
(-0.01416950 0.00126959 0.00000000)
(-0.00616206 -0.00572306 0.00000000)
(0.00091281 -0.00315527 0.00000000)
(0.00101439 0.00423588 0.00000000)
(-0.00774227 0.00743883 0.00000000)
(-0.02173167 0.00766107 0.00000000)
(-0.03735045 0.00810381 0.00000000)
(-0.05421327 0.00881039 0.00000000)
(-0.07223724 0.00973662 0.00000000)
(-0.09135202 0.01048108 0.00000000)
(-0.11124252 0.01103851 0.00000000)
(-0.13106613 0.01123758 0.00000000)
(-0.15051556 0.01141034 0.00000000)
(-0.16920213 0.01139641 0.00000000)
(-0.18679371 0.01098247 0.00000000)
(-0.20273964 0.01017795 0.00000000)
(-0.21688089 0.00941004 0.00000000)
(-0.22919320 0.00845712 0.00000000)
(-0.23966276 0.00737074 0.00000000)
(-0.24855926 0.00634538 0.00000000)
(-0.25591739 0.00544091 0.00000000)
(-0.26166897 0.00460809 0.00000000)
(-0.26574536 0.00364918 0.00000000)
(-0.26839924 0.00260947 0.00000000)
(-0.26992685 0.00198481 0.00000000)
(-0.27051527 0.00123864 0.00000000)
(-0.26977487 0.00053759 0.00000000)
(-0.26789832 -0.00014227 0.00000000)
(-0.26506831 -0.00094541 0.00000000)
(-0.26148701 -0.00177352 0.00000000)
(-0.25710708 -0.00216404 0.00000000)
(-0.25225702 -0.00238016 0.00000000)
(-0.24697006 -0.00262743 0.00000000)
(-0.24113518 -0.00339282 0.00000000)
(-0.23481996 -0.00377479 0.00000000)
(-0.22811668 -0.00388311 0.00000000)
(-0.22101850 -0.00397972 0.00000000)
(-0.21398831 -0.00389373 0.00000000)
(-0.20693488 -0.00373870 0.00000000)
(-0.19989228 -0.00409375 0.00000000)
(-0.19238942 -0.00434180 0.00000000)
(-0.18441737 -0.00466136 0.00000000)
(-0.17627784 -0.00503906 0.00000000)
(-0.16861625 -0.00459916 0.00000000)
(-0.16136281 -0.00406054 0.00000000)
(-0.15487200 -0.00363054 0.00000000)
(-0.14845487 -0.00366152 0.00000000)
(-0.14171182 -0.00344710 0.00000000)
(-0.13485632 -0.00396626 0.00000000)
(-0.12763259 -0.00473019 0.00000000)
(-0.11986598 -0.00482318 0.00000000)
(-0.11218799 -0.00412614 0.00000000)
(-0.10553436 -0.00384801 0.00000000)
(-0.09886353 -0.00381206 0.00000000)
(-0.09245014 -0.00358596 0.00000000)
(-0.08616604 -0.00378268 0.00000000)
(-0.08000046 -0.00371269 0.00000000)
(-0.07367799 -0.00307866 0.00000000)
(-0.06738260 -0.00351089 0.00000000)
(-0.06110293 -0.00375377 0.00000000)
(-0.05469895 -0.00429893 0.00000000)
(-0.04835236 -0.00373160 0.00000000)
(-0.04263817 -0.00297532 0.00000000)
(-0.03785638 -0.00307700 0.00000000)
(-0.03369591 -0.00258543 0.00000000)
(-0.03001438 -0.00214840 0.00000000)
(-0.02722392 -0.00191421 0.00000000)
(-0.02565052 -0.00069484 0.00000000)