3 	0.00848164485551915 	2.25514051876985e-17 	0.00741506804918072 	6.30404912525261e-05 	77.3224636877849 	2.6346353939477e-06
3 	0.0257124540819764 	2.16840434497101e-17 	0.00738993149349046 	0.000739041435225784 	22.7401621600077 	5.13764510069278e-05
3 	0.0434878461003755 	2.08166817117217e-17 	0.00732582352220706 	0.00211247022460063 	7.40517721177815 	0.000327460217915595
3 	0.0618250325465285 	2.16840434497101e-17 	0.00724368931203932 	0.00330241446753253 	4.21110735847914 	0.000814704823623588
3 	0.0807417690330369 	2.08166817117217e-17 	0.00714663355663464 	0.00426890110642295 	3.17726323467611 	0.00136086673286744
3 	0.100256372341773 	2.08166817117217e-17 	0.00703429310978458 	0.00509703178600849 	2.66570496308947 	0.00192262024885281
3 	0.120387738159735 	1.99493199737333e-17 	0.00691267321907811 	0.00583229427381778 	2.35345583626338 	0.0024845239758211
3 	0.14115535937544 	2.16840434497101e-17 	0.0067860619110006 	0.00649904087511207 	2.1442025358613 	0.00303417891046286
3 	0.162579344953588 	2.42861286636753e-17 	0.00665710523807891 	0.00711250253188738 	1.99739619940062 	0.003561468722332
3 	0.184680439406251 	2.42861286636753e-17 	0.00652811016491452 	0.00768321950229151 	1.89245781487065 	0.00405818003843337
3 	0.207480042879464 	2.42861286636753e-17 	0.00640132619348829 	0.00821910102468287 	1.81785264297822 	0.00451745717707076
3 	0.231000231874645 	2.60208521396521e-17 	0.00627901600118197 	0.00872665353570352 	1.76682182793885 	0.00493332392156107
3 	0.25526378062493 	3.46944695195361e-17 	0.00616358110610586 	0.00921188700043279 	1.73549088784893 	0.005300234207764
3 	0.280294183147101 	4.5102810375397e-17 	0.00605773648242764 	0.00968113633434517 	1.72201275732429 	0.00561260404764778
3 	0.306115675990475 	4.33680868994202e-17 	0.00596476869360886 	0.0101419477352364 	1.72625578177443 	0.00586430756743493
3 	0.332753261704774 	3.64291929955129e-17 	0.00588894548858071 	0.0106041559196805 	1.74985967391101 	0.006048170058148
3 	0.360232733049699 	3.46944695195361e-17 	0.00583613325828839 	0.0110812862020076 	1.79662598803593 	0.00615559244544577
3 	0.388580697969653 	3.46944695195361e-17 	0.00581484894865834 	0.0115924490978995 	1.87329120536805 	0.00617665712760814
3 	0.417824605357797 	2.94902990916057e-17 	0.00583868176791803 	0.0121647975763703 	1.99058036462169 	0.00610187016898093
3 	0.447992771634379 	2.94902990916057e-17 	0.00592930432415695 	0.0128347353239455 	2.16199934168762 	0.00593114975493129
3 	0.479114408165077 	3.46944695195361e-17 	0.00610482115100754 	0.0136458096685377 	2.39656222033371 	0.00567570880002587
3 	0.511219649545904 	3.46944695195361e-17 	0.0063712465050654 	0.0146529716746785 	2.68916083924048 	0.00516872447139657
3 	0.544339582782064 	3.64291929955129e-17 	0.00673663393044927 	0.0159176150784878 	3.02931553254642 	0.00464620792648296
3 	0.578506277389002 	3.29597460435593e-17 	0.00720115772805188 	0.0174312995512159 	3.4056689224938 	0.00439350630862625
3 	0.613752816444818 	3.46944695195361e-17 	0.0077459322643898 	0.0190200028901781 	3.77964507771055 	0.00446692832711296
3 	0.650113328624082 	3.81639164714898e-17 	0.00837883967426314 	0.0203913939249561 	4.11398687415046 	0.00471316056895308
3 	0.687623021244091 	4.16333634234434e-17 	0.00919725496283767 	0.0212445227504586 	4.39473564726204 	0.00481953544624614
3 	0.726318214355558 	4.33680868994202e-17 	0.0102504729006255 	0.0212957359447246 	4.60417395880006 	0.00463191468975636
3 	0.766236375910742 	3.98986399474666e-17 	0.0114224083708197 	0.0203070765853973 	4.69931657745915 	0.00432487999018678
3 	0.807416158043071 	4.5102810375397e-17 	0.0125754154204398 	0.0182045106480279 	4.62416107157581 	0.00393485494935858
3 	0.849897434493391 	4.68375338513738e-17 	0.0136029086505488 	0.0152496834252986 	4.33549911235136 	0.00350886158600848
3 	0.893721339219075 	4.33680868994202e-17 	0.0144187787294351 	0.0120050367783017 	3.83091133000149 	0.003121271844775
3 	0.938930306223384 	3.81639164714898e-17 	0.014994175795796 	0.00909863888222257 	3.17090690282092 	0.00286057831953664
3 	0.985568110643632 	3.46944695195361e-17 	0.0153646377722373 	0.00693470721474944 	2.47534713416563 	0.0028065482030793
3 	1.03367991113796 	3.12250225675825e-17 	0.0156033896024958 	0.0055681909892885 	1.871415378277 	0.00299887882354082
3 	1.08331229361174 	2.25514051876985e-17 	0.0157876055129363 	0.00480693805747474 	1.42950571992507 	0.00339523255348517
3 	1.13451331632597 	1.73472347597681e-17 	0.0159764668360549 	0.00439763517687352 	1.14507855153874 	0.00386691133557607
3 	1.18733255643133 	1.38777878078145e-17 	0.0162036487989759 	0.00414252493947737 	0.972963262889442 	0.00427208015124302
3 	1.24182115797291 	1.56125112837913e-17 	0.0164799803942597 	0.00392173930636067 	0.86757290458458 	0.00452575226828969
3 	1.29803188141224 	2.08166817117217e-17 	0.0168024666201339 	0.00367301939843301 	0.796571809510942 	0.00460160390136582
3 	1.3560191547143 	1.73472347597681e-17 	0.0171644269589654 	0.00337022733213737 	0.740827451659535 	0.00450917823754396
3 	1.41583912604936 	1.73472347597681e-17 	0.0175542019395477 	0.00301034618489776 	0.691247037639121 	0.00428783842177546
3 	1.47754971816027 	3.12250225675825e-17 	0.0179536216671604 	0.0026043780634314 	0.644308350523107 	0.00399358810761602
3 	1.54121068444816 	3.81639164714898e-17 	0.0183465487171603 	0.00216953912403913 	0.598744672584125 	0.00359993446365003
3 	1.60688366683067 	3.46944695195361e-17 	0.0187302951022146 	0.00172292351009258 	0.553331652075051 	0.00309717693392547
3 	1.67463225542887 	3.81639164714898e-17 	0.0191100079898943 	0.00128238617780862 	0.505701017764557 	0.00251376121273765
3 	1.74452205014053 	3.81639164714898e-17 	0.0194878654053656 	0.000871372265750751 	0.452772370906014 	0.00189511865125916
3 	1.81662072415942 	4.16333634234434e-17 	0.0198661011953413 	0.000519629615263261 	0.393128913952158 	0.00128525760280863
3 	1.89099808950219 	4.5102810375397e-17 	0.0202490847813631 	0.00025589676634487 	0.330607747888755 	0.000736642377521247
3 	1.96772616460625 	4.85722573273506e-17 	0.0206424018969122 	9.35261632432834e-05 	0.274745787210717 	0.000314598203327431
3 	2.046879244064 	5.89805981832114e-17 	0.0210508956779192 	2.08295055379376e-05 	0.234541895597083 	8.02746198332168e-05
3 	2.12853397056112 	6.24500451351651e-17 	0.0214760204592368 	2.92570462873189e-06 	0.211024240534583 	1.32367152115837e-05
3 	2.21276940908841 	5.89805981832114e-17 	0.0219160314369998 	1.64725895062242e-06 	0.197943193944085 	8.42512794669019e-06
3 	2.29966712349917 	6.24500451351651e-17 	0.022367673735541 	2.8918443906671e-06 	0.188538956307786 	1.55038018512725e-05
3 	2.38931125548612 	6.59194920871187e-17 	0.0228268636768556 	3.33786340720508e-06 	0.179486893391509 	1.85633285553401e-05
3 	2.48178860605446 	5.89805981832114e-17 	0.023289962342196 	2.63861516608512e-06 	0.17027867167102 	1.53697254331862e-05
3 	2.56568527545393 	6.93889390390723e-17 	0.0236994864596733 	1.90532124404739e-06 	0.162344880310633 	1.16420027823497e-05
3 	2.61415409793507 	8.32667268468867e-17 	0.0239321188796726 	1.57538037723005e-06 	0.15796840055277 	9.91771012810271e-06
3 	2.67576734945706 	8.32667268468867e-17 	0.0242199456113413 	1.3168879320107e-06 	0.152813085260509 	8.56803376202719e-06
3 	2.77750611791632 	8.32667268468867e-17 	0.0246851391711468 	1.01556618258198e-06 	0.14481205785932 	6.9795542383694e-06
3 	2.88243907686441 	7.97972798949331e-17 	0.0251498832177812 	8.00502649873274e-07 	0.1372291273821 	5.80782051986689e-06
3 	2.99066584002853 	8.32667268468867e-17 	0.025613529660238 	6.43238291869616e-07 	0.130000272667988 	4.93037956018329e-06
3 	3.1022890860701 	9.36750677027476e-17 	0.0260755052515957 	5.26789860908177e-07 	0.123104938384856 	4.26460092899204e-06
3 	3.21741465034879 	1.04083408558608e-16 	0.0265358149641649 	4.2407147812448e-07 	0.116557762438321 	3.62345191475373e-06
3 	3.33615161928244 	1.17961196366423e-16 	0.0269942610410365 	3.35817976139353e-07 	0.110350401792753 	3.03281072088954e-06
3 	3.45861242736801 	1.31838984174237e-16 	0.0274497847818533 	2.86095952996506e-07 	0.104433682558578 	2.73726388981317e-06
3 	3.58491295692906 	1.35308431126191e-16 	0.0279013890220064 	2.67275176633737e-07 	0.0987857830254958 	2.70492391080007e-06
3 	3.71517264065697 	1.2490009027033e-16 	0.0283491082803756 	2.40913362763523e-07 	0.0934534791115733 	2.57374622401034e-06
3 	3.84951456701401 	1.21430643318376e-16 	0.0287931678426331 	2.02649625020501e-07 	0.0884996134770866 	2.28369313213368e-06
3 	3.98806558856736 	1.21430643318376e-16 	0.0292326637571219 	1.59797527925879e-07 	0.0839252804794217 	1.89793942047757e-06
3 	4.13095643332461 	1.11022302462516e-16 	0.0296656977593742 	1.28426687332956e-07 	0.0796973152134985 	1.61043490520817e-06
3 	4.27832181914195 	1.04083408558608e-16 	0.030091657546916 	1.29892326010499e-07 	0.0758653729832122 	1.71283223715795e-06
3 	4.43030057127791 	9.36750677027476e-17 	0.0305120571282552 	1.12376665736861e-07 	0.0725768973128399 	1.54377032462854e-06
3 	4.58703574316595 	8.32667268468867e-17 	0.0309252724451871 	5.78907875338226e-08 	0.0699024340195197 	8.23351119183711e-07
3 	4.7486747404808 	8.32667268468867e-17 	0.0313273174326319 	2.6664933107221e-08 	0.0678424477449326 	3.91925846648771e-07
3 	4.91536944857423 	7.97972798949331e-17 	0.0317258480537551 	2.56212250503548e-08 	0.0665273066567302 	3.85211377016642e-07
