3 	0.00848164485551915 	2.25514051876985e-17 	-0.0415021250996891 	0.00184076219144014 	-3.63695753374794e-17
3 	0.0257124540819764 	2.16840434497101e-17 	-0.117625254447392 	0.00618336669050127 	1.08356485485174e-17
3 	0.0434878461003755 	2.08166817117217e-17 	-0.143907252110633 	0.0095422576192545 	-7.82757511538851e-17
3 	0.0618250325465285 	2.16840434497101e-17 	-0.148030196262789 	0.0117401625790171 	-6.29119969103029e-17
3 	0.0807417690330369 	2.08166817117217e-17 	-0.145892450045764 	0.0133220729582002 	-7.33334513644868e-18
3 	0.100256372341773 	2.08166817117217e-17 	-0.141547571010948 	0.0145883889177239 	-4.51957284336534e-21
3 	0.120387738159735 	1.99493199737333e-17 	-0.136035926335462 	0.0156217219196653 	2.25663367530881e-18
3 	0.14115535937544 	2.16840434497101e-17 	-0.129706949773578 	0.0164565417383719 	-1.89620696184907e-17
3 	0.162579344953588 	2.42861286636753e-17 	-0.122693894696804 	0.017107529445299 	-2.03022379631557e-17
3 	0.184680439406251 	2.42861286636753e-17 	-0.115041283399147 	0.0175768269019455 	-1.78088606556309e-18
3 	0.207480042879464 	2.42861286636753e-17 	-0.106749437445745 	0.0178582073502112 	1.80349645090223e-23
3 	0.231000231874645 	2.60208521396521e-17 	-0.0977920442690424 	0.01793870643981 	5.58129675389573e-19
3 	0.25526378062493 	3.46944695195361e-17 	-0.0881226427569261 	0.0177989688403579 	6.03282936245331e-19
3 	0.280294183147101 	4.5102810375397e-17 	-0.0776751292453859 	0.01741297220522 	-5.27652197633478e-19
3 	0.306115675990475 	4.33680868994202e-17 	-0.0663595957452232 	0.0167473566208227 	1.40564078935434e-18
3 	0.332753261704774 	3.64291929955129e-17 	-0.0540529684164093 	0.0157605291876565 	4.07944211432315e-18
3 	0.360232733049699 	3.46944695195361e-17 	-0.0405825608535057 	0.014401763497974 	2.10227745269159e-18
3 	0.388580697969653 	3.46944695195361e-17 	-0.0256993615211581 	0.0126109269625535 	-9.27348275867866e-23
3 	0.417824605357797 	2.94902990916057e-17 	-0.00903767108535459 	0.0103219587517579 	1.24861448083299e-22
3 	0.447992771634379 	2.94902990916057e-17 	0.00992612495794752 	0.00747777604758995 	-6.89662049976207e-24
3 	0.479114408165077 	3.46944695195361e-17 	0.0318942385132801 	0.00400294220492683 	1.46281093008756e-22
3 	0.511219649545904 	3.46944695195361e-17 	0.0582932091438699 	-0.000267741047500202 	2.34036836232952e-21
3 	0.544339582782064 	3.64291929955129e-17 	0.0912713412515746 	-0.00555289099942578 	2.4654681841889e-21
3 	0.578506277389002 	3.29597460435593e-17 	0.132123733760556 	-0.0118605075743484 	-2.3099730859585e-18
3 	0.613752816444818 	3.46944695195361e-17 	0.180146799929592 	-0.0188367294727285 	2.83923944764573e-17
3 	0.650113328624082 	3.81639164714898e-17 	0.233658685486821 	-0.0259981477759237 	3.34862498907465e-17
3 	0.687623021244091 	4.16333634234434e-17 	0.292254407887661 	-0.0329221803839909 	1.81991812649291e-18
3 	0.726318214355558 	4.33680868994202e-17 	0.356937360673681 	-0.0393952948801247 	4.58640727154764e-22
3 	0.766236375910742 	3.98986399474666e-17 	0.427568807803313 	-0.0451616388874379 	-4.89579306924578e-21
3 	0.807416158043071 	4.5102810375397e-17 	0.501738278113626 	-0.0500986139435139 	-4.85858585977161e-21
3 	0.849897434493391 	4.68375338513738e-17 	0.575542972374237 	-0.054293335796187 	5.74628024586506e-21
3 	0.893721339219075 	4.33680868994202e-17 	0.644161408239506 	-0.0578594203419362 	6.08516399910525e-21
3 	0.938930306223384 	3.81639164714898e-17 	0.703152047229504 	-0.060875976584744 	8.09533505097999e-24
3 	0.985568110643632 	3.46944695195361e-17 	0.750059201243323 	-0.063352978137331 	6.29019947220745e-21
3 	1.03367991113796 	3.12250225675825e-17 	0.785239493410699 	-0.0652904686857739 	3.99320058991044e-22
3 	1.08331229361174 	2.25514051876985e-17 	0.811246193028732 	-0.066753035467641 	-1.33476922097852e-20
3 	1.13451331632597 	1.73472347597681e-17 	0.831319514417365 	-0.0678612633787998 	-1.58357989242248e-21
3 	1.18733255643133 	1.38777878078145e-17 	0.848159432092695 	-0.0687298390230054 	6.39391926911376e-21
3 	1.24182115797291 	1.56125112837913e-17 	0.863524535769133 	-0.0694332783801176 	-5.79795845559796e-22
3 	1.29803188141224 	2.08166817117217e-17 	0.878370010240033 	-0.0700086437963699 	6.15499229281186e-22
3 	1.3560191547143 	1.73472347597681e-17 	0.893114157352302 	-0.0704696148384609 	2.2682408945963e-21
3 	1.41583912604936 	1.73472347597681e-17 	0.907790378476959 	-0.0708205952179252 	3.2206291414731e-21
3 	1.47754971816027 	3.12250225675825e-17 	0.922139927434656 	-0.0710525897864625 	-3.38285794540599e-21
3 	1.54121068444816 	3.81639164714898e-17 	0.935810347134602 	-0.0711561700162888 	2.08353063946039e-22
3 	1.60688366683067 	3.46944695195361e-17 	0.948541450243617 	-0.0711262478046133 	5.07749247742558e-21
3 	1.67463225542887 	3.81639164714898e-17 	0.960114205113579 	-0.070966762709867 	-4.98443278587336e-21
3 	1.74452205014053 	3.81639164714898e-17 	0.970186437831925 	-0.0706679392897552 	-4.49866478077793e-21
3 	1.81662072415942 	4.16333634234434e-17 	0.978253251907719 	-0.0702087929333997 	3.37659352134687e-21
3 	1.89099808950219 	4.5102810375397e-17 	0.983807337837807 	-0.0695686283651274 	6.55919552070477e-21
3 	1.96772616460625 	4.85722573273506e-17 	0.986701650698766 	-0.0687406185708871 	-1.22880137107335e-20
3 	2.046879244064 	5.89805981832114e-17 	0.987429443986206 	-0.0677447422627746 	-1.17634437848156e-20
3 	2.12853397056112 	6.24500451351651e-17 	0.986935061829606 	-0.0666290611399505 	8.57418470434904e-21
3 	2.21276940908841 	5.89805981832114e-17 	0.986069931609905 	-0.0654443363311849 	8.67779313280002e-21
3 	2.29966712349917 	6.24500451351651e-17 	0.985258965631564 	-0.0642213539519459 	7.30548114598267e-23
3 	2.38931125548612 	6.59194920871187e-17 	0.984577608443709 	-0.0629706348223065 	-1.12424245143987e-21
3 	2.48178860605446 	5.89805981832114e-17 	0.983973762679326 	-0.0616932110609032 	6.35619830179091e-18
3 	2.56568527545393 	6.93889390390723e-17 	0.983471312031724 	-0.060545945862984 	7.46551736515265e-18
3 	2.61415409793507 	8.32667268468867e-17 	0.983193327091552 	-0.0598878879577469 	8.02706307211002e-18
3 	2.67576734945706 	8.32667268468867e-17 	0.982862278884467 	-0.0590618488897248 	4.37231537801406e-18
3 	2.77750611791632 	8.32667268468867e-17 	0.982340673030327 	-0.0577116260609591 	-3.76716467156311e-18
3 	2.88243907686441 	7.97972798949331e-17 	0.981830252188895 	-0.0563408120271291 	-1.02195528183574e-20
3 	2.99066584002853 	8.32667268468867e-17 	0.9813350252495 	-0.0549524894334319 	6.22764018584668e-21
3 	3.1022890860701 	9.36750677027476e-17 	0.980881204612059 	-0.0535504431992387 	-2.8155182426342e-17
3 	3.21741465034879 	1.04083408558608e-16 	0.980469280087682 	-0.0521356540056427 	-1.36109009829922e-16
3 	3.33615161928244 	1.17961196366423e-16 	0.980053331968931 	-0.0507080326889418 	-1.64139762678147e-16
3 	3.45861242736801 	1.31838984174237e-16 	0.979618605441658 	-0.0492694248587807 	-3.22924638411207e-17
3 	3.58491295692906 	1.35308431126191e-16 	0.979224855313606 	-0.0478249811971193 	-1.34955949117454e-21
3 	3.71517264065697 	1.2490009027033e-16 	0.978931950624192 	-0.0463784592078615 	-2.81803520435567e-21
3 	3.84951456701401 	1.21430643318376e-16 	0.97868756149981 	-0.044928094545543 	9.39596150202789e-21
3 	3.98806558856736 	1.21430643318376e-16 	0.97838663676505 	-0.0434706813157394 	-1.8202764679408e-20
3 	4.13095643332461 	1.11022302462516e-16 	0.97803925760944 	-0.0420089944439075 	-8.68454293001139e-21
3 	4.27832181914195 	1.04083408558608e-16 	0.977787547698744 	-0.0405506895079274 	1.4360254210747e-18
3 	4.43030057127791 	9.36750677027476e-17 	0.977657942008485 	-0.0390959578351061 	2.14066579614077e-16
3 	4.58703574316595 	8.32667268468867e-17 	0.977442183058364 	-0.037636160294251 	2.23260188854134e-16
3 	4.7486747404808 	8.32667268468867e-17 	0.977164744116976 	-0.0361783093336977 	-1.62075650461072e-19
3 	4.91536944857423 	7.97972798949331e-17 	0.976962412599298 	-0.0347155249208618 	-8.42919656623425e-21
