7 	0.00391112967796272 	-1.73472347597681e-18 	0.294582928394846 	2.86004964819663e-05 	864.496893622917 	8.47628871330992e-09 	2.16542233185244e-38
7 	0.0118766651674916 	1.73472347597681e-18 	0.294580213084196 	0.000357805685055719 	214.648940727552 	1.98120951314079e-06 	0
7 	0.0201340015485761 	-3.46944695195361e-18 	0.294571299582501 	0.00183741037434048 	57.2345273381313 	3.90881161417777e-05 	0
7 	0.0286938283423949 	-1.12757025938492e-17 	0.294552441609618 	0.00472708899454466 	24.60277896531 	0.000227899738836486 	0
7 	0.0375672266585908 	-1.12757025938492e-17 	0.294513952445846 	0.00780223414830418 	13.9754367750559 	0.000440387293465244 	0
7 	0.0467656835403031 	-7.80625564189563e-18 	0.294453297316078 	0.0104483420720482 	9.50553406137234 	0.000564232345370316 	0
7 	0.0563011068347005 	8.67361737988404e-19 	0.294375431764456 	0.0126936563950714 	7.19965291867698 	0.000652663085106723 	0
7 	0.0661858406082648 	4.33680868994202e-18 	0.294285293100257 	0.0146572890704581 	5.82170247199816 	0.00073697829184904 	0
7 	0.0764326811267816 	4.33680868994202e-18 	0.294185507769959 	0.016425916552003 	4.91237061603736 	0.00082542450703608 	0
7 	0.0870548934207257 	8.67361737988404e-18 	0.294077565928651 	0.0180558169295916 	4.26999823283633 	0.00092004681483142 	0
7 	0.0980662284574838 	1.21430643318376e-17 	0.293962643510479 	0.0195842968836313 	3.79368500931281 	0.00102152675376189 	0
7 	0.109480940942647 	6.50521303491303e-18 	0.293841766102292 	0.0210371415789433 	3.42770343924425 	0.0011302722969006 	0
7 	0.121313807773416 	-2.16840434497101e-18 	0.293715834154166 	0.0224329245827661 	3.13886018158904 	0.00124668503681004 	0
7 	0.13358014716801 	-3.46944695195361e-18 	0.293585661166147 	0.023785525019771 	2.90618222382754 	0.00137122689855001 	0
7 	0.146295838495838 	-2.16840434497101e-19 	0.293452007877877 	0.0251056488229031 	2.71577905128222 	0.00150443440162238 	0
7 	0.159477342834115 	2.16840434497101e-18 	0.293315602238221 	0.0264017825285122 	2.55809220117854 	0.00164692087460098 	0
7 	0.173141724277517 	2.38524477946811e-18 	0.293177149928422 	0.0276808114658614 	2.4263334463264 	0.0017993768550033 	0
7 	0.18730667202848 	5.20417042793042e-18 	0.293037339853963 	0.0289484316087656 	2.31555334382918 	0.00196257075029381 	0
7 	0.201990523296728 	6.93889390390723e-18 	0.292896120602418 	0.0302093132410253 	2.22222271952686 	0.00213748837572965 	0
7 	0.217212287037676 	1.38777878078145e-17 	0.292754656765545 	0.0314676935854138 	2.14337630080682 	0.0023249936087498 	0
7 	0.232991668560441 	2.08166817117217e-17 	0.292613799695134 	0.0327270883645733 	2.07681388901201 	0.00252606486476247 	0
7 	0.249349095037321 	1.73472347597681e-17 	0.292474168976298 	0.0339904761448452 	2.02085421272074 	0.00274179911547616 	0
7 	0.266305741947753 	1.38777878078145e-17 	0.292336356999788 	0.035260399201088 	1.97416417200564 	0.00297337377185887 	0
7 	0.283883560490999 	1.04083408558608e-17 	0.292200922180996 	0.0365389940770437 	1.93567555164989 	0.00322204292204825 	0
7 	0.30210530600303 	1.04083408558608e-17 	0.292068381030096 	0.0378280011597489 	1.90452405666216 	0.00348913034116988 	0
7 	0.320994567414413 	1.04083408558608e-17 	0.29193919913801 	0.0391287557467974 	1.88000375350691 	0.0037760181832364 	0
7 	0.34057579778732 	1.04083408558608e-17 	0.29181378111127 	0.0404421619235944 	1.86153228519057 	0.00408413005084231 	0
7 	0.3608743459712 	1.73472347597681e-17 	0.29169245945792 	0.0417686497553665 	1.84862368688451 	0.0044149068930517 	0
7 	0.381916489418091 	1.73472347597681e-17 	0.291575482391221 	0.0431081157396933 	1.84086657909289 	0.00476977391346187 	0
7 	0.403729468200046 	2.08166817117217e-17 	0.291463000480878 	0.0444598461116551 	1.83790614635349 	0.00515009639176262 	0
7 	0.426341520272733 	3.12250225675825e-17 	0.291355052070435 	0.0458224224310426 	1.83942873627319 	0.00555712205366662 	0
7 	0.449781918030829 	3.46944695195361e-17 	0.291251547374434 	0.0471936089213678 	1.84514820851906 	0.00599190742279777 	0
7 	0.474081006202548 	3.46944695195361e-17 	0.291152250752955 	0.0485702213074326 	1.85479337281909 	0.00645522561614835 	0
7 	0.499270241132363 	3.81639164714898e-17 	0.291056759355415 	0.0499479774621896 	1.86809601020277 	0.00694745340618594 	0
7 	0.525382231502763 	4.5102810375397e-17 	0.290964478677581 	0.051321331086912 	1.88477909432312 	0.00746843504694011 	0
7 	0.552450780547767 	3.81639164714898e-17 	0.290874615301064 	0.052683291013683 	1.90454493682775 	0.0080173176034389 	0
7 	0.58051092981285 	2.42861286636753e-17 	0.290786206951356 	0.0540252307395429 	1.92706308923667 	0.00859236003808887 	0
7 	0.60959900451791 	2.42861286636753e-17 	0.290697949592015 	0.0553366953564822 	1.95195794742534 	0.00919078581191104 	0
7 	0.639752660582033 	2.77555756156289e-17 	0.290607185033227 	0.0566052136410905 	1.97879605032395 	0.00980883803534789 	0
7 	0.671010933370887 	2.42861286636753e-17 	0.290510285050577 	0.0578161170372379 	2.00707291022798 	0.0104448066593563 	0
7 	0.691025924828834 	1.56125112837913e-17 	0.290449060923924 	0.0585413822106503 	2.02515811474615 	0.0108603295514344 	0
7 	0.70751902192536 	1.56125112837913e-17 	0.290405435753602 	0.0590899182809769 	2.03985942317608 	0.0112328386918296 	0
7 	0.737004672868606 	2.42861286636753e-17 	0.290352687935607 	0.0600015932115764 	2.06556565676719 	0.0119317548159608 	0
7 	0.771825571663976 	2.77555756156289e-17 	0.290334203996007 	0.0609406436081879 	2.09434797846485 	0.0127823441474317 	0
7 	0.807922061953053 	3.12250225675825e-17 	0.290325163914278 	0.0617404601592598 	2.12089064120312 	0.0136554615324523 	0
7 	0.845340872387742 	3.81639164714898e-17 	0.290265854697369 	0.0623468970505226 	2.14232959638401 	0.0144224240129909 	0
7 	0.884130443427309 	4.33680868994202e-17 	0.290128919877487 	0.0626961156608383 	2.15535148384157 	0.014958678529247 	0
7 	0.924340990046898 	4.85722573273506e-17 	0.289916291169892 	0.062734834962179 	2.15718299895152 	0.0152269068957035 	0
7 	0.966024566743242 	5.03069808033274e-17 	0.289636621117103 	0.0624284015745167 	2.14604389932226 	0.0152432402364875 	0
7 	1.00923513492173 	4.9439619065339e-17 	0.289294000070854 	0.0617597194889165 	2.12110221084954 	0.0150383184961587 	0
7 	1.05402863275206 	5.11743425413158e-17 	0.288885619289329 	0.0607256596952066 	2.08225815888841 	0.0146346368633873 	0
7 	1.10046304758287 	4.68375338513738e-17 	0.288403445135067 	0.0593354664833758 	2.03000363412453 	0.0140444212566232 	0
7 	1.14859849100923 	3.59141969635823e-17 	0.287837061618487 	0.0576116421452092 	1.96538921686699 	0.0132791233981092 	0
7 	1.19849727668994 	3.24447500116287e-17 	0.287171881724891 	0.0555861268588057 	1.88983686105516 	0.012357110971152 	0
7 	1.25022400101563 	3.46944695195361e-17 	0.286396689229322 	0.0533132914243781 	1.80555417905623 	0.0113153417374931 	0
7 	1.30384562673186 	3.46944695195361e-17 	0.285510968644198 	0.050866279330777 	1.71534149951873 	0.0102043416830077 	0
7 	1.35943156962565 	3.12250225675825e-17 	0.28451191804137 	0.0483157418093773 	1.62202036453969 	0.00907163547312472 	0
7 	1.41705378838762 	3.12250225675825e-17 	0.283400113418529 	0.0457446372771286 	1.53013493600478 	0.00796282251302846 	0
7 	1.47678687776592 	3.81639164714898e-17 	0.2821794851832 	0.0432226701895112 	1.44253354977776 	0.00691674225464641 	0
7 	1.53870816513277 	4.16333634234434e-17 	0.280856866909912 	0.0407794197645747 	1.35829974720532 	0.00595973534169581 	0
6.99999999999999 	1.60289781058851 	4.16333634234434e-17 	0.279441310767015 	0.0384150262126993 	1.27514556220359 	0.00510481375618496 	0
6.99999999999999 	1.6370086141075 	4.46691295064028e-17 	0.278677782693007 	0.037204074280325 	1.23195037756477 	0.00468888824154863 	0
6.99999999999999 	1.67087760175901 	4.11996825544492e-17 	0.27791331075721 	0.036079138109214 	1.1914888828556 	0.00433857927121741 	0
6.99999999999999 	1.73841760623657 	3.46944695195361e-17 	0.276390663119377 	0.0339189410469841 	1.11505037813521 	0.00370131976413095 	0
6.99999999999999 	1.80992319335659 	3.29597460435593e-17 	0.274811791511545 	0.0317892282770331 	1.04377392052317 	0.00313190747096164 	0
6.99999999999999 	1.88404823953248 	2.42861286636753e-17 	0.273209865281157 	0.029714570721767 	0.980550498039212 	0.00261294918509003 	0
6.99999999999999 	1.96088870322037 	2.08166817117217e-17 	0.271555846663717 	0.0277051787272298 	0.926402524140322 	0.00214564230708704 	0
6.99999999999999 	2.02025965173184 	3.12250225675825e-17 	0.27032531332212 	0.0261729565172047 	0.891728402336232 	0.00181919731943207 	0
7 	2.06006301192217 	3.81639164714898e-17 	0.269464885729642 	0.0251552021368033 	0.871340957426834 	0.00160268321998626 	0
7 	2.09845978584128 	4.16333634234434e-17 	0.26867066193594 	0.0242121688049518 	0.854735977659819 	0.00141641656454374 	0
7 	2.13549967996945 	4.5102810375397e-17 	0.267913533752104 	0.0233193909308283 	0.84121297011127 	0.00124825880527327 	0
7 	2.17123064424048 	4.85722573273506e-17 	0.267193852086762 	0.0224727495743861 	0.830562151622405 	0.00109599767556616 	0
7 	2.20569893411515 	5.20417042793042e-17 	0.266511226996781 	0.0216686038185079 	0.822618073117492 	0.000958127665354605 	0
7 	2.23894917046122 	5.20417042793042e-17 	0.265864401624264 	0.0209037404547935 	0.817255551338788 	0.000833269834505165 	0
7 	2.27102439731725 	5.20417042793042e-17 	0.265252016066054 	0.020175328331761 	0.814386304769457 	0.000720203241524346 	0
7 	2.30196613761521 	5.55111512312578e-17 	0.264672710371109 	0.0194808769252892 	0.813956323603541 	0.000617864746679677 	0
7 	2.33181444693391 	6.24500451351651e-17 	0.264125109879816 	0.0188181995714722 	0.815944007732018 	0.000525337890801525 	0
7 	2.3606079653529 	5.89805981832114e-17 	0.263607835872988 	0.0181853817447508 	0.820359096066518 	0.000441841805750728 	0
7 	2.3883839674739 	5.20417042793042e-17 	0.263119521696903 	0.017580754388326 	0.827242398813802 	0.000366721956162985 	0
7 	2.41517841067461 	4.85722573273506e-17 	0.262658824706635 	0.0170028720583876 	0.836666343959715 	0.000299442954781778 	0
7 	2.44102598165722 	4.5102810375397e-17 	0.262224434880187 	0.0164504955322273 	0.848736358356158 	0.000239583778858755 	0
7 	2.46596014135208 	4.5102810375397e-17 	0.261815081237512 	0.0159225784933433 	0.863593118752875 	0.000186835636910214 	0
7 	2.49001316823444 	4.77048955893622e-17 	0.261429536504863 	0.0154182579102829 	0.881415726452367 	0.000141002663840087 	0
7 	2.51321620011054 	5.29090660172926e-17 	0.261066620312685 	0.0149368477474927 	0.90242587904254 	0.000102005627279505 	0
7 	2.535599274427 	5.55111512312578e-17 	0.260725201186242 	0.0144778356672667 	0.926893131818225 	6.98888727167854e-05 	0
7 	2.55719136715571 	5.55111512312578e-17 	0.260404197546211 	0.0140408823859724 	0.955141357435159 	4.48307885488333e-05 	0
7 	2.57802043030465 	5.89805981832114e-17 	0.260102577892921 	0.0136258233200833 	0.987556521380983 	2.71581136744436e-05 	0
7 	2.59811342810315 	6.24500451351651e-17 	0.259819360311671 	0.0132326720824673 	1.02459588763197 	1.73644173529182e-05 	0
7 	2.61749637190832 	5.89805981832114e-17 	0.259553611407125 	0.0128616252494075 	1.06679874559429 	1.61330240741019e-05 	0
7 	2.63619435387806 	5.20417042793042e-17 	0.259304444751215 	0.0125130675944416 	1.1147986951242 	2.4364494654098e-05 	0
7 	2.65423157945406 	4.85722573273506e-17 	0.259071018910946 	0.0121875766560573 	1.16933742636227 	4.32084549698089e-05 	0
7 	2.67163139869691 	4.5102810375397e-17 	0.25885253511046 	0.0118859250554541 	1.23127976693516 	7.4099019448214e-05 	0
7 	2.68841633651388 	4.5102810375397e-17 	0.258648234576217 	0.0116090784017761 	1.30162952029039 	0.00011879221574769 	0
7 	2.7046081218185 	4.85722573273506e-17 	0.25845739561632 	0.0113581859333622 	1.38154526716656 	0.000179402620413537 	0
7 	2.72022771565972 	4.85722573273506e-17 	0.258279330495691 	0.0111345603062634 	1.47235483977607 	0.000258434849630145 	0
7 	2.73529533835694 	4.16333634234434e-17 	0.258113382188709 	0.0109396422853118 	1.57556662268297 	0.000358803702067506 	0
7 	2.74983049567625 	3.38271077815477e-17 	0.257958921118996 	0.0107749457396811 	1.69287524919094 	0.000483834879520834 	0
7 	2.76385200408157 	2.94902990916057e-17 	0.257815342029138 	0.0106419786150881 	1.82615878140362 	0.000637236806452523 	0
7 	2.77737801509344 	3.03576608295941e-17 	0.257682061153554 	0.0105421368394677 	1.97746430875185 	0.000823033871106636 	0
7 	2.79042603878708 	3.81639164714898e-17 	0.257558513885002 	0.010476570784423 	2.14897937898396 	0.00104545330988018 	0
7 	2.80301296646003 	4.16333634234434e-17 	0.257444153124527 	0.0104460281187764 	2.34298812072141 	0.0013087627336952 	0
7 	2.81515509249873 	4.16333634234434e-17 	0.257338448488141 	0.0104506823933324 	2.56181356922604 	0.00161706319773927 	0
7 	2.82686813547238 	4.5102810375397e-17 	0.257240886429779 	0.0104899626062667 	2.80775154187051 	0.00197405300271706 	0
7 	2.83816725848143 	5.55111512312578e-17 	0.257150970857528 	0.01056240380412 	3.08300596757651 	0.00238278814767657 	0
7 	2.84906708878692 	6.24500451351651e-17 	0.25706822350247 	0.0106655406437915 	3.38963991575893 	0.00284547377764116 	0
7 	2.85958173674617 	6.24500451351651e-17 	0.25699218745259 	0.0107958632641467 	3.72955945928149 	0.00336332448557124 	0
7 	2.86972481407933 	6.59194920871187e-17 	0.256922446345553 	0.0109488473313386 	4.1045478533372 	0.00393652758355137 	0
7 	2.87950945149043 	7.28583859910259e-17 	0.256858633774777 	0.0111190587962942 	4.51636493032148 	0.00456481053729203 	0
7 	2.88894831566567 	7.63278329429795e-17 	0.256800232355944 	0.0113003173536656 	4.96695393465471 	0.0052575562440884 	0
7.00000000000001 	2.89805362567107 	7.97972798949331e-17 	0.256746165794695 	0.0114858027152023 	5.45939484223456 	0.00604943556982028 	0
7.00000000000001 	2.90683716877067 	8.23993651088983e-17 	0.256695835795825 	0.0116676956179186 	6.00003215926291 	0.00690095271598019 	0
7.00000000000001 	2.9153103156857 	8.50014503228635e-17 	0.256649857706493 	0.0118368097309529 	6.59344139493129 	0.00783399694502162 	0
7 	2.92348403531449 	8.84708972748172e-17 	0.256608707433802 	0.0119800945536318 	7.23815206120657 	0.00878794543195148 	0
7 	2.9313689089323 	8.84708972748172e-17 	0.256572149535154 	0.0120849903181238 	7.9328615638504 	0.00973059863590243 	0
7 	2.93897514388925 	8.50014503228635e-17 	0.256539750042402 	0.0121414424016848 	8.68088164791333 	0.0106550506420341 	0
7 	2.94631258682425 	7.80625564189563e-17 	0.256511148531008 	0.0121420294383397 	9.49249541985236 	0.011570021725998 	0
7.00000000000001 	2.95339073641193 	7.45931094670027e-17 	0.256486093839851 	0.0120810647656498 	10.3863113638343 	0.012493052541449 	0
7.00000000000001 	2.96021875565916 	7.80625564189563e-17 	0.256464417170484 	0.0119533900474209 	11.3907935521205 	0.013447150884683 	0
7.00000000000001 	2.96680548376697 	8.23993651088983e-17 	0.256446002141604 	0.0117531014823432 	12.5471298231145 	0.0144595492470381 	0
7.00000000000001 	2.97315944757337 	7.97972798949331e-17 	0.256430758170676 	0.0114722115158548 	13.9134123876002 	0.0155606715266656 	0
7.00000000000001 	2.97928887259171 	7.97972798949331e-17 	0.25641859409201 	0.0110990598579788 	15.572525244563 	0.0167810227379341 	0
7.00000000000001 	2.98520169365903 	8.32667268468867e-17 	0.256409388436103 	0.0106162219373744 	17.6458333698894 	0.0181425580462533 	0
7.00000000000001 	2.99090556520807 	8.32667268468867e-17 	0.256402957638957 	0.0099978704883549 	20.3160301235043 	0.0196389211578476 	0
7.00000000000001 	2.99640787117633 	8.23993651088983e-17 	0.256399036979846 	0.00920665512392059 	23.8687791901006 	0.0211959255565572 	0
7.00000000000001 	3.00171573456492 	8.50014503228635e-17 	0.256397291345591 	0.00819052532775577 	28.775121227361 	0.0225958417001114 	0
7.00000000000001 	3.00683602665963 	9.19403442267708e-17 	0.256397281048855 	0.00687994386303785 	35.8733241910871 	0.0230495271537382 	0
7.00000000000001 	3.01177537592613 	9.8879238130678e-17 	0.256398321980495 	0.005219772529658 	46.8173447089119 	0.0209423870264985 	0
7.00000000000001 	3.01654017659085 	1.02348685082632e-16 	0.256399618442476 	0.00329349525044965 	65.5621562535837 	0.0144472978632886 	0
7.00000000000001 	3.02113659691864 	1.02348685082632e-16 	0.256400662507696 	0.00152736006923363 	104.591579254136 	0.00587679292757464 	0
7.00000000000001 	3.02557058719784 	1.02348685082632e-16 	0.256401476172928 	0.00045781179128503 	214.748326455747 	0.00111716334458827 	0
7.00000000000001 	3.02984788744324 	1.02348685082632e-16 	0.256402378193514 	7.31029886961102e-05 	705.856170802532 	8.46225321053689e-05 	0
