8 	1.00195556483898 	0 	-0.0346333952954868 	7.70937092648894e-06 	3712.48869217372 	2.06195589699906e-06 	1.87293060423329e-39
8 	1.00593833258374 	3.46944695195361e-18 	-0.0345472955818906 	0.000211608014633484 	663.625847954277 	0.000296317884401252 	0
8 	1.01006700077429 	-3.46944695195361e-18 	-0.0344092377728798 	0.00146757833868234 	239.473479841686 	0.00711948406886582 	0
8 	1.0143469141712 	-6.93889390390723e-18 	-0.0340572262293226 	0.00474055644811221 	134.311347729561 	0.0333944574335553 	0
8 	1.01878361332929 	0 	-0.033290250001307 	0.00931242527409771 	88.2095659453051 	0.0522484054328404 	0
8 	1.02338284177015 	3.46944695195361e-18 	-0.0320744694635476 	0.0140618468151322 	60.3312768260443 	0.0439287346025295 	0
8 	1.02815055341735 	0 	-0.0305098758176409 	0.0186628627572366 	42.4980319558618 	0.0271483782948676 	0
8 	1.03309292030413 	0 	-0.0287005093822417 	0.022987462834312 	31.0205141914755 	0.0152154564937523 	0
8 	1.03821634056339 	6.93889390390723e-18 	-0.0267157835004265 	0.0269178801012729 	23.4921961932551 	0.00892561068639465 	0
8 	1.04352744671036 	6.93889390390723e-18 	-0.024599622604767 	0.0304046473786037 	18.41875364021 	0.00588375187139205 	0
8 	1.04903311422875 	0 	-0.022380459724112 	0.0334650079485406 	14.9025194906496 	0.00438190080583263 	0
8 	1.05474047047133 	3.46944695195361e-18 	-0.0200765917175005 	0.0361488050543245 	12.3989102678544 	0.00357770649542959 	0
8 	1.06065690388671 	3.46944695195361e-18 	-0.0176988963819708 	0.0385129391115061 	10.5692633346238 	0.0030929961705997 	0
8 	1.06679007358401 	6.93889390390723e-18 	-0.0152525010116466 	0.040609244472323 	9.19746651595979 	0.00275972336481167 	0
8 	1.07314791924792 	1.73472347597681e-17 	-0.0127384278640534 	0.0424805797824988 	8.1424244444269 	0.00250213579474897 	0
8 	1.07973867141706 	1.38777878078145e-17 	-0.0101553587830736 	0.0441607096324441 	7.3102513180649 	0.00228522142928381 	0
8 	1.08657086213876 	1.04083408558608e-17 	-0.00750129001571714 	0.0456755885523392 	6.63753315776296 	0.00209196036948257 	0
8.00000000000001 	1.09365333601424 	1.04083408558608e-17 	-0.00477489460733756 	0.0470449640895557 	6.0809643394239 	0.0019133916165698 	0
8.00000000000001 	1.10099526164837 	3.46944695195361e-18 	-0.00197644259623906 	0.0482838656189044 	5.61074839611226 	0.00174444036686759 	0
8.00000000000001 	1.10860614351884 	0 	0.000891755712238475 	0.0494038317174812 	5.20628120386282 	0.00158220128700417 	0
8.00000000000001 	1.11649583428022 	0 	0.00382526450822963 	0.0504138550440664 	4.85325846306277 	0.00142525256705899 	0
8.00000000000001 	1.12467454751866 	3.46944695195361e-18 	0.00681769574025956 	0.0513210765436969 	4.54169977106124 	0.00127338137879914 	0
8.00000000000001 	1.13315287097388 	1.04083408558608e-17 	0.0098610686512154 	0.0521312779264027 	4.26458064599286 	0.00112744482163939 	0
8.00000000000001 	1.1419417802455 	1.38777878078145e-17 	0.0129462902080941 	0.0528492218278889 	4.01687846768692 	0.0009892423424539 	0
8.00000000000001 	1.15105265300152 	1.38777878078145e-17 	0.0160637048333317 	0.0534788823143268 	3.79490594921043 	0.00086135133352204 	0
8.00000000000001 	1.16049728370721 	1.38777878078145e-17 	0.0192036693699271 	0.0540235993445555 	3.59584723014581 	0.000746917103885539 	0
8 	1.17028789889366 	2.08166817117217e-17 	0.0223571065329555 	0.0544861821277983 	3.4174382005196 	0.000649402017363691 	0
8 	1.1804371729856 	3.46944695195361e-17 	0.0255159840926301 	0.0548689793422971 	3.25775019111913 	0.000572298826655414 	0
8 	1.19095824470905 	4.16333634234434e-17 	0.0286736653783313 	0.0551739292571181 	3.11504799001101 	0.000518812753012776 	0
8 	1.20186473410003 	4.5102810375397e-17 	0.031825081373667 	0.055402599628704 	2.98770124447993 	0.000491524629967207 	0
8 	1.21317076013637 	4.5102810375397e-17 	0.0349666837026071 	0.0555562252225171 	2.87413397939846 	0.000492070780488686 	0
8 	1.22489095901542 	4.16333634234434e-17 	0.0380961785932986 	0.055635749223805 	2.77280105439835 	0.000520906207471391 	0
8 	1.23704050310128 	4.16333634234434e-17 	0.0412121236146405 	0.0556418726852445 	2.68218335985979 	0.000577222107211603 	0
8 	1.24963512056619 	3.81639164714898e-17 	0.0443134787228954 	0.0555751119932453 	2.60079557213701 	0.000659125694189634 	0
8 	1.26269111575139 	3.46944695195361e-17 	0.0473992943630469 	0.0554358590352614 	2.52720149247579 	0.000763951603179417 	0
8 	1.27622539027389 	3.46944695195361e-17 	0.0504683749478594 	0.0552244414430262 	2.46003305558278 	0.00088850038189859 	0
8 	1.29025546490643 	3.46944695195361e-17 	0.0535190446308332 	0.0549411790255517 	2.39801038373241 	0.00102922295676862 	0
8 	1.30479950225896 	3.81639164714898e-17 	0.0565490099657535 	0.0545864327813076 	2.33996080187696 	0.00118233972603976 	0
8 	1.31987633029102 	4.16333634234434e-17 	0.0595553648476117 	0.0541606445830237 	2.28483508710667 	0.00134391714925507 	0
8 	1.33550546668545 	3.81639164714898e-17 	0.0625347043393575 	0.0536643682083803 	2.23171954858584 	0.00150991376838193 	0
8 	1.35170714411495 	4.16333634234434e-17 	0.0654832969650185 	0.0530982952568686 	2.17984294287868 	0.00167621108799226 	0
8 	1.3685023364343 	3.80758250449753e-17 	0.0683984933936214 	0.0524632405926529 	2.12857963161656 	0.00183892237827452 	0
8 	1.38591278583199 	2.63393365278197e-17 	0.0712767642742895 	0.0517602604315999 	2.07743708378241 	0.0019940115233901 	0
8 	1.40396103097653 	3.05067386283109e-17 	0.0741127258517604 	0.0509906777684437 	2.02605542192331 	0.00213717558947261 	0
8 	1.42267043619387 	3.01814779765652e-17 	0.0769033520022169 	0.0501560654996787 	1.97419539729846 	0.00226483254270293 	0
8 	1.44206522171365 	2.64545330086463e-17 	0.0796461254931634 	0.0492583160366555 	1.92171639260017 	0.00237379518971872 	0
8 	1.46217049502345 	2.63190077370856e-17 	0.0823390120562222 	0.0482996794210709 	1.8685584463488 	0.00246134800001849 	0
8 	1.48301228337162 	2.15756232324615e-17 	0.0849803871532265 	0.0472827992535706 	1.81472553674745 	0.00252530858774264 	0
8 	1.50461756746086 	1.58293517182884e-17 	0.0875689448027755 	0.0462107458251181 	1.76027165818778 	0.00256409415421979 	0
8 	1.52701431637602 	1.38235776991902e-17 	0.0901036036031235 	0.0450870437695608 	1.70529037357018 	0.00257678938124665 	0
8 	1.55023152379143 	1.22514845490862e-17 	0.0925834252622248 	0.0439156891562636 	1.6499075479094 	0.00256319961350058 	0
8 	1.57429924550461 	7.69783542464708e-18 	0.0950075557234752 	0.0427011493553939 	1.59427620290553 	0.0025238694136902 	0
8 	1.59924863834497 	1.00830802041152e-17 	0.097375188788465 	0.0414483395100202 	1.53857218457387 	0.00246005555162201 	0
8 	1.62511200050781 	1.0842021724855e-17 	0.099685544470112 	0.0401625728189228 	1.48298973561768 	0.00237366660436445 	0
8 	1.65192281336592 	8.45677694538693e-18 	0.101937852936795 	0.0388494868045368 	1.4277369054829 	0.0022672049914684 	0
7.99999999999999 	1.67971578481282 	5.63785129692462e-18 	0.104131349179635 	0.0375149494979195 	1.37303140905959 	0.00214373698279853 	0
7.99999999999999 	1.70852689419381 	2.16840434497101e-18 	0.106265290303259 	0.0361649440871957 	1.31909742110914 	0.00200687093999417 	0
7.99999999999999 	1.73839343888296 	2.71050543121376e-18 	0.108339002771015 	0.0348054306893545 	1.26616312748734 	0.00186067183547423 	0
7.99999999999999 	1.76935408256639 	-2.27682456221956e-18 	0.110351957902666 	0.0334422195312653 	1.21445871216328 	0.00170945431507914 	0
7.99999999999999 	1.80144890529425 	-3.68628738645072e-18 	0.112303841312893 	0.0320809777005125 	1.16421510072843 	0.00155746873023062 	0
7.99999999999999 	1.83471945536633 	2.38524477946811e-18 	0.114194518659296 	0.0307275069729885 	1.11566443907623 	0.00140858004469338 	0
7.99999999999999 	1.86920880311829 	7.58941520739853e-18 	0.116024076253436 	0.0293875847632287 	1.06904147265292 	0.00126593880243441 	0
7.99999999999999 	1.9049615966783 	1.38777878078145e-17 	0.117792975107534 	0.0280671629264714 	1.02458416694984 	0.00113168254963473 	0
7.99999999999999 	1.94202411976624 	1.30104260698261e-17 	0.119501537144446 	0.0267733581980473 	0.982535875324807 	0.00100700591329198 	0
7.99999999999999 	1.98044435161018 	1.30104260698261e-17 	0.121148282113377 	0.0255138629175499 	0.943149539224822 	0.000892247234871568 	0
7.99999999999999 	2.02025965173184 	1.73472347597681e-17 	0.122732832837301 	0.0242943554286641 	0.906708741799271 	0.000789165506341796 	0
7.99999999999999 	2.06006301192217 	2.08166817117217e-17 	0.124201500985972 	0.0231514409730289 	0.874533293104044 	0.000698594890417184 	0
7.99999999999999 	2.09845978584128 	2.40692882291782e-17 	0.125525405580378 	0.0221053531292038 	0.847223800479057 	0.000621623189701291 	0
7.99999999999999 	2.13549967996945 	2.01661604082304e-17 	0.12672272090831 	0.0211405730727323 	0.824216047632335 	0.00055491565196523 	0
7.99999999999999 	2.17123064424048 	1.30104260698261e-17 	0.12781016518352 	0.0202447321192274 	0.805039915507498 	0.000496102469186957 	0
7.99999999999999 	2.20569893411515 	2.60208521396521e-18 	0.128801640123331 	0.019408317858655 	0.789319727996519 	0.000443445132264745 	0
7.99999999999999 	2.23894917046122 	-8.67361737988404e-19 	0.129708799276667 	0.0186239707796495 	0.776761046618865 	0.000395738276335689 	0
7.99999999999999 	2.27102439731725 	-8.67361737988404e-19 	0.130541496655845 	0.0178859475486825 	0.767139727002857 	0.000352161049378242 	0
7.99999999999999 	2.30196613761521 	-8.67361737988404e-19 	0.131308102319598 	0.0171897193906825 	0.76029239386659 	0.000312168999224943 	0
7.99999999999999 	2.33181444693391 	-8.67361737988404e-19 	0.132015756985762 	0.0165316742999606 	0.756108385811974 	0.000275416515339702 	0
7.99999999999999 	2.3606079653529 	2.60208521396521e-18 	0.132670578639952 	0.0159088978018454 	0.754523354307026 	0.000241701499626026 	0
7.99999999999999 	2.3883839674739 	9.54097911787244e-18 	0.13327782937359 	0.0153190127915424 	0.755514582336618 	0.00021092762185064 	0
7.99999999999999 	2.41517841067461 	9.54097911787244e-18 	0.133842051402965 	0.0147600635596034 	0.759097956424409 	0.000183080021407901 	0
7.99999999999999 	2.44102598165722 	9.54097911787244e-18 	0.13436717905685 	0.0142304326476142 	0.765326451164706 	0.000158211013687624 	0
7.99999999999999 	2.46596014135207 	1.30104260698261e-17 	0.134856631652163 	0.0137287819127543 	0.774289965706237 	0.000136433215713081 	0
7.99999999999999 	2.49001316823443 	1.62630325872826e-17 	0.135313390981281 	0.0132540112904698 	0.786116365495153 	0.000117918217505171 	0
7.99999999999999 	2.51321620011054 	1.23599047663348e-17 	0.135740066299939 	0.012805230353491 	0.800973610076339 	0.000102899469091857 	0
7.99999999999999 	2.535599274427 	1.73472347597681e-18 	0.136138949094387 	0.0123817389652752 	0.819072874757583 	9.16784505717407e-05 	0
7.99999999999999 	2.55719136715571 	-1.73472347597681e-18 	0.136512059454148 	0.0119830141900274 	0.840672591270688 	8.46334590020232e-05 	0
7.99999999999999 	2.57802043030465 	-1.73472347597681e-18 	0.136861185533285 	0.0116087012094064 	0.866083333971801 	8.22304909170038e-05 	0
7.99999999999999 	2.59811342810315 	-8.67361737988404e-18 	0.137187917314593 	0.0112586063568179 	0.895673458675543 	8.50357276413934e-05 	0
7.99999999999999 	2.61749637190832 	-1.9298798670242e-17 	0.137493675675978 	0.0109326905551091 	0.929875356405621 	9.37290418533567e-05 	0
7.99999999999999 	2.63619435387806 	-2.64545330086463e-17 	0.137779737581171 	0.0106310614702643 	0.969192110083858 	0.000109117735669466 	0
7.99999999999999 	2.65423157945406 	-2.29850860566927e-17 	0.138047258066694 	0.0103539626125395 	1.01420423582444 	0.00013214939469592 	0
7.99999999999999 	2.67163139869691 	-1.95156391047391e-17 	0.138297289564627 	0.0101017574774049 	1.06557605307597 	0.000163922314969268 	0
7.99999999999999 	2.68841633651388 	-1.95156391047391e-17 	0.138530798979451 	0.00987490668982432 	1.124061067661 	0.000205691474170144 	0
7.99999999999999 	2.7046081218185 	-1.95156391047391e-17 	0.138748682822222 	0.00967393608982227 	1.19050558923055 	0.000258867561816912 	0
7.99999999999999 	2.72022771565972 	-2.29850860566927e-17 	0.138951780595164 	0.0094993938942212 	1.26584967762123 	0.000325006297425997 	0
7.99999999999999 	2.73529533835694 	-2.99239799605999e-17 	0.139140886516694 	0.00935179562438791 	1.35112448004758 	0.000405785347350668 	0
7.99999999999999 	2.74983049567625 	-3.33934269125535e-17 	0.139316759588048 	0.00923155652681278 	1.44744516175886 	0.000502966824571789 	0
7.99999999999999 	2.76385200408156 	-3.36102673470506e-17 	0.139480131938967 	0.00913891279594856 	1.55599903449253 	0.000618344810883251 	0
7.99999999999999 	2.77737801509343 	-3.38271077815477e-17 	0.139631715364095 	0.00907383497561648 	1.67802922254631 	0.000753679635934291 	0
7.99999999999999 	2.79042603878708 	-3.38271077815477e-17 	0.139772205983574 	0.00903593922046405 	1.8148152971214 	0.000910623602730874 	0
7.99999999999999 	2.80301296646003 	-3.03576608295941e-17 	0.139902287032017 	0.0090244041923261 	1.96765368658404 	0.00109064598179181 	0
7.99999999999999 	2.81515509249872 	-2.34187669256869e-17 	0.140022629887209 	0.00903790265324204 	2.13784214951258 	0.00129496765808479 	0
7.99999999999999 	2.82686813547237 	-1.99493199737333e-17 	0.140133893567562 	0.00907455671426312 	2.32667389468726 	0.00152451696759261 	0
7.99999999999999 	2.83816725848142 	-2.01661604082304e-17 	0.140236723022064 	0.00913192385809353 	2.53544773205588 	0.0017799173614837 	0
7.99999999999999 	2.84906708878691 	-2.40692882291782e-17 	0.14033174658016 	0.00920701736466908 	2.76550071353918 	0.00206151444972382 	0
7.99999999999999 	2.85958173674616 	-3.12250225675825e-17 	0.14041957291261 	0.00929636024611286 	3.01826907569988 	0.00236944531160336 	0
7.99999999999999 	2.86972481407933 	-2.77555756156289e-17 	0.14050078779883 	0.00939606727371558 	3.29538229169421 	0.00270374820185571 	0
7.99999999999999 	2.87950945149043 	-2.77555756156289e-17 	0.140575950959813 	0.00950194632353725 	3.59879448143532 	0.00306450832907066 	0
7.99999999999999 	2.88894831566566 	-3.46944695195361e-17 	0.14064559325423 	0.00960960900275777 	3.93095854689246 	0.0034520384394142 	0
7.99999999999999 	2.89805362567106 	-3.46944695195361e-17 	0.14071021452396 	0.00971458162715618 	4.29505266887387 	0.00386710477551607 	0
7.99999999999999 	2.90683716877067 	-3.81639164714898e-17 	0.140770282016134 	0.00981241036671233 	4.69527748540336 	0.00431123058602211 	0
7.99999999999999 	2.91531031568569 	-3.81639164714898e-17 	0.140826229221831 	0.00989875671436132 	5.13725566586245 	0.00478713372439879 	0
7.99999999999999 	2.92348403531448 	-4.16333634234434e-17 	0.140878456892091 	0.00996947805319397 	5.62858232603751 	0.00529935571821655 	0
7.99999999999999 	2.93136890893229 	-4.85722573273506e-17 	0.14092733235188 	0.0100206798432732 	6.17959230970768 	0.0058550771438212 	0
7.99999999999999 	2.93897514388925 	-5.55111512312578e-17 	0.140973182448285 	0.010048712914893 	6.80442894001336 	0.00646506324017583 	0
7.99999999999999 	2.94631258682425 	-5.89805981832114e-17 	0.141016286879557 	0.0100500806517243 	7.5225251803074 	0.0071447902296205 	0
7.99999999999999 	2.95339073641193 	-5.55111512312578e-17 	0.141056867481349 	0.0100212182963252 	8.36066393400641 	0.00791585572630405 	0
7.99999999999999 	2.96021875565915 	-5.20417042793042e-17 	0.141095069945074 	0.00995810311113533 	9.35591020544062 	0.00880756530588767 	0
7.99999999999999 	2.96680548376697 	-4.5102810375397e-17 	0.141130941155915 	0.00985564625845442 	10.5599232936271 	0.00985846428090506 	0
7.99999999999999 	2.97315944757337 	-4.16333634234434e-17 	0.141164439265762 	0.00970679164527568 	12.0455180317223 	0.0111180372381281 	0
7.99999999999999 	2.97928887259171 	-4.5102810375397e-17 	0.141195649212387 	0.0095011556771443 	13.9169976532783 	0.012687878871959 	0
7.99999999999999 	2.98520169365902 	-5.20417042793042e-17 	0.14122480660864 	0.00922008717922455 	16.3303952767084 	0.0145930270518448 	0
7.99999999999999 	2.99090556520806 	-5.55111512312578e-17 	0.141251470980261 	0.00883437710348828 	19.515570817498 	0.016910515800148 	0
7.99999999999999 	2.99640787117633 	-4.85722573273506e-17 	0.141274710841533 	0.0082994033672561 	23.8009572253245 	0.0195751356420967 	0
7.99999999999999 	3.00171573456492 	-4.16333634234434e-17 	0.141293981634245 	0.00755231570128661 	29.6760358466671 	0.0222985836543829 	0
7.99999999999999 	3.00683602665962 	-4.5102810375397e-17 	0.14130909298908 	0.00651577642623266 	37.9346884111616 	0.0243700146587837 	0
7.99999999999999 	3.01177537592612 	-4.85722573273506e-17 	0.141320028919413 	0.00511984243025871 	50.0839635100715 	0.024361470964113 	0
7.99999999999999 	3.01654017659085 	-4.85722573273506e-17 	0.141327240054571 	0.00336038637258976 	69.718539297806 	0.0185365370989766 	0
7.99999999999999 	3.02113659691864 	-4.85722573273506e-17 	0.141331557728753 	0.0016061122940192 	107.995415305565 	0.0084426635572684 	0
7.99999999999999 	3.02557058719784 	-4.85722573273506e-17 	0.141333943988448 	0.000477141978468743 	210.214091892553 	0.00169034372439493 	0
7.99999999999999 	3.02984788744324 	-4.85722573273506e-17 	0.141335354848764 	6.98832322075125e-05 	630.477794134408 	0.000109812110428978 	0
