# wallShearStress  FACE_DATA 55
#  x  y  z  wallShearStress_x  wallShearStress_y  wallShearStress_z  
0.0005 0.001 4.56962e-05 -31.9387 -6.61733e-18 6.49768e-17
0.0005 0.001 0.000132935 -31.7891 5.90302e-16 3.58225e-16
0.0005 0.001 0.000212242 -31.5231 6.69774e-16 3.0593e-17
0.0005 0.001 0.00028434 -31.1637 -3.83365e-16 -2.26139e-16
0.0005 0.001 0.000349883 -30.7289 -2.97923e-16 -2.3873e-16
0.0005 0.001 0.000409468 -30.2326 -5.01031e-16 2.56767e-17
0.0005 0.001 0.000463636 -29.6858 -1.56128e-16 1.76574e-16
0.0005 0.001 0.00051288 -29.0968 2.14792e-16 -2.09964e-17
0.0005 0.001 0.000557647 -28.4731 -5.04558e-17 5.83713e-17
0.0005 0.001 0.000598344 -27.8203 -6.4341e-17 -1.53522e-16
0.0005 0.001 0.000635342 -27.1397 -2.80899e-16 -1.76234e-16
0.0005 0.001 0.000668976 -26.4377 -2.62235e-16 -1.20246e-16
0.0005 0.001 0.000699553 -25.7172 -3.49558e-16 -1.00232e-16
0.0005 0.001 0.000727349 -24.9804 -3.24065e-16 -6.34966e-17
0.0005 0.001 0.000752619 -24.2271 -2.46444e-16 -2.04766e-18
0.0005 0.001 0.000775592 -23.456 -1.63601e-16 5.09678e-17
0.0005 0.001 0.000796476 -22.6666 -7.11891e-17 8.99518e-17
0.0005 0.001 0.000815462 -21.8584 -1.07657e-17 1.19713e-16
0.0005 0.001 0.000832721 -21.0306 3.88617e-18 1.66146e-16
0.0005 0.001 0.000848412 -20.1863 5.25442e-17 1.63813e-16
0.0005 0.001 0.000862676 -19.3284 5.9077e-17 1.06964e-16
0.0005 0.001 0.000875643 -18.4585 8.92059e-17 1.34887e-16
0.0005 0.001 0.000887432 -17.5776 8.51501e-17 1.31807e-16
0.0005 0.001 0.000898149 -16.6871 1.42815e-16 1.20706e-16
0.0005 0.001 0.000907891 -15.7891 1.44865e-16 9.04532e-17
0.0005 0.001 0.000916748 -14.887 2.04706e-16 3.90185e-17
0.0005 0.001 0.0009248 -13.9847 1.67888e-16 -1.97403e-17
0.0005 0.001 0.00093212 -13.0873 1.86121e-16 -7.24414e-17
0.0005 0.001 0.000938774 -12.2005 1.2198e-16 -9.43806e-17
0.0005 0.001 0.000944824 -11.3304 1.32752e-16 -1.03266e-16
0.0005 0.001 0.000950323 -10.4833 7.56529e-17 -1.27052e-16
0.0005 0.001 0.000955322 -9.66509 7.2589e-17 -1.79137e-16
0.0005 0.001 0.000959867 -8.88117 -1.42892e-17 -2.26165e-16
0.0005 0.001 0.000963999 -8.1355 -6.83537e-17 -2.12115e-16
0.0005 0.001 0.000967755 -7.43078 -1.42633e-16 -1.42739e-16
0.0005 0.001 0.00097117 -6.76827 -1.74395e-16 -3.07168e-17
0.0005 0.001 0.000974275 -6.14807 -1.70518e-16 7.30497e-17
0.0005 0.001 0.000977097 -5.56938 -1.45884e-16 1.31743e-16
0.0005 0.001 0.000979662 -5.03063 -1.02624e-16 1.46365e-16
0.0005 0.001 0.000981994 -4.52985 -6.50285e-17 1.25723e-16
0.0005 0.001 0.000984115 -4.06482 -3.27617e-17 9.22996e-17
0.0005 0.001 0.000986042 -3.63322 -1.27847e-17 5.89197e-17
0.0005 0.001 0.000987795 -3.23275 -1.13153e-18 3.31581e-17
0.0005 0.001 0.000989388 -2.86111 3.75027e-18 1.51505e-17
0.0005 0.001 0.000990836 -2.51615 5.24411e-18 5.02542e-18
0.0005 0.001 0.000992152 -2.19579 4.36387e-18 2.84504e-19
0.0005 0.001 0.000993349 -1.89803 3.34895e-18 -1.43776e-18
0.0005 0.001 0.000994437 -1.62102 2.19651e-18 -1.28814e-18
0.0005 0.001 0.000995426 -1.36294 1.57824e-18 -3.73404e-19
0.0005 0.001 0.000996325 -1.12204 1.3223e-18 7.44802e-19
0.0005 0.001 0.000997143 -0.896563 1.12416e-18 1.72936e-18
0.0005 0.001 0.000997886 -0.684686 8.23021e-19 2.40784e-18
0.0005 0.001 0.000998562 -0.484296 1.89601e-19 2.53344e-18
0.0005 0.001 0.000999176 -0.292476 -3.66275e-19 1.85016e-18
0.0005 0.001 0.000999734 -0.103888 -7.42872e-19 9.64743e-19
