1 	0.445956526297466 	3.46944695195361e-18 	-0.0775870679187894 	0.081698420030927 	-4.72106017287004e-18
1 	0.46234732385845 	1.04083408558608e-17 	-0.0753032361441952 	0.081614784440093 	-4.33688011365775e-18
1 	0.479305393851692 	1.38777878078145e-17 	-0.072694274295812 	0.0813522622731369 	2.6111845905008e-18
1 	0.496849260750541 	1.12757025938492e-17 	-0.0697614896848133 	0.0809089040899393 	4.87489120106309e-19
1 	0.514997982162077 	1.73472347597681e-18 	-0.0665178080906229 	0.0802423905307891 	-5.70407388927279e-21
1 	0.533771159822634 	-3.03576608295941e-18 	-0.0629590266957336 	0.0793686368067535 	9.38463574043335e-21
1 	0.553188950583503 	4.33680868994202e-19 	-0.0590812674521336 	0.078298999012245 	-2.71521009730244e-20
1 	0.573272077375821 	1.73472347597681e-18 	-0.0548841030711852 	0.0770244118181424 	-4.64926865781393e-19
1 	0.594041840144006 	4.33680868994202e-18 	-0.0503605438635003 	0.0755315073647931 	7.84204011220633e-19
1 	0.615520126737709 	1.04083408558608e-17 	-0.045485570293942 	0.0738001516499361 	2.8913678675187e-20
1 	0.637729423752996 	1.21430643318376e-17 	-0.0401927223527499 	0.0717994672435865 	-3.81138957479404e-19
1 	0.660692827314455 	1.56125112837913e-17 	-0.0343353170040812 	0.0694816901507365 	-8.25287629532519e-20
1 	0.684434053791114 	2.08166817117217e-17 	-0.0276424777837829 	0.0667769451014112 	1.09851312197248e-19
1 	0.708977450440528 	2.42861286636753e-17 	-0.0196995592112307 	0.0636002308464641 	2.65609250615311e-19
1 	0.734348005977129 	3.12250225675825e-17 	-0.00994472938945498 	0.0598687932784532 	-2.51313707777618e-19
1 	0.76011352763456 	3.46944695195361e-17 	0.00213412645810663 	0.0555885185746526 	-1.31865416376422e-19
1 	0.77344312796117 	3.46944695195361e-17 	0.00908225014269012 	0.0532326743213895 	-1.98727953602443e-19
1 	0.787719739601384 	3.46944695195361e-17 	0.0181430056508726 	0.050466732772214 	-2.2551531201299e-17
1 	0.815812717738129 	3.12250225675825e-17 	0.0385527396067288 	0.0447098206953501 	-1.71351027155642e-17
1 	0.844836267939995 	2.77555756156289e-17 	0.065200940486353 	0.0382433502641856 	2.12922385359493e-17
1 	0.87481837580106 	2.42861286636753e-17 	0.100134462322286 	0.0311774487152525 	1.58182134787009e-17
1 	0.905787716867529 	2.42861286636753e-17 	0.146548145138239 	0.023649092758668 	-3.71444643787235e-20
1 	0.937773667679239 	2.77555756156289e-17 	0.208088370438235 	0.0160357797756946 	1.88222241883365e-20
1 	0.97080631701754 	2.08166817117217e-17 	0.285523158289597 	0.00916176213933552 	-5.24287039540881e-18
1 	1.00491647740833 	2.08166817117217e-17 	0.375051017956464 	0.00398998534762833 	-5.30305632368781e-17
1 	1.04013569693589 	3.68628738645072e-17 	0.469602004445137 	0.00115120356552958 	-1.18628646355662e-15
1 	1.07649627143038 	3.59955121265187e-17 	0.560393052741108 	0.000756301917049183 	1.10676574402757e-15
1 	1.11403125709967 	1.99493199737333e-17 	0.63987225550183 	0.0019138988136195 	3.54531379618493e-17
1 	1.15277448368433 	1.90819582357449e-17 	0.704896156640117 	0.00362744926277191 	1.15828043178928e-19
1 	1.19276056822325 	2.77555756156289e-17 	0.755762268464247 	0.00516103824935993 	2.08898472624103e-20
1 	1.23402492952644 	2.94902990916057e-17 	0.795259082738218 	0.00614087729699044 	2.13785863582177e-20
1 	1.27660380346088 	2.08166817117217e-17 	0.827082696078185 	0.00654133687552287 	-3.06162979167381e-21
1 	1.31740766006914 	2.08166817117217e-17 	0.852684792745364 	0.00653430202131442 	-3.26906443553378e-20
1 	1.33971801747106 	2.77555756156289e-17 	0.865649771453954 	0.00644896052937318 	-2.50066753035198e-20
1 	1.36587618431243 	3.46944695195361e-17 	0.879800723343049 	0.00629751277308642 	-4.36685210524919e-20
1 	1.41265536205008 	4.16333634234434e-17 	0.904150219593533 	0.00603365409558282 	-3.62123067164857e-20
1 	1.46089676124087 	4.16333634234434e-17 	0.928092352603806 	0.00585194348385387 	7.15859959696187e-20
1 	1.51064074346823 	4.5102810375397e-17 	0.951724949916011 	0.00580636932279171 	1.00981544493041e-20
1 	1.56192862535948 	4.85722573273506e-17 	0.97491088604374 	0.00589537422071328 	-3.34730946342189e-17
1 	1.61480270751014 	6.11490025281825e-17 	0.997447705490686 	0.00608902126123911 	-4.79906026642913e-16
1 	1.66930630575571 	7.32920668600201e-17 	1.01910433661238 	0.00635671143333967 	5.4014642921097e-16
1 	1.72548378499528 	7.80625564189563e-17 	1.03972195007447 	0.00665904679267772 	2.12979713411277e-17
1 	1.78338059577956 	7.97972798949331e-17 	1.05920682895825 	0.00696288226342259 	-5.64024557096812e-20
1 	1.84304331388337 	7.28583859910259e-17 	1.07746776009026 	0.00724101979356019 	7.25989215353181e-21
1 	1.90451968308932 	6.59194920871187e-17 	1.09443862168696 	0.00746013341395438 	1.14107062044745e-20
1 	1.9460342271533 	6.41847686111419e-17 	1.10480136616843 	0.00756245599008341 	4.00362662208506e-21
1 	1.97817556573826 	6.76542155630955e-17 	1.11168034928362 	0.00762503222232313 	9.10785929208835e-22
1 	2.02025965173185 	6.93889390390723e-17 	1.12122907992623 	0.00766646929871778 	-1.24458884117589e-21
1 	2.06006301192217 	6.93889390390723e-17 	1.12983537887219 	0.00766474759968008 	0
1 	2.09845978584128 	6.93889390390723e-17 	1.13706181689053 	0.00762719078613213 	0
1 	2.13549967996946 	7.28583859910259e-17 	1.14350379386487 	0.00754837807152678 	0
1 	2.17123064424048 	7.97972798949331e-17 	1.14924709492896 	0.00743713078954721 	1.53039170154055e-16
1 	2.20569893411515 	8.32667268468867e-17 	1.15436663771547 	0.00729794240659762 	2.45067944767248e-16
1 	2.23894917046122 	8.32667268468867e-17 	1.15892727426748 	0.00713532932147543 	-2.5078535928025e-16
1 	2.27102439731726 	8.32667268468867e-17 	1.16298467088846 	0.00695363912123687 	-1.54450484302801e-16
1 	2.30196613761522 	8.32667268468867e-17 	1.1665862194887 	0.00675682892167499 	0
1 	2.33181444693392 	7.97972798949331e-17 	1.16977193918778 	0.00654840914775236 	0
1 	2.3606079653529 	6.93889390390723e-17 	1.1725753288419 	0.00633144221040339 	0
1 	2.38838396747391 	6.24500451351651e-17 	1.17502414189541 	0.00610855921522521 	0
1 	2.41517841067461 	6.24500451351651e-17 	1.17714106792015 	0.00588199010032597 	0
1 	2.44102598165722 	6.24500451351651e-17 	1.17894431556594 	0.00565360177486189 	0
1 	2.46596014135208 	6.24500451351651e-17 	1.18044809880408 	0.00542493915171994 	0
1 	2.49001316823444 	6.24500451351651e-17 	1.18166303280738 	0.00519726571037064 	0
1 	2.51321620011054 	6.24500451351651e-17 	1.18259644830804 	0.00497160161054768 	0
1 	2.535599274427 	5.89805981832114e-17 	1.18325263452273 	0.00474875829249158 	0
1 	2.55719136715571 	5.89805981832114e-17 	1.18363302132948 	0.00452936910606025 	0
1 	2.57802043030466 	6.59194920871187e-17 	1.18373631177288 	0.00431391590083276 	0
1 	2.59811342810315 	6.93889390390723e-17 	1.18355857647988 	0.00410275174437779 	0
1 	2.61749637190832 	6.24500451351651e-17 	1.1830933223833 	0.00389612006692159 	0
1 	2.63619435387806 	5.55111512312578e-17 	1.18233154935392 	0.00369417059699924 	0
1 	2.65423157945406 	5.55111512312578e-17 	1.18126180988546 	0.00349697248288101 	0
1 	2.67163139869691 	5.55111512312578e-17 	1.17987028865158 	0.00330452500880424 	0
1 	2.68841633651388 	5.89805981832114e-17 	1.1781409201554 	0.00311676632699421 	0
1 	2.70460812181851 	5.89805981832114e-17 	1.1760555631847 	0.00293358064445354 	0
1 	2.72022771565972 	5.55111512312578e-17 	1.17359424951372 	0.00275480433088103 	0
1 	2.73529533835695 	5.55111512312578e-17 	1.17073552025459 	0.00258023144903455 	0
1 	2.74983049567626 	5.55111512312578e-17 	1.16745685551016 	0.00240961924412417 	0
1 	2.76385200408157 	5.55111512312578e-17 	1.16373519094472 	0.00224269415207853 	0
1 	2.77737801509344 	5.55111512312578e-17 	1.15954749878263 	0.00207915888187723 	0
1 	2.79042603878708 	5.55111512312578e-17 	1.15487139193768 	0.00191870107820955 	0
1 	2.80301296646003 	5.55111512312578e-17 	1.14968569111315 	0.00176100396532155 	0
1 	2.81515509249873 	5.55111512312578e-17 	1.14397087939061 	0.00160575920818609 	0
1 	2.82686813547238 	5.55111512312578e-17 	1.13770936072438 	0.00145268201298807 	0
1 	2.83816725848143 	5.55111512312578e-17 	1.13088544043159 	0.0013015282480164 	0
1 	2.84906708878692 	5.55111512312578e-17 	1.12348495749931 	0.00115211312940108 	0
1 	2.85958173674617 	5.20417042793042e-17 	1.11549451782529 	0.0010043308134369 	0
1 	2.86972481407933 	4.85722573273506e-17 	1.10690029950346 	0.000858174091161075 	0
1 	2.87950945149043 	5.20417042793042e-17 	1.09768641995029 	0.000713753302124806 	0
1 	2.88894831566567 	5.20417042793042e-17 	1.08783286439768 	0.000571313596749682 	0
1 	2.89805362567107 	4.85722573273506e-17 	1.0773129719385 	0.000431249809629278 	0
1 	2.90683716877067 	4.85722573273506e-17 	1.06609045658847 	0.000294118224412878 	0
1 	2.9153103156857 	4.85722573273506e-17 	1.05411590412205 	0.000160644657869071 	0
1 	2.92348403531449 	5.20417042793042e-17 	1.04132263409991 	3.17286077605105e-05 	0
1 	2.9313689089323 	5.55111512312578e-17 	1.02762174846746 	-9.1556631976046e-05 	0
1 	2.93897514388925 	5.55111512312578e-17 	1.01289609053379 	-0.000207966460389261 	0
1 	2.94631258682425 	5.55111512312578e-17 	0.996992724562219 	-0.000316093974993821 	0
1 	2.95339073641193 	5.55111512312578e-17 	0.979713389230603 	-0.000414418862203698 	0
1 	2.96021875565916 	5.55111512312578e-17 	0.960802126242315 	-0.000501417870609708 	0
1 	2.96680548376697 	5.55111512312578e-17 	0.939912207388147 	-0.000575140280614216 	0
1 	2.97315944757337 	5.55111512312578e-17 	0.916534114071355 	-0.000632554803414846 	0
1 	2.97928887259171 	5.55111512312578e-17 	0.889952758173895 	-0.000670258618441753 	0
1 	2.98520169365903 	5.89805981832114e-17 	0.859276690568651 	-0.000684806597309675 	0
1 	2.99090556520807 	6.24500451351651e-17 	0.8234404885258 	-0.000674368961321521 	0
1 	2.99640787117633 	6.24500451351651e-17 	0.781140826489805 	-0.000638990546315973 	0
1 	3.00171573456492 	6.24500451351651e-17 	0.730769192064579 	-0.000580260930963899 	0
1 	3.00683602665963 	6.24500451351651e-17 	0.670380812848223 	-0.000501588795093783 	0
1 	3.01177537592613 	6.59194920871187e-17 	0.597628165554561 	-0.000408332296343608 	0
1 	3.01654017659085 	6.93889390390723e-17 	0.51005708989161 	-0.000307051229740901 	0
1 	3.02113659691864 	6.93889390390723e-17 	0.407355298905758 	-0.000205963092093371 	0
1 	3.02557058719784 	6.93889390390723e-17 	0.293900527180221 	-0.000116171054640434 	0
1 	3.02984788744324 	6.93889390390723e-17 	0.17637926248178 	-4.88322151129934e-05 	0
