1 	0.445956526297466 	3.46944695195361e-18 	0.0682362416962262 	0.0043807756220936 	1.57409643087466 	3.13267338745263e-05 	0
1 	0.46234732385845 	1.04083408558608e-17 	0.0681839148673807 	0.0045789076013887 	1.51761553337187 	4.38720993442674e-05 	0
1 	0.479305393851692 	1.38777878078145e-17 	0.0681423916592468 	0.00477882574737769 	1.46772450607735 	6.12499222173088e-05 	0
1 	0.496849260750541 	1.12757025938492e-17 	0.0681126966071443 	0.00498199813876859 	1.42374025238984 	8.36408455862183e-05 	0
1 	0.514997982162077 	1.73472347597681e-18 	0.0680964345916671 	0.00519220105154102 	1.38573429549499 	0.00011147053727272 	0
1 	0.533771159822634 	-3.03576608295941e-18 	0.0680936408661928 	0.00541178861649874 	1.35342202244432 	0.000144754022284733 	0
1 	0.553188950583503 	4.33680868994202e-19 	0.0681043958790588 	0.00564381808426149 	1.32715088032697 	0.000183636437829418 	0
1 	0.573272077375821 	1.73472347597681e-18 	0.0681290627816989 	0.00589358535536203 	1.30832777092176 	0.000228681977355276 	0
1 	0.594041840144006 	4.33680868994202e-18 	0.0681682853450017 	0.00616878049255717 	1.29987122311214 	0.000281193201760981 	0
1 	0.615520126737709 	1.04083408558608e-17 	0.0682239576717351 	0.00648105091407088 	1.3074754201551 	0.000344056425244747 	0
1 	0.637729423752996 	1.21430643318376e-17 	0.068300590358417 	0.00684867407272851 	1.34161318447636 	0.000423051858675962 	0
1 	0.660692827314455 	1.56125112837913e-17 	0.0684056552815625 	0.00729928546879353 	1.41824869186494 	0.000528468575650258 	0
1 	0.684434053791114 	2.08166817117217e-17 	0.0685469694307527 	0.00787058573820934 	1.55343018659967 	0.000676803321167648 	0
1 	0.708977450440528 	2.42861286636753e-17 	0.0687284040070998 	0.00860922623594035 	1.75045960072834 	0.000896167681839285 	0
1 	0.734348005977129 	3.12250225675825e-17 	0.0689486832817562 	0.00959380775994031 	2.00917447027549 	0.00123473083164781 	0
1 	0.76011352763456 	3.46944695195361e-17 	0.0691983860095815 	0.0109200805011949 	2.33609552103796 	0.0017605834686204 	0
1 	0.77344312796117 	3.46944695195361e-17 	0.069333480603931 	0.0117138597138651 	2.52459011948866 	0.00209644727832244 	0
1 	0.787719739601384 	3.46944695195361e-17 	0.06948431043383 	0.0127944742955168 	2.75941313464013 	0.00263126909430754 	0
1 	0.815812717738129 	3.12250225675825e-17 	0.0697875579638803 	0.0152475843887475 	3.26109616012847 	0.00401076467046684 	0
1 	0.844836267939995 	2.77555756156289e-17 	0.070118766126175 	0.018381894776766 	3.84180898140042 	0.00626940854858808 	0
1 	0.87481837580106 	2.42861286636753e-17 	0.0705149496478026 	0.0221769809339337 	4.49025530859312 	0.00999217447254357 	0
1 	0.905787716867529 	2.42861286636753e-17 	0.07103053662618 	0.0265071613340683 	5.19427511432833 	0.0155191880599989 	0
1 	0.937773667679239 	2.77555756156289e-17 	0.0716925380389845 	0.0310640999440633 	5.91330600928877 	0.0230780796622479 	0
1 	0.97080631701754 	2.08166817117217e-17 	0.0725204877125955 	0.035249797945313 	6.53177232826137 	0.0314020742059716 	0
1 	1.00491647740833 	2.08166817117217e-17 	0.0735134066987175 	0.0384494404214878 	6.88377043136703 	0.0375979846537714 	0
1 	1.04013569693589 	3.68628738645072e-17 	0.0746020591507836 	0.0403984721241381 	6.85623500266115 	0.0386694790279451 	0
1 	1.07649627143038 	3.59955121265187e-17 	0.0756500339479778 	0.0412327250590309 	6.40509024485997 	0.0340584488909222 	0
1 	1.11403125709967 	1.99493199737333e-17 	0.0765636604474228 	0.0414711669556731 	5.66142118674422 	0.0265207606883152 	0
1 	1.15277448368433 	1.90819582357449e-17 	0.0772961691332501 	0.0415225471922539 	4.79713793627688 	0.0188881515396374 	0
1 	1.19276056822325 	2.77555756156289e-17 	0.0778637465171707 	0.0416134177211647 	3.96158644498045 	0.0129630270306036 	0
1 	1.23402492952644 	2.94902990916057e-17 	0.0783002421998164 	0.0417948459935457 	3.25193826053299 	0.00912839222882866 	0
1 	1.27660380346088 	2.08166817117217e-17 	0.0786645299624439 	0.0420073485226355 	2.71460152115996 	0.00699529692497292 	0
1 	1.31740766006914 	2.08166817117217e-17 	0.0790323963455862 	0.0421474593759268 	2.3672125288157 	0.00598974367655414 	0
1 	1.33971801747106 	2.77555756156289e-17 	0.0792569063443049 	0.0421910408896606 	2.22157061020405 	0.00565663338193723 	0
1 	1.36587618431243 	3.46944695195361e-17 	0.0795859101726529 	0.0421545861879651 	2.10146699799293 	0.00544911111877141 	0
1 	1.41265536205008 	4.16333634234434e-17 	0.0802759512585072 	0.0419440627526614 	1.93275571354375 	0.00519616822671662 	0
1 	1.46089676124087 	4.16333634234434e-17 	0.0811398525816103 	0.0414691137487867 	1.80368071699281 	0.00497835673713794 	0
1 	1.51064074346823 	4.5102810375397e-17 	0.082158986381255 	0.0407045008316348 	1.69142285079228 	0.00469368747674921 	0
1 	1.56192862535948 	4.85722573273506e-17 	0.0833148839508229 	0.0396476692517471 	1.58570685596186 	0.00431951347759763 	0
1 	1.61480270751014 	6.11490025281825e-17 	0.084594955512023 	0.0383154735371593 	1.48333976772383 	0.00387484625652911 	0
1 	1.66930630575571 	7.32920668600201e-17 	0.0859986683401702 	0.0367269869695958 	1.38439586001057 	0.00338944184177652 	0
1 	1.72548378499528 	7.80625564189563e-17 	0.0875149513396551 	0.0349328089530716 	1.28965427106767 	0.00289575285736112 	0
1 	1.78338059577956 	7.97972798949331e-17 	0.0891261904818635 	0.0329898220510788 	1.19989929291987 	0.0024171486293258 	0
1 	1.84304331388337 	7.28583859910259e-17 	0.0908148848839187 	0.030950617155856 	1.11673946369306 	0.00196929970293142 	0
1 	1.90451968308932 	6.59194920871187e-17 	0.0925549303655658 	0.0288551525197994 	1.04040389328528 	0.00156528236159265 	0
1 	1.9460342271533 	6.41847686111419e-17 	0.0936976890525902 	0.027483389731846 	0.994111872873865 	0.00132691748682558 	0
1 	1.97817556573826 	6.76542155630955e-17 	0.0945287742388075 	0.0265134326876203 	0.963651419309941 	0.00117359176827119 	0
1 	2.02025965173185 	6.93889390390723e-17 	0.0957502402713186 	0.0251141780320951 	0.921869535626681 	0.000967296684215002 	0
1 	2.06006301192217 	6.93889390390723e-17 	0.0969063255316673 	0.0237943010544799 	0.885315399690391 	0.000793044421425774 	0
1 	2.09845978584128 	6.93889390390723e-17 	0.0979331381247539 	0.0226500785678894 	0.855892496165686 	0.000656814584386405 	0
1 	2.13549967996946 	7.28583859910259e-17 	0.0989088639892671 	0.0215989870947815 	0.830920384555957 	0.000543014917680939 	0
1 	2.17123064424048 	7.97972798949331e-17 	0.0998296186311665 	0.0206311997875168 	0.809962857937986 	0.000447999846746422 	0
1 	2.20569893411515 	8.32667268468867e-17 	0.100696814248552 	0.0197373735505685 	0.792654506006928 	0.000368568934078839 	0
1 	2.23894917046122 	8.32667268468867e-17 	0.101512777118586 	0.0189090209612908 	0.778694960731712 	0.000301990491737544 	0
1 	2.27102439731726 	8.32667268468867e-17 	0.102279819914225 	0.0181386659332815 	0.767843391781599 	0.000245990870703656 	0
1 	2.30196613761522 	8.32667268468867e-17 	0.103000289311826 	0.0174198619955253 	0.759913489060472 	0.000198717435638224 	0
1 	2.33181444693392 	7.97972798949331e-17 	0.103676554938259 	0.0167471320121021 	0.754768969187264 	0.000158690281682282 	0
1 	2.3606079653529 	6.93889390390723e-17 	0.104310959991229 	0.0161158699347759 	0.752319716742114 	0.00012475134056423 	0
1 	2.38838396747391 	6.24500451351651e-17 	0.104905788122063 	0.0155222303100894 	0.752518688366966 	9.60160081344668e-05 	0
1 	2.41517841067461 	6.24500451351651e-17 	0.105463243957768 	0.0149630204291273 	0.755359675900274 	7.18304126974297e-05 	0
1 	2.44102598165722 	6.24500451351651e-17 	0.10598544110086 	0.0144356027419567 	0.760875979863909 	5.17357838103629e-05 	0
1 	2.46596014135208 	6.24500451351651e-17 	0.106474395196869 	0.0139378106155944 	0.7691400069067 	3.54401882332381e-05 	0
1 	2.49001316823444 	6.24500451351651e-17 	0.106932020727355 	0.0134678778651801 	0.780263779188512 	2.27972353964092e-05 	0
1 	2.51321620011054 	6.24500451351651e-17 	0.107360130484287 	0.0130243810637174 	0.794400327443636 	1.37910491333521e-05 	0
1 	2.535599274427 	5.89805981832114e-17 	0.107760436948841 	0.0126061929520094 	0.81174592730035 	8.52669347113169e-06 	0
1 	2.55719136715571 	5.89805981832114e-17 	0.108134555017915 	0.0122124450008983 	0.832543124726838 	7.22521933231094e-06 	0
1 	2.57802043030466 	6.59194920871187e-17 	0.108484005678536 	0.0118424971141178 	0.857084475957922 	1.02224941824868e-05 	0
1 	2.59811342810315 	6.93889390390723e-17 	0.108810220341908 	0.0114959124757079 	0.885716895221151 	1.79709403853432e-05 	0
1 	2.61749637190832 	6.24500451351651e-17 	0.109114545629728 	0.01117243557073 	0.918846456119296 	3.10432105605329e-05 	0
1 	2.63619435387806 	5.55111512312578e-17 	0.109398248463365 	0.0108719714109087 	0.956943427193382 	5.01366550409488e-05 	0
1 	2.65423157945406 	5.55111512312578e-17 	0.109662521346194 	0.0105945639769603 	1.00054723929713 	7.60771899998723e-05 	0
1 	2.67163139869691 	5.55111512312578e-17 	0.109908487753762 	0.0103403718725324 	1.05027098713092 	0.000109820880416016 	0
1 	2.68841633651388 	5.89805981832114e-17 	0.110137207557726 	0.0101096392226506 	1.10680497253917 	0.000152451267345714 	0
1 	2.70460812181851 	5.89805981832114e-17 	0.110349682409607 	0.00990266001888673 	1.17091872696586 	0.000205170292412748 	0
1 	2.72022771565972 	5.55111512312578e-17 	0.110546861001884 	0.00971973450950992 	1.24346094255045 	0.000269280745635893 	0
1 	2.73529533835695 	5.55111512312578e-17 	0.110729644110188 	0.0095611169540716 	1.32535684747203 	0.000346158657827501 	0
1 	2.74983049567626 	5.55111512312578e-17 	0.110898889306094 	0.0094269551803246 	1.41760284213184 	0.00043721514196596 	0
1 	2.76385200408157 	5.55111512312578e-17 	0.111055415220846 	0.00931722389991977 	1.52125872604738 	0.000543848955759656 	0
1 	2.77737801509344 	5.55111512312578e-17 	0.111200005242294 	0.00923165554373416 	1.63743862424599 	0.000667393456461287 	0
1 	2.79042603878708 	5.55111512312578e-17 	0.111333410544383 	0.0091696742030731 	1.76730275006525 	0.000809064376715184 	0
1 	2.80301296646003 	5.55111512312578e-17 	0.1114563523818 	0.00913033970167106 	1.91205333136712 	0.000969917465165949 	0
1 	2.81515509249873 	5.55111512312578e-17 	0.111569523628132 	0.00911230939715594 	2.07293921921951 	0.00115082686359254 	0
1 	2.82686813547238 	5.55111512312578e-17 	0.111673589585891 	0.00911382460791126 	2.25127468935058 	0.00135249553740872 	0
1 	2.83816725848143 	5.55111512312578e-17 	0.111769188140284 	0.00913272640307934 	2.44847855648592 	0.00157550783187751 	0
1 	2.84906708878692 	5.55111512312578e-17 	0.111856929355546 	0.0091665020584553 	2.66613987572241 	0.00182043146345211 	0
1 	2.85958173674617 	5.20417042793042e-17 	0.111937394616486 	0.00921235931805071 	2.9061163085186 	0.00208797265071108 	0
1 	2.86972481407933 	4.85722573273506e-17 	0.112011135399338 	0.00926732149824874 	3.17067099779444 	0.00237918466684126 	0
1 	2.87950945149043 	5.20417042793042e-17 	0.112078671728021 	0.00932833321867937 	3.46265402336965 	0.00269572792428983 	0
1 	2.88894831566567 	5.20417042793042e-17 	0.112140490364812 	0.00939236468383497 	3.78573580727039 	0.00304017956454693 	0
1 	2.89805362567107 	4.85722573273506e-17 	0.112197042796528 	0.0094565021177643 	4.14470287125965 	0.0034163927555939 	0
1 	2.90683716877067 	4.85722573273506e-17 	0.112248743001722 	0.00951801288923481 	4.54583182930037 	0.00382991089879766 	0
1 	2.9153103156857 	4.85722573273506e-17 	0.112295965024198 	0.00957437363157468 	4.99736628335964 	0.00428844681379536 	0
1 	2.92348403531449 	5.20417042793042e-17 	0.1123390406211 	0.00962325447105209 	5.51013452492891 	0.00480244285812539 	0
1 	2.9313689089323 	5.55111512312578e-17 	0.112378257380313 	0.00966245363192546 	6.09836557188898 	0.00538573404344474 	0
1 	2.93897514388925 	5.55111512312578e-17 	0.112413857794172 	0.00968976756007402 	6.78079060507831 	0.00605632725718694 	0
1 	2.94631258682425 	5.55111512312578e-17 	0.112446036308372 	0.00970278708523941 	7.58216209399168 	0.00683729156378426 	0
1 	2.95339073641193 	5.55111512312578e-17 	0.11247492727671 	0.00969860021568045 	8.53539875677849 	0.00775771431638978 	0
1 	2.96021875565916 	5.55111512312578e-17 	0.112500619093855 	0.00967337021864876 	9.68468810993244 	0.00886141079981587 	0
1 	2.96680548376697 	5.55111512312578e-17 	0.112523355775116 	0.00962133928875973 	11.0907936390436 	0.0102096698083518 	0
1 	2.97315944757337 	5.55111512312578e-17 	0.112543597373346 	0.00953282425177823 	12.8395832161169 	0.0118627995775014 	0
1 	2.97928887259171 	5.55111512312578e-17 	0.11256132295198 	0.0093918827692916 	15.0498141697516 	0.0138859966609991 	0
1 	2.98520169365903 	5.89805981832114e-17 	0.112575971296944 	0.00917343031123962 	17.8784480090664 	0.0163199032554822 	0
1 	2.99090556520807 	6.24500451351651e-17 	0.112587239177707 	0.00883990778109045 	21.5336060777736 	0.0191251915734633 	0
1 	2.99640787117633 	6.24500451351651e-17 	0.112595242248871 	0.0083386825675109 	26.3068291725012 	0.0221251862230082 	0
1 	3.00171573456492 	6.24500451351651e-17 	0.112600314484039 	0.00760204717388912 	32.6435637089234 	0.0248843403649279 	0
1 	3.00683602665963 	6.24500451351651e-17 	0.112602905885542 	0.00655578853568974 	41.3264596063243 	0.0265491049671044 	0
1 	3.01177537592613 	6.59194920871187e-17 	0.112603575948292 	0.00514480897004278 	54.0397606723592 	0.0253289536379264 	0
1 	3.01654017659085 	6.93889390390723e-17 	0.112603056957602 	0.00343317780145264 	75.3900783588039 	0.0190889824274302 	0
1 	3.02113659691864 	6.93889390390723e-17 	0.112602100381266 	0.00177279509833106 	121.648338523551 	0.00974969250110731 	0
1 	3.02557058719784 	6.93889390390723e-17 	0.112601061129498 	0.000637874539923774 	268.960465100126 	0.00288656759521607 	0
1 	3.02984788744324 	6.93889390390723e-17 	0.112599913076236 	0.000141046103951599 	1135.40268619016 	0.000409914064090544 	0
