2 	0.00273779077457387 	6.93889390390723e-18 	0.149542363045812 	1.07182345074535e-05 	1635.7521534095 	4.14221543377401e-06 	4.13670345674198e-38
2 	0.00831366561724397 	3.46944695195361e-18 	0.149552294204888 	0.000109725169691798 	559.139690385524 	9.36414944144057e-05 	0
2 	0.0140938010840033 	0 	0.149565637567689 	0.000531908805001789 	138.027869520919 	0.000690117579180785 	0
2 	0.0200856798396766 	-1.04083408558608e-17 	0.149581817924356 	0.0015519411147919 	60.7702203197331 	0.00224276377029563 	0
2 	0.0262970586610136 	-1.73472347597681e-17 	0.149606421068872 	0.00313476885368585 	34.659460697716 	0.00359461266260401 	0
2 	0.0327359784782121 	-2.77555756156289e-17 	0.149646237710988 	0.00496025274260765 	22.4990218260148 	0.00328248787391257 	0
2 	0.0394107747842904 	-2.08166817117217e-17 	0.149704631099213 	0.00680383980137211 	15.9603737396816 	0.00202119578672361 	0
2 	0.0463300884257854 	-1.04083408558608e-17 	0.149779859541459 	0.00859178607009377 	12.178547494867 	0.00095296485767249 	0
2 	0.053502876788747 	-1.73472347597681e-17 	0.149867299160302 	0.0103078398245857 	9.84119047169285 	0.000388651409078967 	0
2 	0.0609384253945079 	-1.04083408558608e-17 	0.14996219031262 	0.0119521073817693 	8.29770125900549 	0.000205658359503902 	0
2 	0.0686463599202388 	3.46944695195361e-18 	0.150060845964198 	0.0135307236756757 	7.21654111213949 	0.000248948928406044 	0
2 	0.0766366586598532 	0 	0.150160652459756 	0.0150515990637182 	6.42136758192775 	0.00041919402479704 	0
2 	0.0849196654413917 	-6.93889390390723e-18 	0.150259737765786 	0.0165224176213705 	5.81314122619744 	0.000660798537416866 	0
2 	0.0935061030176072 	-6.93889390390723e-18 	0.150356703752157 	0.0179499147900156 	5.33309205092049 	0.0009430747100872 	0
2 	0.102407086947087 	-1.04083408558608e-17 	0.150450459991716 	0.0193397435570087 	4.94454797042524 	0.00124871472216056 	0
2 	0.111634139983881 	-1.04083408558608e-17 	0.150540120249252 	0.0206965586655214 	4.6235951825931 	0.0015676708748401 	0
2 	0.121199206994262 	-6.93889390390723e-18 	0.150624936285073 	0.0220241593500704 	4.35403505723162 	0.00189395413296103 	0
2 	0.131114670419936 	-6.93889390390723e-18 	0.150704256006185 	0.0233256311040615 	4.12453006612721 	0.00222392220322678 	0
2 	0.14139336630771 	0 	0.150777497867675 	0.0246034682350015 	3.92691810143276 	0.00255533449622929 	0
2 	0.152048600926373 	1.04083408558608e-17 	0.150844136159492 	0.0258596745649128 	3.75517823876629 	0.00288681349884459 	0
2 	0.163094167992309 	1.04083408558608e-17 	0.150903693794518 	0.0270958449034285 	3.60477447313659 	0.00321752933407125 	0
2 	0.174544366526125 	6.93889390390723e-18 	0.150955740505533 	0.0283132312535287 	3.47222678154763 	0.00354701166646503 	0
2 	0.186414019363428 	6.93889390390723e-18 	0.150999895140894 	0.0295127976636417 	3.35482341095075 	0.00387503728577165 	0
2 	0.198718492343699 	3.46944695195361e-18 	0.151035831233256 	0.0306952672081248 	3.25042351953573 	0.00420156476057641 	0
2 	0.211473714202121 	-6.93889390390723e-18 	0.151063285334146 	0.0318611641292601 	3.15731921005493 	0.0045267000242161 	0
2 	0.224696197190089 	-1.73472347597681e-17 	0.151082067832135 	0.0330108538320103 	3.07413761360185 	0.0048506837656878 	0
2 	0.238403058451124 	-1.73472347597681e-17 	0.151092076149488 	0.0341445832208715 	2.99977066677581 	0.00517389562563604 	0
2 	0.25261204217984 	-1.38777878078145e-17 	0.151093310372479 	0.0352625238089449 	2.93332454195754 	0.00549687278896255 	0
2 	0.267341542592663 	-1.04083408558608e-17 	0.151085891539375 	0.0363648201115074 	2.87408344194974 	0.00582034233765989 	0
2 	0.282610627740031 	-3.46944695195361e-18 	0.151070083013574 	0.0374516460622695 	2.82148426685811 	0.00614526811248782 	0
2 	0.298439064190913 	0 	0.151046315631921 	0.0385232725700632 	2.77509988182089 	0.00647291407596992 	0
2 	0.31484734262158 	-3.46944695195361e-18 	0.151015217667783 	0.0395801498903306 	2.73462958188743 	0.00680492745747306 	0
2 	0.331856704341784 	-3.46944695195361e-18 	0.150977651119898 	0.0406230092582727 	2.69989600651282 	0.00714344643671062 	0
2 	0.349489168792654 	-6.93889390390723e-18 	0.150934756472757 	0.0416529892793292 	2.6708482969296 	0.00749123891512223 	0
2 	0.367767562051934 	-1.73472347597681e-17 	0.150888008917302 	0.0426717939898882 	2.6475717850702 	0.00785188116389072 	0
2 	0.386715546383437 	-1.73472347597681e-17 	0.150839290094029 	0.0436818914260803 	2.63030501012332 	0.00822998794319974 	0
2 	0.406357650868994 	-1.38777878078145e-17 	0.150790980691604 	0.0446867641825234 	2.61946543162758 	0.00863150915267848 	0
2 	0.426719303162537 	-1.73472347597681e-17 	0.150746080833713 	0.0456912271279095 	2.61568590108109 	0.00906411223913714 	0
2 	0.447826862407422 	-2.42861286636753e-17 	0.150708368045249 	0.0467018326598848 	2.61986482490102 	0.00953767424660935 	0
2 	0.46970765335962 	-2.08166817117217e-17 	0.150682605614866 	0.0477273913682712 	2.63323405335257 	0.0100649108780863 	0
2 	0.49239000176093 	-1.73472347597681e-17 	0.15067479825241 	0.0487796468689285 	2.6574498863067 	0.0106621664738518 	0
2 	0.515903271008024 	-2.08166817117217e-17 	0.150692434838432 	0.0498741596846548 	2.69471412436225 	0.0113503678048196 	0
2 	0.540277900164783 	-2.42861286636753e-17 	0.150744824249077 	0.0510314792340783 	2.74793345312968 	0.0121561484001967 	0
2 	0.565545443367138 	-2.77555756156289e-17 	0.150844735948909 	0.0522783802686488 	2.82092521976784 	0.0131128536351786 	0
2 	0.59173861067142 	-2.42861286636753e-17 	0.151012490889665 	0.0536488845476931 	2.91866572416629 	0.0142843788813745 	0
2 	0.618891310399116 	-2.77555756156289e-17 	0.151255334117197 	0.0551897183956292 	3.04766028527809 	0.0158313814788194 	0
2 	0.647038693032828 	-3.81639164714898e-17 	0.151532600470119 	0.0569732096312707 	3.2165601531441 	0.0179620613405443 	0
2 	0.676217196720269 	-3.46944695195361e-17 	0.151846790569356 	0.0591050613906594 	3.43415738881613 	0.0209252915053257 	0
2 	0.706464594445211 	-2.42861286636753e-17 	0.152276749719307 	0.0616895889989469 	3.70063439633094 	0.0249736190822217 	0
2 	0.737820042926438 	-1.73472347597681e-17 	0.152869269478967 	0.064782115072799 	4.00289180858169 	0.0301200558762644 	0
2 	0.770324133308009 	-1.04083408558608e-17 	0.153608957396424 	0.0683681829916326 	4.324651028998 	0.0360782623681014 	0
2 	0.804018943706461 	-3.46944695195361e-18 	0.154432528022662 	0.0723193203544183 	4.64682446368856 	0.0423063474658532 	0
2 	0.838948093682961 	3.46944695195361e-18 	0.155259366679642 	0.0763616037114259 	4.94390307611675 	0.0481624293815877 	0
2 	0.87515680071094 	3.46944695195361e-18 	0.156038654216639 	0.080131989748406 	5.19550887247849 	0.053145962648633 	0
2 	0.912691938712296 	-3.46944695195361e-18 	0.156786296263597 	0.0832711275118499 	5.39216659529048 	0.05701137306575 	0
2 	0.951602098737956 	-3.46944695195361e-18 	0.15758576307699 	0.0854654007020158 	5.53069311994894 	0.0598184503858428 	0
2 	0.991937651871333 	3.46944695195361e-18 	0.158530494093529 	0.0864273411186863 	5.60798332777554 	0.0614782835964512 	0
2 	1.03375081443614 	6.93889390390723e-18 	0.159616455043515 	0.0858597405805689 	5.61335081377388 	0.0610166965890266 	0
2 	1.07709571559294 	0 	0.160721996580833 	0.0835106413123395 	5.52101163822477 	0.0574090806975063 	0
2 	1.11564075532615 	-6.93889390390723e-18 	0.161626289711579 	0.0800761997019201 	5.34012428172933 	0.051642171418372 	0
2 	1.13851123407101 	-1.38777878078145e-17 	0.162134824467102 	0.0775951518290227 	5.19328298197329 	0.0473494551857711 	0
2 	1.16860723751286 	-1.38777878078145e-17 	0.162777888241909 	0.0739562475156388 	4.94066004171582 	0.041098823087275 	0
2 	1.2168923243656 	-3.46944695195361e-18 	0.163795398090146 	0.0680290909640816 	4.48200551757694 	0.0313233308841594 	0
2 	1.26694623534962 	0 	0.164855587882502 	0.0622740171804639 	3.98339012477765 	0.0227606562959814 	0
2 	1.31883376767274 	-3.46944695195361e-18 	0.165892975179875 	0.0569471862691023 	3.49035069350822 	0.0161576023620136 	0
2 	1.37262209225426 	-1.38777878078145e-17 	0.166763242046514 	0.0522799621099344 	3.05893884460567 	0.0116455449954102 	0
2 	1.41220272459525 	-2.42861286636753e-17 	0.167380753564656 	0.0488456327536348 	2.76746808431655 	0.0090249339131403 	0
2 	1.43617694926587 	-3.12250225675825e-17 	0.16778230188741 	0.0465585925246985 	2.59789011308442 	0.00764767213810378 	0
2 	1.45930396367274 	-3.81639164714898e-17 	0.168104775162162 	0.0446618753074823 	2.47595776117492 	0.00670471836211998 	0
2 	1.48161370685419 	-4.16333634234434e-17 	0.168404445961053 	0.0428592285712939 	2.3744237305126 	0.00590753566203209 	0
2 	1.50313505985141 	-3.46944695195361e-17 	0.168681958620524 	0.0411364501195176 	2.28909672170473 	0.00521754898799058 	0
2 	1.52389588309639 	-2.77555756156289e-17 	0.168938288453142 	0.0394849452204614 	2.21700537666686 	0.00460822639798056 	0
2 	1.54392305247858 	-3.12250225675825e-17 	0.169174508688086 	0.0378998358152454 	2.1561006272277 	0.0040622320391709 	0
2 	1.56324249413704 	-2.77555756156289e-17 	0.16939165710162 	0.0363784112148925 	2.10496645555141 	0.00356815682748549 	0
2 	1.58187921802306 	-2.08166817117217e-17 	0.169590764478496 	0.0349191197454393 	2.06262345430888 	0.00311835741242564 	0
2 	1.5998573502768 	-2.08166817117217e-17 	0.169772862756948 	0.0335209399746758 	2.02839824611706 	0.00270758085504942 	0
2 	1.61720016445966 	-2.08166817117217e-17 	0.169938978435715 	0.0321830098742811 	2.00183799044641 	0.00233209888489081 	0
2 	1.63393011168312 	-2.08166817117217e-17 	0.170090125635911 	0.0309044268693361 	1.98265537706977 	0.00198917014505463 	0
2 	1.65006884967274 	-2.08166817117217e-17 	0.170227300549253 	0.0296841577993761 	1.97069415580405 	0.00167671248021591 	0
2 	1.66563727080512 	-1.73472347597681e-17 	0.170351476948599 	0.0285210169319659 	1.96590855784752 	0.00139310969247418 	0
2 	1.68065552915415 	-6.93889390390723e-18 	0.170463602509182 	0.027413683899149 	1.9683522437764 	0.00113710445762256 	0
2 	1.69514306658136 	0 	0.170564595707632 	0.0263607431100017 	1.97817396026165 	0.000907746637054472 	0
2 	1.70911863790442 	0 	0.170655343111732 	0.0253607328970104 	1.99561812829749 	0.000704377575836345 	0
2 	1.72260033517611 	0 	0.170736696949494 	0.0244121971986147 	2.02102928257779 	0.000526638339572326 	0
2 	1.73560561110537 	0 	0.170809472909076 	0.0235137355767699 	2.05485974618451 	0.000374494591431632 	0
2 	1.74815130165068 	0 	0.170874448160398 	0.0226640492646331 	2.09768023119048 	0.00024827382022373 	0
2 	1.76025364781503 	0 	0.170932359609185 	0.0218619820568568 	2.15019325172394 	0.00014871245024681 	0
2 	1.77192831667065 	0 	0.170983902400465 	0.0211065554196505 	2.21324935025977 	7.70113315632298e-05 	0
2 	1.78319042164084 	0 	0.171029728686579 	0.0203969973663955 	2.28786618586803 	3.48984243134935e-05 	0
2 	1.79405454206499 	0 	0.171070446668822 	0.0197327645259974 	2.37525052120799 	2.4697264270243e-05 	0
2 	1.80453474207227 	0 	0.171106619915041 	0.0191135565054077 	2.47682307409769 	4.93990963586063e-05 	0
2 	1.81464458878829 	0 	0.171138766950272 	0.0185393211841237 	2.59424606907544 	0.000112735455240581 	0
2 	1.82439716989841 	0 	0.171167361115396 	0.0180102490530979 	2.72945313817633 	0.000219246574303904 	0
2 	1.83380511059041 	0 	0.171192830690916 	0.0175267542230699 	2.88468099341785 	0.000374339540447817 	0
2 	1.84288058989839 	0 	0.171215559289625 	0.0170894394143863 	3.06250206250024 	0.000584328965422154 	0
2 	1.8516353564691 	0 	0.171235886532709 	0.0166990422788356 	3.26585711139931 	0.000856452681229551 	0
2 	1.86008074377114 	0 	0.171254109036981 	0.0163563609963292 	3.49808687855352 	0.00119885628837929 	0
2 	1.8682276847667 	0 	0.171270481753564 	0.0160621584198697 	3.76296205707221 	0.00162054396432559 	0
2 	1.87608672606481 	0 	0.171285219706203 	0.01581704620112 	4.06471174270485 	0.00213129912056421 	0
2 	1.88366804157438 	0 	0.171298500175865 	0.0156213532121743 	4.40805185076433 	0.00274158691510419 	0
2 	1.89098144567491 	0 	0.171310465363357 	0.0154749858013678 	4.79821704561561 	0.0034624598957341 	0
2 	1.89803640592159 	0 	0.17132122553217 	0.0153772902960912 	5.2410023321796 	0.00430549576543541 	0
2 	1.90484205530156 	0 	0.171330862594473 	0.0153269298157928 	5.74282338425803 	0.00528279953067472 	0
2 	1.91140720405699 	0 	0.171339434066599 	0.0153217870699063 	6.31080759317587 	0.0064070987588017 	0
2 	1.91774035109036 	0 	0.171346977281956 	0.0153589019792503 	6.9529304513727 	0.00769194964606511 	0
2 	1.92384969496671 	0 	0.171353513649061 	0.0154344479523795 	7.67821428368682 	0.00915205462391257 	0
2 	1.92974314452706 	0 	0.171359052706355 	0.0155437444941599 	8.49700905427383 	0.0108036725277863 	0
2 	1.93542832912681 	0 	0.171363596701097 	0.0156812980630064 	9.4213790986243 	0.0126650832433721 	0
2 	1.9409126085123 	0 	0.171367147602189 	0.0158408593576213 	10.4656265228789 	0.0147570501838942 	0
2 	1.94620308234836 	0 	0.171369707634837 	0.0160154848897598 	11.6469928543314 	0.0171035911565166 	0
2 	1.95130659940914 	0 	0.171371239734246 	0.0161975897655925 	12.9866114145892 	0.019769775841645 	0
2 	1.95622976644425 	0 	0.171371703357828 	0.016378466860296 	14.512587544865 	0.0228376652472147 	0
2 	1.96097895673142 	0 	0.171371270295628 	0.0165474953943827 	16.2639790121874 	0.0263283871130006 	0
2 	1.96556031832711 	0 	0.171370130322068 	0.0166913872451954 	18.2858885846364 	0.0303127345317778 	0
2 	1.96997978202541 	0 	0.171368215782865 	0.0167922926584143 	20.6225627657218 	0.0347845614715775 	0
2 	1.97424306903576 	0 	0.171365406353976 	0.016828491711556 	23.3233613559657 	0.0397085067232949 	0
2 	1.9783556983893 	0 	0.171361691376881 	0.0167754127117652 	26.4537804083556 	0.0450800807342706 	0
2 	1.98232299408358 	0 	0.171357165042101 	0.01660501055516 	30.1054043493027 	0.0508897042143958 	0
2 	1.9861500919747 	0 	0.171351984529432 	0.0162842275583232 	34.4073422361937 	0.0570874450481229 	0
2 	1.9898419464259 	0 	0.171346340743403 	0.0157729858113674 	39.542954394359 	0.0635282279428593 	0
2 	1.99340333672127 	-3.46944695195361e-18 	0.17134044915951 	0.015022361417025 	45.7773251110223 	0.0698785817037718 	0
2 	1.99683887325274 	-1.38777878078145e-17 	0.171334545708876 	0.0139746215980654 	53.5070860290042 	0.0754981186196872 	0
2 	2.00015300348845 	-2.08166817117217e-17 	0.171328863387455 	0.0125677362895717 	63.3656512115798 	0.0792836724087364 	0
2 	2.00335001773022 	-1.73472347597681e-17 	0.171323616461977 	0.010747818289495 	76.4752413166252 	0.079361695979688 	0
2 	2.00643405466757 	-1.38777878078145e-17 	0.171319014792207 	0.0084989715291883 	95.0981491820315 	0.0721726114159639 	0
2 	2.00940910673543 	-1.38777878078145e-17 	0.171315247133092 	0.00594298128983646 	124.519965129828 	0.0545917331055749 	0
2 	2.01227902528252 	-1.73472347597681e-17 	0.171312412364971 	0.00346839022091859 	179.409370374545 	0.031067989723456 	0
2 	2.01504752555717 	-2.08166817117217e-17 	0.171310385518553 	0.00158518843077689 	308.625657356095 	0.0119588109871648 	0
2 	2.01771819151684 	-2.08166817117217e-17 	0.171308809285012 	0.000527050129081945 	728.150953191684 	0.00276864472941954 	0
2 	2.02029448046774 	-2.08166817117217e-17 	0.171307382646726 	0.000113463959248913 	3187.85377277479 	0.000328145753384089 	0
2 	2.02277972754048 	-2.08166817117217e-17 	0.171306334716773 	1.21727496021575e-05 	7787.64822676109 	1.39865154125072e-05 	5.47979189690728e-38
