2 	0.0664216437126051 	2.77555756156289e-17 	-0.0112132274585555 	0.0033938480335194 	1.73687769648485e-17
2 	0.0743099414758449 	2.42861286636753e-17 	-0.0340360458485589 	0.0103280918526686 	4.29724060738619e-17
2 	0.0824857562919155 	1.73472347597681e-17 	-0.0574667748783676 	0.0175595990662554 	3.06432817170216e-17
2 	0.0909595122039638 	1.38777878078145e-17 	-0.0806964788652408 	0.024889411545324 	4.34546673039816e-18
2 	0.0997420070153233 	1.38777878078145e-17 	-0.101674944315934 	0.0317136610784784 	-3.30202758079607e-18
2 	0.108844425376383 	2.08166817117217e-17 	-0.118129936803602 	0.0373253472008241 	2.39401802991514e-18
2 	0.118278352305667 	2.77555756156289e-17 	-0.129515241660621 	0.0415066872641405 	1.68167974136485e-19
2 	0.128055787157649 	2.77555756156289e-17 	-0.136822038067439 	0.0445158651137704 	2.30303437198654e-20
2 	0.138189158050046 	2.77555756156289e-17 	-0.141284405923759 	0.0467094714120442 	-1.30651892454249e-18
2 	0.148691336763498 	3.46944695195361e-17 	-0.143812959167119 	0.048357052588373 	1.0394648717177e-18
2 	0.15957565412677 	4.16333634234434e-17 	-0.144988219986938 	0.049630678421663 	3.11151764753226e-20
2 	0.170855915900726 	4.16333634234434e-17 	-0.145170707890253 	0.0506367497635152 	4.0887647590557e-20
2 	0.18254641917452 	4.16333634234434e-17 	-0.144587793533498 	0.0514422522755512 	-1.08676980299697e-20
2 	0.194661969287546 	4.16333634234434e-17 	-0.143386657976774 	0.0520906659017924 	-2.9006965734737e-20
2 	0.207217897290811 	4.5102810375397e-17 	-0.141664896440923 	0.0526110316397209 	2.16261345671757e-20
2 	0.220230077961468 	3.81639164714898e-17 	-0.139488301909841 	0.0530231589741918 	-4.39709394610222e-21
2 	0.233714948384304 	2.77555756156289e-17 	-0.13690146595747 	0.0533406935571092 	-5.45966542809944e-19
2 	0.247689527113999 	2.77555756156289e-17 	-0.133934295967849 	0.0535729733990399 	1.06117862679657e-18
2 	0.262171433931949 	3.12250225675825e-17 	-0.1306061431685 	0.0537261778538144 	1.92988296095926e-20
2 	0.277178910211394 	3.81639164714898e-17 	-0.126928484224906 	0.0538040486371459 	-5.0653935573732e-19
2 	0.292730839904512 	4.5102810375397e-17 	-0.122906693174162 	0.0538083406207792 	-1.45735637746358e-20
2 	0.308846771164956 	4.85722573273506e-17 	-0.118541214758369 	0.0537390930069774 	1.96072668397239e-23
2 	0.325546938619131 	4.85722573273506e-17 	-0.113828319000062 	0.0535947731217977 	-4.29731913421044e-21
2 	0.34285228629926 	4.5102810375397e-17 	-0.108760535081005 	0.0533723220796598 	2.35129983538693e-19
2 	0.360784491250926 	4.44522890719057e-17 	-0.103324261071177 	0.053062642074094 	-1.99056068889001e-19
2 	0.379365987827405 	4.18502038579405e-17 	-0.0975002043320048 	0.0526520855682493 	-2.14416917642676e-19
2 	0.398619992682607 	3.68628738645072e-17 	-0.0912751254198645 	0.0521432136726868 	2.25524077323144e-21
2 	0.418570530473901 	3.51281503885303e-17 	-0.0846244688750106 	0.0515254465115514 	-2.2619972635242e-18
2 	0.439242460285389 	3.64291929955129e-17 	-0.0775166413528924 	0.0507855678271269 	-3.16355230837215e-18
2 	0.460661502781484 	4.25007251614318e-17 	-0.0699101586699519 	0.0499071708803324 	3.66935729299014e-18
2 	0.482854268099713 	4.33680868994202e-17 	-0.0617490320827236 	0.0488699279041645 	4.3008723942798e-18
2 	0.505848284490675 	4.85722573273506e-17 	-0.0529553009768649 	0.0476486433105609 	-2.81605463625611e-20
2 	0.529672027711962 	5.46437894932694e-17 	-0.0434167983239355 	0.0462122398031691 	-1.68402280573775e-19
2 	0.554354951181479 	5.29090660172926e-17 	-0.0329670921981766 	0.0445232221236522 	3.35269199542298e-19
2 	0.579927516894232 	5.20417042793042e-17 	-0.0213567687731243 	0.0425376486203339 	1.42361920262159e-21
2 	0.606421227104929 	4.85722573273506e-17 	-0.00823749570969905 	0.0402044727118964 	-1.83999807945033e-19
2 	0.633868656776939 	4.16333634234434e-17 	0.00680962953855494 	0.0374726309088897 	-4.85002133662203e-20
2 	0.662303486796109 	3.64291929955129e-17 	0.0242481297560374 	0.03430088441319 	-1.37976350811035e-19
2 	0.691760537945634 	4.16333634234434e-17 	0.0446216407706064 	0.0306561614758409 	3.19322276117494e-19
2 	0.722275805635659 	5.20417042793042e-17 	0.0687158592746032 	0.0264994936995413 	-1.43246896202868e-19
2 	0.753886495378464 	5.89805981832114e-17 	0.0981288240050548 	0.0217334814410141 	-4.39114390531949e-17
2 	0.786631058997021 	6.59194920871187e-17 	0.135208545671652 	0.0162175369509502 	-1.18675984475858e-16
2 	0.82054923155121 	5.89805981832114e-17 	0.181730116682586 	0.0100209119771123 	1.05498018041566e-16
2 	0.855682068962276 	5.20417042793042e-17 	0.23782299817617 	0.00349303519609405 	5.525986204006e-17
2 	0.892071986311896 	5.20417042793042e-17 	0.302019705257796 	-0.0028108992367518 	5.69861363040354e-20
2 	0.928081053775882 	4.85722573273506e-17 	0.368889645418926 	-0.00807209921482348 	4.49819612731956e-20
2 	0.947260911195196 	4.5102810375397e-17 	0.405092253665664 	-0.0105286220176753 	1.8254902670359e-21
2 	0.968848502846582 	4.5102810375397e-17 	0.445816116659352 	-0.0125027985568567 	4.27364763260144e-20
2 	1.00935908655054 	3.81639164714898e-17 	0.521305427146423 	-0.015233396817632 	-1.6249928441889e-20
2 	1.05130628800602 	2.42861286636753e-17 	0.595366363206792 	-0.0164878917732939 	-1.48534076860401e-19
2 	1.09473925151454 	2.77555756156289e-17 	0.663530920153061 	-0.0166146609270372 	6.26405515413937e-20
2 	1.1397086678108 	2.77555756156289e-17 	0.722122890854314 	-0.0161396474571158 	1.21349585142736e-20
2 	1.18626681244448 	1.38777878078145e-17 	0.769923248733622 	-0.0155468735422777 	5.55016446191832e-21
2 	1.23446758427968 	3.46944695195361e-18 	0.808108524407737 	-0.0151365426345907 	1.40518885358959e-20
2 	1.28436654402848 	-6.93889390390723e-18 	0.839105848162622 	-0.0150053742489047 	6.71017405254334e-20
2 	1.33602095272612 	-1.04083408558608e-17 	0.865416121319708 	-0.0151138583950496 	-1.09644395782732e-19
2 	1.38948981004627 	-1.04083408558608e-17 	0.88898042547583 	-0.0153628617143961 	5.08594825826862e-20
2 	1.44483389234439 	-1.73472347597681e-17 	0.911057610243945 	-0.0156465394914696 	1.8364716385301e-20
2 	1.50211579030683 	-2.90566182226115e-17 	0.93233669061495 	-0.0158780379401166 	3.18964831822011e-20
2 	1.56139994607132 	-4.11996825544492e-17 	0.953094335446617 	-0.0159977444482987 	-2.81273961691867e-20
2 	1.62275268967252 	-4.59701721133854e-17 	0.97335469614048 	-0.0159758444175283 	-6.53956313066386e-22
2 	1.68624227465269 	-4.9439619065339e-17 	0.993011844165235 	-0.0158059858372307 	-2.05293706334772e-20
2 	1.7519389126638 	-5.20417042793042e-17 	1.0119090224446 	-0.0154918496237094 	6.17017202470865e-20
2 	1.81991480687205 	-5.03069808033274e-17 	1.0298858926991 	-0.0150427826525597 	2.40690648468422e-20
2 	1.89024418395974 	-5.20417042793042e-17 	1.0467883822222 	-0.0144728687532872 	-4.7241950789609e-21
2 	1.96300332450249 	-4.85722573273506e-17 	1.06186026763536 	-0.0138318824180957 	-8.5517186959365e-21
2 	2.02025965173184 	-4.16333634234434e-17 	1.07292934117048 	-0.0132731776881666 	-7.19788208379121e-22
2 	2.06006301192217 	-4.16333634234434e-17 	1.08059167428628 	-0.0128285802746801 	0
2 	2.09845978584128 	-4.16333634234434e-17 	1.08691417228621 	-0.0124193970881422 	0
2 	2.13549967996945 	-4.16333634234434e-17 	1.09254863222952 	-0.0120234038119688 	0
2 	2.17123064424048 	-4.16333634234434e-17 	1.09755638222535 	-0.0116397738906636 	0
2 	2.20569893411515 	-4.16333634234434e-17 	1.10199223242677 	-0.0112696565960709 	0
2 	2.23894917046122 	-4.16333634234434e-17 	1.10590478821729 	-0.0109137323079856 	0
2 	2.27102439731725 	-4.16333634234434e-17 	1.10933680737365 	-0.0105721370376026 	0
2 	2.30196613761521 	-4.5102810375397e-17 	1.11232557149275 	-0.0102446672026123 	0
2 	2.33181444693391 	-4.5102810375397e-17 	1.1149032589268 	-0.00993089789867377 	0
2 	2.3606079653529 	-3.81639164714898e-17 	1.11709730836786 	-0.00963025655688397 	0
2 	2.3883839674739 	-3.12250225675825e-17 	1.11893076473889 	-0.00934208173286197 	0
2 	2.41517841067461 	-2.77555756156289e-17 	1.1204226018509 	-0.00906566896410227 	0
2 	2.44102598165722 	-2.42861286636753e-17 	1.12158801883302 	-0.00880030457114281 	0
2 	2.46596014135207 	-2.42861286636753e-17 	1.12243870981876 	-0.00854528962172005 	0
2 	2.49001316823443 	-2.42861286636753e-17 	1.12298310883151 	-0.00829995625032504 	0
2 	2.51321620011054 	-2.42861286636753e-17 	1.12322661419164 	-0.0080636781794583 	0
2 	2.535599274427 	-2.77555756156289e-17 	1.12317179896946 	-0.00783587696501864 	0
2 	2.55719136715571 	-2.42861286636753e-17 	1.12281861591488 	-0.00761602518014909 	0
2 	2.57802043030465 	-2.08166817117217e-17 	1.12216460673938 	-0.00740364745582092 	0
2 	2.59811342810315 	-2.08166817117217e-17 	1.12120512636894 	-0.0071983200223907 	0
2 	2.61749637190832 	-2.08166817117217e-17 	1.11993359249853 	-0.00699966915032448 	0
2 	2.63619435387806 	-2.42861286636753e-17 	1.11834176906349 	-0.00680736867300799 	0
2 	2.65423157945406 	-3.12250225675825e-17 	1.1164200887012 	-0.00662113659346174 	0
2 	2.67163139869691 	-3.12250225675825e-17 	1.11415801362415 	-0.00644073063614692 	0
2 	2.68841633651388 	-3.12250225675825e-17 	1.11154442656404 	-0.00626594251452159 	1.82603571049213e-16
2 	2.7046081218185 	-3.81639164714898e-17 	1.10856803403383 	-0.00609659065611881 	1.75319739103897e-16
2 	2.72022771565972 	-4.16333634234434e-17 	1.10521775412759 	-0.00593251116960812 	-1.97101855791641e-16
2 	2.73529533835694 	-4.16333634234434e-17 	1.10148305202596 	-0.00577354695591716 	-1.8981802384631e-16
2 	2.74983049567626 	-4.16333634234434e-17 	1.09735418020136 	-0.00561953504976924 	0
2 	2.76385200408157 	-4.5102810375397e-17 	1.09282227878751 	-0.00547029250621178 	0
2 	2.77737801509343 	-4.85722573273506e-17 	1.08787929575486 	-0.00532560138316811 	0
2 	2.79042603878708 	-5.20417042793042e-17 	1.08251769630245 	-0.00518519357369546 	0
2 	2.80301296646003 	-5.55111512312578e-17 	1.07672994477443 	-0.00504873637256958 	0
2 	2.81515509249872 	-5.55111512312578e-17 	1.07050775789109 	-0.00491581969816807 	0
2 	2.82686813547237 	-5.55111512312578e-17 	1.06384114216371 	-0.00478594583188716 	0
2 	2.83816725848142 	-5.55111512312578e-17 	1.05671723841718 	-0.00465852240630958 	0
2 	2.84906708878691 	-5.55111512312578e-17 	1.04911900078698 	-0.00453285920975096 	0
2 	2.85958173674616 	-5.55111512312578e-17 	1.04102373615299 	-0.00440816922343663 	0
2 	2.86972481407933 	-5.55111512312578e-17 	1.03240152375056 	-0.00428357421288029 	0
2 	2.87950945149043 	-5.55111512312578e-17 	1.02321352552977 	-0.00415811521944506 	0
2 	2.88894831566566 	-5.55111512312578e-17 	1.01341018783285 	-0.00403076846324689 	0
2 	2.89805362567106 	-5.55111512312578e-17 	1.00292932585872 	-0.00390046696723699 	0
2 	2.90683716877067 	-5.55111512312578e-17 	0.991694074875552 	-0.00376612656153215 	0
2 	2.91531031568569 	-5.55111512312578e-17 	0.979610685248779 	-0.00362667728224145 	0
2 	2.92348403531448 	-5.55111512312578e-17 	0.966566129643478 	-0.00348112822194536 	0
2 	2.93136890893229 	-5.55111512312578e-17 	0.952425415329215 	-0.00332873223447881 	0
2 	2.93897514388925 	-5.89805981832114e-17 	0.93701333037146 	-0.00316849636613233 	0
2 	2.94631258682425 	-5.89805981832114e-17 	0.920062303817217 	-0.00299808388388708 	0
2 	2.95339073641193 	-5.20417042793042e-17 	0.901210882426696 	-0.00281474457149606 	0
2 	2.96021875565915 	-4.85722573273506e-17 	0.880070350186192 	-0.00261641007532546 	0
2 	2.96680548376697 	-5.20417042793042e-17 	0.856248590115064 	-0.00240321757182334 	0
2 	2.97315944757337 	-5.55111512312578e-17 	0.829332575550269 	-0.00217715395847168 	0
2 	2.97928887259171 	-5.55111512312578e-17 	0.798860756590376 	-0.00194132117368603 	0
2 	2.98520169365902 	-5.89805981832114e-17 	0.764290921077569 	-0.00169971285753649 	0
2 	2.99090556520806 	-6.24500451351651e-17 	0.724953300080754 	-0.00145698613342385 	0
2 	2.99640787117633 	-6.24500451351651e-17 	0.679994678579528 	-0.00121810544964484 	0
2 	3.00171573456492 	-6.59194920871187e-17 	0.628354366654769 	-0.000988228879045012 	0
2 	3.00683602665962 	-6.93889390390723e-17 	0.568746271337925 	-0.000772446693116618 	0
2 	3.01177537592612 	-6.93889390390723e-17 	0.49958523213188 	-0.000574880969530477 	0
2 	3.01654017659085 	-6.59194920871187e-17 	0.419489421807991 	-0.000398672916629481 	0
2 	3.02113659691864 	-5.89805981832114e-17 	0.329455258891119 	-0.000248294943687103 	0
2 	3.02557058719784 	-5.55111512312578e-17 	0.23412100644104 	-0.000130817284456016 	0
2 	3.02984788744324 	-5.55111512312578e-17 	0.138739743904815 	-5.14440939079692e-05 	0
