9.99999999999901e-07 	1.00195556483898 	-3.46944695195361e-18 	-0.0175753442121517 	5.09638794888998e-05 	2961.89039277256 	5.02415060431036e-05 	6.04051554159886e-38
9.99999999999901e-07 	1.00593833258374 	-3.46944695195361e-18 	-0.0175211528903117 	0.000452805888317188 	1310.16868805024 	0.00151944773867686 	0
9.99999999999901e-07 	1.01006700077429 	-3.46944695195361e-18 	-0.0173951497948357 	0.0019121733509554 	305.413841976062 	0.0104294314257105 	0
9.99999999999901e-07 	1.0143469141712 	-6.93889390390723e-18 	-0.0171198513558897 	0.00494961042008865 	141.398295249922 	0.0297138912682549 	0
9.99999999999901e-07 	1.01878361332929 	-6.93889390390723e-18 	-0.0165978875877765 	0.00912628689193709 	88.2465790766672 	0.0463915989122142 	0
9.99999999999901e-07 	1.02338284177015 	0 	-0.015793741551451 	0.0135543705657563 	60.9160724187884 	0.0467549783761653 	0
9.99999999999901e-07 	1.02815055341735 	6.93889390390723e-18 	-0.0147422245806941 	0.017780614452514 	43.7915517698989 	0.0352790268579305 	0
9.99999999999902e-07 	1.03309292030413 	6.93889390390723e-18 	-0.0134986255533451 	0.0217320042167717 	32.603888408958 	0.0231042905298723 	0
9.99999999999902e-07 	1.03821634056339 	1.04083408558608e-17 	-0.0121054362899753 	0.0253867748762986 	25.1463982552976 	0.0147692210458102 	0
9.99999999999901e-07 	1.04352744671036 	1.38777878078145e-17 	-0.010589982139315 	0.0287204913612403 	20.0155780439866 	0.0099180064414365 	0
9.99999999999901e-07 	1.04903311422874 	1.04083408558608e-17 	-0.0089698241713149 	0.0317287494148478 	16.3485827494812 	0.00720802857126667 	0
9.99999999999901e-07 	1.05474047047132 	0 	-0.00725639783122587 	0.0344277519433029 	13.6314427168544 	0.00566289466634446 	0
9.99999999999901e-07 	1.06065690388671 	-3.46944695195361e-18 	-0.00545721375545278 	0.036844303806857 	11.5573440815049 	0.00473665566267062 	0
9.99999999999901e-07 	1.06679007358401 	0 	-0.00357754022118904 	0.0390079985238787 	9.93827814943462 	0.00414482479021005 	0
9.99999999999901e-07 	1.07314791924792 	-3.46944695195361e-18 	-0.00162187654061406 	0.0409473201186193 	8.65412496615858 	0.00373892018547732 	0
9.99999999999901e-07 	1.07973867141705 	-6.93889390390723e-18 	0.000404861369478095 	0.0426881553204411 	7.62411945295443 	0.00343850373863999 	0
9.99999999999901e-07 	1.08657086213875 	-6.93889390390723e-18 	0.00249672452866907 	0.0442533873010098 	6.79104677543199 	0.00319751550259385 	0
9.99999999999901e-07 	1.09365333601424 	-6.93889390390723e-18 	0.00464690646069305 	0.0456628884393662 	6.11253928731366 	0.00298835084053523 	0
9.99999999999901e-07 	1.10099526164836 	-1.73472347597681e-17 	0.00684864552606725 	0.0469336484654445 	5.55623841559136 	0.0027946017168505 	0
9.99999999999901e-07 	1.10860614351883 	-2.08166817117217e-17 	0.00909642630896911 	0.0480799599558165 	5.09698489789275 	0.0026075816604424 	0
9.99999999999901e-07 	1.11649583428022 	-2.08166817117217e-17 	0.0113868936092568 	0.0491136418916892 	4.7150419594015 	0.00242416174065709 	0
9.99999999999901e-07 	1.12467454751866 	-3.12250225675825e-17 	0.0137190846414609 	0.0500442923415123 	4.3948530499501 	0.00224494292930571 	0
9.99999999999901e-07 	1.13315287097387 	-3.81639164714898e-17 	0.0160939505355088 	0.0508795601991805 	4.12410858309271 	0.00207260827685883 	0
9.99999999999901e-07 	1.1419417802455 	-4.16333634234434e-17 	0.0185134166817441 	0.0516254251133363 	3.89302722420997 	0.00191057898011635 	0
9.99999999999901e-07 	1.15105265300152 	-4.5102810375397e-17 	0.0209793297797092 	0.0522864752124421 	3.69380734149712 	0.00176208392017481 	0
9.99999999999901e-07 	1.1604972837072 	-4.85722573273506e-17 	0.023492595098986 	0.0528661725376324 	3.52021610318478 	0.00162966033222184 	0
9.99999999999901e-07 	1.17028789889366 	-4.5102810375397e-17 	0.0260526780535759 	0.0533670960373825 	3.36728379853059 	0.00151502110746206 	0
9.99999999999901e-07 	1.1804371729856 	-3.81639164714898e-17 	0.0286574857761232 	0.0537911527009705 	3.23107196719485 	0.00141916734736792 	0
9.99999999999901e-07 	1.19095824470904 	-3.81639164714898e-17 	0.0313035231988227 	0.0541397501127986 	3.1084890966264 	0.00134260550268927 	0
9.99999999999901e-07 	1.20186473410002 	-4.16333634234434e-17 	0.0339861784947772 	0.0544139285034779 	2.99713551288312 	0.00128555239904585 	0
9.99999999999901e-07 	1.21317076013637 	-4.5102810375397e-17 	0.0367000270923042 	0.0546144560537082 	2.89516704925842 	0.00124806360006843 	0
9.99999999999901e-07 	1.22489095901541 	-4.5102810375397e-17 	0.0394391128392938 	0.0547418958759392 	2.80117326468847 	0.00123007471628193 	0
9.99999999999901e-07 	1.23704050310127 	-5.20417042793042e-17 	0.0421972202495283 	0.0547966549860692 	2.7140696852137 	0.00123139034376242 	0
9.99999999999901e-07 	1.24963512056618 	-5.89805981832114e-17 	0.044968169347045 	0.0547790239644118 	2.63300493968415 	0.00125166356018295 	0
9.99999999999901e-07 	1.26269111575138 	-5.55111512312578e-17 	0.0477461215293973 	0.0546892127908969 	2.5572835384768 	0.00129036141345412 	0
9.99999999999901e-07 	1.27622539027388 	-5.20417042793042e-17 	0.0505258321943659 	0.0545273856660828 	2.48630442496584 	0.00134668958337421 	0
9.99999999999901e-07 	1.29025546490642 	-4.5102810375397e-17 	0.0533028006182367 	0.0542936954270703 	2.41951492534206 	0.00141947989224989 	0
9.99999999999901e-07 	1.30479950225895 	-4.16333634234434e-17 	0.0560732967197455 	0.0539883169467044 	2.35637935579298 	0.00150706518383013 	0
9.99999999999902e-07 	1.31987633029101 	-4.16333634234434e-17 	0.0588342654677975 	0.053611479265322 	2.29636121465265 	0.00160717533374241 	0
9.99999999999902e-07 	1.33550546668544 	-3.81639164714898e-17 	0.0615831330640538 	0.0531634974346083 	2.23891751963081 	0.00171689039310986 	0
9.99999999999902e-07 	1.35170714411495 	-3.12250225675825e-17 	0.0643175574917775 	0.0526448062998035 	2.18350341071905 	0.00183267758641439 	0
9.99999999999902e-07 	1.3685023364343 	-3.12250225675825e-17 	0.0670351830928994 	0.0520559988864005 	2.12958467079201 	0.00195052353001807 	0
9.99999999999902e-07 	1.38591278583198 	-3.46944695195361e-17 	0.0697334645723966 	0.0513978709096303 	2.07665537209921 	0.00206614729234216 	0
9.99999999999902e-07 	1.40396103097652 	-3.12250225675825e-17 	0.0724095970003149 	0.0506714701170021 	2.02425750949007 	0.00217525527936665 	0
9.99999999999901e-07 	1.42267043619387 	-3.12250225675825e-17 	0.0750605372006955 	0.0498781465349292 	1.97199939846085 	0.00227378669248954 	0
9.99999999999901e-07 	1.44206522171365 	-3.46944695195361e-17 	0.0776830867258602 	0.0490195995625613 	1.91957000353408 	0.00235810820992546 	0
9.99999999999901e-07 	1.46217049502345 	-3.46944695195361e-17 	0.0802740119727025 	0.0480979196993105 	1.86674723315763 	0.00242514328088067 	0
9.99999999999901e-07 	1.48301228337162 	-3.12250225675825e-17 	0.0828301727856047 	0.0471156242075226 	1.81339939391946 	0.00247244167116874 	0
9.99999999999902e-07 	1.50461756746086 	-3.12250225675825e-17 	0.0853486313953484 	0.0460756862985677 	1.75948020047879 	0.00249820846706706 	0
9.99999999999902e-07 	1.52701431637602 	-3.12250225675825e-17 	0.0878267216521665 	0.0449815566207304 	1.70501874311294 	0.00250131462677814 	0
9.99999999999902e-07 	1.55023152379143 	-2.77555756156289e-17 	0.0902620716623275 	0.0438371743231547 	1.65010640612943 	0.00248130122566194 	0
9.99999999999902e-07 	1.57429924550461 	-2.77555756156289e-17 	0.0926525862699817 	0.0426469636056536 	1.5948828202815 	0.00243837875150004 	0
9.99999999999902e-07 	1.59924863834497 	-3.12250225675825e-17 	0.0949964034171811 	0.0414158114486456 	1.53952260555267 	0.00237341749077662 	0
9.99999999999902e-07 	1.62511200050781 	-3.12250225675825e-17 	0.0972918401448054 	0.0401490237191124 	1.48422412387961 	0.00228792867676999 	0
9.99999999999902e-07 	1.65192281336592 	-2.42861286636753e-17 	0.0995373433519759 	0.0388522592712941 	1.42920089638474 	0.0021840416352898 	0
9.99999999999902e-07 	1.67971578481282 	-2.08166817117217e-17 	0.10173145949127 	0.0375314429048792 	1.37467577740734 	0.00206447709351153 	0
9.99999999999902e-07 	1.70852689419381 	-2.42861286636753e-17 	0.103872833127847 	0.0361926584371385 	1.32087740437592 	0.0019324981286954 	0
9.99999999999902e-07 	1.73839343888296 	-2.77555756156289e-17 	0.105960235930896 	0.0348420309287873 	1.26803806452655 	0.00179180315542518 	0
9.99999999999902e-07 	1.76935408256639 	-2.77555756156289e-17 	0.107992615657247 	0.0334856345250956 	1.21639226256944 	0.00164633322741291 	0
9.99999999999902e-07 	1.80144890529425 	-2.77555756156289e-17 	0.109969132560177 	0.0321294971812035 	1.16617589730521 	0.0015000061176353 	0
9.99999999999902e-07 	1.83471945536633 	-2.42861286636753e-17 	0.111889168913066 	0.0307796591718474 	1.11762626766233 	0.00135641793974873 	0
9.99999999999902e-07 	1.86920880311829 	-2.42861286636753e-17 	0.11375236148528 	0.0294422091309254 	1.07098264126703 	0.00121854585528408 	0
9.99999999999902e-07 	1.9049615966783 	-1.73472347597681e-17 	0.115558633594292 	0.0281234823115758 	1.02648714831982 	0.00108853351735907 	0
9.99999999999902e-07 	1.94202411976624 	-3.46944695195361e-18 	0.117308005532926 	0.0268302401270774 	0.98438616021736 	0.000967805151930966 	0
9.99999999999902e-07 	1.98044435161018 	-3.46944695195361e-18 	0.119000312646385 	0.0255688339848709 	0.944929547021135 	0.000857100394504578 	0
9.99999999999902e-07 	2.02025965173184 	-1.04083408558608e-17 	0.120622600133804 	0.0243528055546258 	0.908641236922101 	0.00075722959841701 	0
9.99999999999902e-07 	2.06006301192217 	-6.93889390390723e-18 	0.122138182135456 	0.0232089083333332 	0.876443464025514 	0.000669730336519204 	0
9.99999999999902e-07 	2.09845978584128 	-3.46944695195361e-18 	0.123518732750527 	0.0221542283094552 	0.848857576440001 	0.000594727562273994 	0
9.99999999999902e-07 	2.13549967996945 	-6.93889390390723e-18 	0.124768701970985 	0.0211826837269033 	0.825617447318841 	0.000530082489247712 	0
9.99999999999902e-07 	2.17123064424048 	-6.93889390390723e-18 	0.1259046704651 	0.0202816522277922 	0.806246685279124 	0.000473381517334596 	0
9.99999999999902e-07 	2.20569893411515 	-1.04083408558608e-17 	0.12694077645097 	0.0194413053473381 	0.790364050388733 	0.000422843215820148 	0
9.99999999999902e-07 	2.23894917046122 	-1.38777878078145e-17 	0.127888934307016 	0.0186539964089501 	0.777670306812465 	0.000377212191583529 	0
9.99999999999903e-07 	2.27102439731725 	-1.73472347597681e-17 	0.128759262848561 	0.0179137458309866 	0.767937008822459 	0.000335631338184486 	0
9.99999999999903e-07 	2.30196613761521 	-1.73472347597681e-17 	0.129560395854658 	0.0172158386187498 	0.760996930537776 	0.000297532062295423 	0
9.99999999999903e-07 	2.33181444693391 	-1.04083408558608e-17 	0.130299726128225 	0.016556519282213 	0.756736078069206 	0.000262554095895222 	0
9.99999999999903e-07 	2.3606079653529 	-6.93889390390723e-18 	0.130983607323439 	0.0159327644484771 	0.755087347613948 	0.000230488103152259 	0
9.99999999999903e-07 	2.3883839674739 	-6.93889390390723e-18 	0.131617519734791 	0.015342115374948 	0.756025853109159 	0.000201236127449317 	0
9.99999999999903e-07 	2.41517841067461 	-6.93889390390723e-18 	0.132206206522923 	0.0147825558516913 	0.759565861846547 	0.000174785783185522 	0
9.99999999999903e-07 	2.44102598165722 	-6.93889390390723e-18 	0.132753786423168 	0.0142524240980727 	0.76575921574252 	0.000151194762776291 	0
9.99999999999903e-07 	2.46596014135207 	-6.93889390390723e-18 	0.133263847606628 	0.0137503498751879 	0.77469509443847 	0.000130583024821968 	0
9.99999999999903e-07 	2.49001316823443 	-1.04083408558608e-17 	0.133739526267452 	0.0132752101272993 	0.786500983923282 	0.00011313073860139 	0
9.99999999999903e-07 	2.51321620011054 	-2.08166817117217e-17 	0.134183572736763 	0.0128260980867824 	0.801344735720898 	9.90806100356076e-05 	0
9.99999999999903e-07 	2.535599274427 	-3.12250225675825e-17 	0.13459840735288 	0.0124023019973097 	0.819437624059732 	8.87436152847465e-05 	0
9.99999999999903e-07 	2.55719136715571 	-3.46944695195361e-17 	0.134986167886232 	0.0120032904950666 	0.84103832258375 	8.25074361491273e-05 	0
9.99999999999903e-07 	2.57802043030465 	-3.81639164714898e-17 	0.135348749986023 	0.0116287022952192 	0.866457721409704 	8.08470370294704e-05 	0
9.99999999999903e-07 	2.59811342810315 	-4.16333634234434e-17 	0.135687841855236 	0.0112783382093301 	0.896064484391479 	8.43368514665978e-05 	0
9.99999999999903e-07 	2.61749637190832 	-4.16333634234434e-17 	0.136004954150627 	0.0109521537108814 	0.930291200688256 	9.3663957691e-05 	0
9.99999999999903e-07 	2.63619435387806 	-3.81639164714898e-17 	0.136301445930566 	0.0106502503095329 	0.969640910244647 	0.000109641416274038 	0
9.99999999999903e-07 	2.65423157945406 	-3.46944695195361e-17 	0.136578547325224 	0.010372863932126 	1.01469367746847 	0.000133220623088111 	0
9.99999999999903e-07 	2.67163139869691 	-3.81639164714898e-17 	0.136837379472185 	0.010120348391688 	1.0661127531732 	0.000165501116602196 	0
9.99999999999903e-07 	2.68841633651388 	-4.16333634234434e-17 	0.137078972139847 	0.00989315192450463 	1.12464971127044 	0.000207735817499287 	0
9.99999999999903e-07 	2.7046081218185 	-4.16333634234434e-17 	0.137304279346523 	0.00969178478290162 	1.19114779549841 	0.000261329260447814 	0
9.99999999999903e-07 	2.72022771565972 	-4.16333634234434e-17 	0.137514193174107 	0.00951677610431532 	1.26654260136348 	0.000327826144269024 	0
9.99999999999903e-07 	2.73529533835694 	-4.16333634234434e-17 	0.137709555873904 	0.00936861886403015 	1.35185920792926 	0.000408887667215603 	0
9.99999999999903e-07 	2.74983049567625 	-3.81639164714898e-17 	0.137891170275733 	0.00924770277143534 	1.44820503887261 	0.000506253836719956 	0
9.99999999999903e-07 	2.76385200408156 	-3.12250225675825e-17 	0.138059808450023 	0.00915423653555024 	1.55675815357842 	0.000621691412196064 	0
9.99999999999903e-07 	2.77737801509343 	-3.12250225675825e-17 	0.138216218547666 	0.00908816292914529 	1.67875140984784 	0.00075692938517991 	0
9.99999999999903e-07 	2.79042603878708 	-3.46944695195361e-17 	0.138361129762243 	0.00904907227204753 	1.81545401048587 	0.000913586725301396 	0
9.99999999999903e-07 	2.80301296646003 	-3.81639164714898e-17 	0.138495255423801 	0.00903612189929731 	1.96815326986149 	0.00109310004941549 	0
9.99999999999903e-07 	2.81515509249872 	-3.81639164714898e-17 	0.138619294331025 	0.00904797032541889 	2.13814083200935 	0.0012966612054651 	0
9.99999999999903e-07 	2.82686813547237 	-3.81639164714898e-17 	0.138733930536169 	0.00908273463877032 	2.32670877330166 	0.0015251757544996 	0
9.99999999999903e-07 	2.83816725848142 	-4.5102810375397e-17 	0.138839831886681 	0.00913797786822359 	2.53516175225893 	0.00177925246350154 	0
9.99999999999903e-07 	2.84906708878691 	-4.85722573273506e-17 	0.138937647677122 	0.00921072977622051 	2.76485145428258 	0.0020592311900237 	0
9.99999999999903e-07 	2.85958173674616 	-4.85722573273506e-17 	0.139028005769209 	0.00929754033550993 	3.01723908848725 	0.00236525268454303 	0
9.99999999999903e-07 	2.86972481407933 	-4.85722573273506e-17 	0.139111509513322 	0.00939456098410291 	3.29399104576059 	0.00269737038882464 	0
9.99999999999903e-07 	2.87950945149043 	-5.20417042793042e-17 	0.139188734783416 	0.00949764564023739 	3.59711282284895 	0.00305570343223264 	0
9.99999999999903e-07 	2.88894831566566 	-5.55111512312578e-17 	0.139260227425172 	0.00960246211467877 	3.92912804844854 	0.00344063400148923 	0
9.99999999999903e-07 	2.89805362567106 	-5.55111512312578e-17 	0.139326501325788 	0.00970460504211681 	4.29331403899787 	0.00385306231273575 	0
9.99999999999903e-07 	2.90683716877067 	-5.20417042793042e-17 	0.139388037076276 	0.009799702923807 	4.69401350864094 	0.00429474659623529 	0
9.99999999999903e-07 	2.91531031568569 	-4.85722573273506e-17 	0.139445281194232 	0.00988351258695188 	5.13705381198474 	0.00476876593097885 	0
9.99999999999903e-07 	2.92348403531448 	-5.20417042793042e-17 	0.139498645515465 	0.0099519921936519 	5.63031960550273 	0.00528013706739738 	0
9.99999999999903e-07 	2.93136890893229 	-5.55111512312578e-17 	0.139548504881531 	0.0100013378501773 	6.18454174777569 	0.00583659238478773 	0
9.99999999999903e-07 	2.93897514388925 	-5.55111512312578e-17 	0.139595191788265 	0.0100279607983945 	6.8143873053398 	0.00644952046396186 	0
9.99999999999903e-07 	2.94631258682425 	-5.20417042793042e-17 	0.139638988574308 	0.0100283755581518 	7.53997174945139 	0.00713510031604482 	0
9.99999999999903e-07 	2.95339073641193 	-4.85722573273506e-17 	0.139680116490121 	0.00999896450289289 	8.3889842238881 	0.00791565566345374 	0
9.99999999999903e-07 	2.96021875565915 	-4.85722573273506e-17 	0.139718719367581 	0.00993557759829961 	9.39974576231504 	0.00882116765049653 	0
9.99999999999903e-07 	2.96680548376697 	-4.85722573273506e-17 	0.139754850209847 	0.00983291178082789 	10.6257423698808 	0.00989072184061739 	0
9.99999999999903e-07 	2.97315944757337 	-4.85722573273506e-17 	0.139788527854536 	0.00968358676091964 	12.1425508909153 	0.0111852322429353 	0
9.99999999999903e-07 	2.97928887259171 	-4.85722573273506e-17 	0.13981985920642 	0.00947596286199149 	14.0597673704608 	0.0127747546820437 	0
9.99999999999903e-07 	2.98520169365902 	-4.5102810375397e-17 	0.139848886417669 	0.00919071719004134 	16.5392599002529 	0.0147162432634782 	0
9.99999999999903e-07 	2.99090556520806 	-4.16333634234434e-17 	0.139875211542123 	0.00879728464122611 	19.8168743066603 	0.0170394992752734 	0
9.99999999999903e-07 	2.99640787117633 	-4.16333634234434e-17 	0.139898122639867 	0.00825011902618588 	24.2349359583653 	0.0196589673218497 	0
9.99999999999904e-07 	3.00171573456492 	-4.85722573273506e-17 	0.139917090518702 	0.0074869412948311 	30.3141076678548 	0.0222346572401458 	0
9.99999999999904e-07 	3.00683602665962 	-5.55111512312578e-17 	0.139931912877821 	0.00643538291447026 	38.9385993009593 	0.023991086595063 	0
9.99999999999904e-07 	3.01177537592612 	-5.89805981832114e-17 	0.139942678869221 	0.00503816674179575 	51.9235628142772 	0.0230816676635875 	0
9.99999999999904e-07 	3.01654017659085 	-6.24500451351651e-17 	0.139949850803991 	0.00336522471915652 	74.0896193086245 	0.0175976876218149 	0
9.99999999999904e-07 	3.02113659691864 	-6.24500451351651e-17 	0.139954218043268 	0.0017577774183192 	122.455633210616 	0.00929678822921427 	0
9.99999999999904e-07 	3.02557058719784 	-6.24500451351651e-17 	0.139956700418947 	0.000649581376338437 	277.957167218511 	0.00294139586118863 	0
9.99999999999904e-07 	3.02984788744324 	-6.59194920871187e-17 	0.139958113190375 	0.00014970540648491 	1218.12675252395 	0.000449555526506848 	0
