9.99999999999901e-07 	1.00195556483898 	-3.46944695195361e-18 	0.0328854103337404 	0.000211158160006756 	3.28771885795411e-24
9.99999999999901e-07 	1.00593833258374 	-3.46944695195361e-18 	0.117031729189694 	0.00145074066226672 	1.53647932268866e-23
9.99999999999901e-07 	1.01006700077429 	-3.46944695195361e-18 	0.2319774323273 	0.00459949485285908 	1.31042912794671e-23
9.99999999999901e-07 	1.0143469141712 	-6.93889390390723e-18 	0.358428937219519 	0.00956706586143261 	-1.06260741473761e-23
9.99999999999901e-07 	1.01878361332929 	-6.93889390390723e-18 	0.471271990825 	0.0153389703169122 	-2.3596647753553e-23
9.99999999999901e-07 	1.02338284177015 	0 	0.555917154628324 	0.0209053510139022 	-1.1205427039734e-23
9.99999999999901e-07 	1.02815055341735 	6.93889390390723e-18 	0.612855004583815 	0.0258316324461295 	7.37355730979861e-25
9.99999999999902e-07 	1.03309292030413 	6.93889390390723e-18 	0.649716403204671 	0.0300728760914001 	-5.4135715990077e-25
9.99999999999902e-07 	1.03821634056339 	1.04083408558608e-17 	0.674028340212737 	0.0337208843131534 	-1.08281575491741e-24
9.99999999999901e-07 	1.04352744671036 	1.38777878078145e-17 	0.690945150771459 	0.0369013678785029 	-1.98661514258768e-24
9.99999999999901e-07 	1.04903311422874 	1.04083408558608e-17 	0.703523153087522 	0.0397273890143949 	-2.89050362073294e-24
9.99999999999901e-07 	1.05474047047132 	0 	0.713492745820156 	0.0422845800236193 	-1.44522849251069e-24
9.99999999999901e-07 	1.06065690388671 	-3.46944695195361e-18 	0.721837958367684 	0.0446336066547654 	1.22358087534675e-24
9.99999999999901e-07 	1.06679007358401 	0 	0.729134438578954 	0.0468166549341159 	2.44712171924108e-24
9.99999999999901e-07 	1.07314791924792 	-3.46944695195361e-18 	0.735732327367372 	0.0488629544377428 	1.91188180777431e-24
9.99999999999901e-07 	1.07973867141705 	-6.93889390390723e-18 	0.741854135083979 	0.0507925882237218 	-6.40385365936597e-18
9.99999999999901e-07 	1.08657086213875 	-6.93889390390723e-18 	0.747647729359928 	0.0526189793832409 	-6.88246183712836e-18
9.99999999999901e-07 	1.09365333601424 	-6.93889390390723e-18 	0.753215569041579 	0.0543506011288515 	5.44624183749042e-18
9.99999999999901e-07 	1.10099526164836 	-1.73472347597681e-17 	0.758631254255626 	0.0559923219114647 	5.92484931641931e-18
9.99999999999901e-07 	1.10860614351883 	-2.08166817117217e-17 	0.763949216552857 	0.0575465630834281 	0
9.99999999999901e-07 	1.11649583428022 	-2.08166817117217e-17 	0.769210624189579 	0.0590142756030361 	0
9.99999999999901e-07 	1.12467454751866 	-3.12250225675825e-17 	0.774447182490925 	0.0603956841339966 	-6.54505187228735e-25
9.99999999999901e-07 	1.13315287097387 	-3.81639164714898e-17 	0.779683759520771 	0.0616907690031461 	-1.30913622415667e-24
9.99999999999901e-07 	1.1419417802455 	-4.16333634234434e-17 	0.784940320191564 	0.0628995055716642 	-2.05837757953622e-24
9.99999999999901e-07 	1.15105265300152 	-4.5102810375397e-17 	0.790233389423441 	0.0640219135455424 	-2.80805639209267e-24
9.99999999999901e-07 	1.1604972837072 	-4.85722573273506e-17 	0.795577134378978 	0.0650579821191427 	1.28079787770582e-25
9.99999999999901e-07 	1.17028789889366 	-4.5102810375397e-17 	0.800984116431767 	0.0660075416345514 	1.86092555481685e-24
9.99999999999901e-07 	1.1804371729856 	-3.81639164714898e-17 	0.806465775726384 	0.0668701489205397 	-8.74573180556837e-25
9.99999999999901e-07 	1.19095824470904 	-3.81639164714898e-17 	0.812032735355947 	0.0676450352143776 	-1.20322475385645e-24
9.99999999999901e-07 	1.20186473410002 	-4.16333634234434e-17 	0.81769501751105 	0.0683311337355236 	0
9.99999999999901e-07 	1.21317076013637 	-4.5102810375397e-17 	0.823462241078566 	0.0689271714390902 	0
9.99999999999901e-07 	1.22489095901541 	-4.5102810375397e-17 	0.829343834455936 	0.0694317887966973 	0
9.99999999999901e-07 	1.23704050310127 	-5.20417042793042e-17 	0.835349258036061 	0.0698436386897711 	4.10484937749428e-24
9.99999999999901e-07 	1.24963512056618 	-5.89805981832114e-17 	0.841488183202626 	0.0701614382158215 	1.26270788421861e-23
9.99999999999901e-07 	1.26269111575138 	-5.55111512312578e-17 	0.847770585505256 	0.0703840248994839 	1.29396320403517e-23
9.99999999999901e-07 	1.27622539027388 	-5.20417042793042e-17 	0.854206763756559 	0.0705104805904321 	-6.63675826526293e-25
9.99999999999901e-07 	1.29025546490642 	-4.5102810375397e-17 	0.860807278624857 	0.0705403119801854 	-1.01622462967268e-23
9.99999999999901e-07 	1.30479950225895 	-4.16333634234434e-17 	0.867582775148112 	0.0704736457692547 	-1.08789950033332e-23
9.99999999999902e-07 	1.31987633029101 	-4.16333634234434e-17 	0.874543675443339 	0.0703113993997744 	-1.15958397666687e-23
9.99999999999902e-07 	1.33550546668544 	-3.81639164714898e-17 	0.881699751843287 	0.0700553912980961 	-5.79801263798143e-24
9.99999999999902e-07 	1.35170714411495 	-3.12250225675825e-17 	0.889059606368471 	0.069708366390487 	0
9.99999999999902e-07 	1.3685023364343 	-3.12250225675825e-17 	0.896630099575029 	0.0692739237111998 	0
9.99999999999902e-07 	1.38591278583198 	-3.46944695195361e-17 	0.904415784348681 	0.0687563526339943 	1.42681162436119e-24
9.99999999999902e-07 	1.40396103097652 	-3.12250225675825e-17 	0.912418391395088 	0.06816040595762 	-1.35840804554077e-23
9.99999999999901e-07 	1.42267043619387 	-3.12250225675825e-17 	0.920636403325999 	0.0674910515330802 	-1.41463405716403e-23
9.99999999999901e-07 	1.44206522171365 	-3.46944695195361e-17 	0.9290647559067 	0.0667532468833741 	1.75499792759775e-24
9.99999999999901e-07 	1.46217049502345 	-3.46944695195361e-17 	0.937694679275499 	0.0659517638680654 	2.07297511260531e-23
9.99999999999901e-07 	1.48301228337162 	-3.12250225675825e-17 	0.946513652042209 	0.0650910662282385 	3.80939175048198e-23
9.99999999999902e-07 	1.50461756746086 	-3.12250225675825e-17 	0.955505431114262 	0.0641752279598147 	2.40438470374717e-25
9.99999999999902e-07 	1.52701431637602 	-3.12250225675825e-17 	0.96465013208992 	0.0632078763660261 	-1.80056181814921e-23
9.99999999999902e-07 	1.55023152379143 	-2.77555756156289e-17 	0.973924350495905 	0.0621921478953877 	-2.1225808652001e-24
9.99999999999902e-07 	1.57429924550461 	-2.77555756156289e-17 	0.983301326225788 	0.0611306513962937 	-4.24093981891346e-24
9.99999999999902e-07 	1.59924863834497 	-3.12250225675825e-17 	0.9927511599044 	0.0600254377565067 	-2.12306487620918e-24
9.99999999999902e-07 	1.62511200050781 	-3.12250225675825e-17 	1.00224109562585 	0.0588779721953295 	-5.04932576654091e-23
9.99999999999902e-07 	1.65192281336592 	-2.42861286636753e-17 	1.01173589760392 	0.0576890987098796 	-1.08768009135101e-24
9.99999999999902e-07 	1.67971578481282 	-2.08166817117217e-17 	1.02119836644985 	0.0564589865083508 	4.60733996700262e-23
9.99999999999902e-07 	1.70852689419381 	-2.42861286636753e-17 	1.03059004956034 	0.0551870641144541 	-1.62293895323981e-22
9.99999999999902e-07 	1.73839343888296 	-2.77555756156289e-17 	1.03987218530976 	0.0538719746764299 	-1.57307309235374e-22
9.99999999999902e-07 	1.76935408256639 	-2.77555756156289e-17 	1.04900686746201 	0.0525116050710944 	5.89208759729959e-23
9.99999999999902e-07 	1.80144890529425 	-2.77555756156289e-17 	1.05795832417299 	0.0511032235264613 	6.18477103832786e-23
9.99999999999902e-07 	1.83471945536633 	-2.42861286636753e-17 	1.06669414676876 	0.0496437279075255 	-1.05989787984612e-22
9.99999999999902e-07 	1.86920880311829 	-2.42861286636753e-17 	1.07518628069969 	0.0481299982937948 	-9.84470926787342e-23
9.99999999999902e-07 	1.9049615966783 	-1.73472347597681e-17 	1.08341149317205 	0.046559317664657 	1.39482574008491e-22
9.99999999999902e-07 	1.94202411976624 	-3.46944695195361e-18 	1.09135113828121 	0.044929644689811 	1.27367170518601e-22
9.99999999999902e-07 	1.98044435161018 	-3.46944695195361e-18 	1.09899093737373 	0.0432395531904427 	0
9.99999999999902e-07 	2.02025965173184 	-1.04083408558608e-17 	1.10626077947453 	0.0415039209584483 	0
9.99999999999902e-07 	2.06006301192217 	-6.93889390390723e-18 	1.11298971698545 	0.0397716860778203 	0
9.99999999999902e-07 	2.09845978584128 	-3.46944695195361e-18 	1.11905816049105 	0.038092025702552 	0
9.99999999999902e-07 	2.13549967996945 	-6.93889390390723e-18 	1.12449591340746 	0.0364808018670105 	0
9.99999999999902e-07 	2.17123064424048 	-6.93889390390723e-18 	1.12938011263594 	0.0349379759109754 	0
9.99999999999902e-07 	2.20569893411515 	-1.04083408558608e-17 	1.13377331093149 	0.0334628390213512 	0
9.99999999999902e-07 	2.23894917046122 	-1.38777878078145e-17 	1.13772593668831 	0.0320540371390114 	0
9.99999999999903e-07 	2.27102439731725 	-1.73472347597681e-17 	1.1412785441015 	0.030709628933814 	0
9.99999999999903e-07 	2.30196613761521 	-1.73472347597681e-17 	1.14446371462685 	0.0294272291734053 	0
9.99999999999903e-07 	2.33181444693391 	-1.04083408558608e-17 	1.14730759211016 	0.0282041509137173 	0
9.99999999999903e-07 	2.3606079653529 	-6.93889390390723e-18 	1.14983108381685 	0.0270375281397233 	0
9.99999999999903e-07 	2.3883839674739 	-6.93889390390723e-18 	1.15205077683268 	0.0259244159555092 	0
9.99999999999903e-07 	2.41517841067461 	-6.93889390390723e-18 	1.1539796217185 	0.0248618681071471 	0
9.99999999999903e-07 	2.44102598165722 	-6.93889390390723e-18 	1.15562743073192 	0.0238469937842092 	0
9.99999999999903e-07 	2.46596014135207 	-6.93889390390723e-18 	1.1570012306708 	0.0228769968317391 	0
9.99999999999903e-07 	2.49001316823443 	-1.04083408558608e-17 	1.15810550281362 	0.0219492007569419 	0
9.99999999999903e-07 	2.51321620011054 	-2.08166817117217e-17 	1.15894233566847 	0.0210610627007288 	0
9.99999999999903e-07 	2.535599274427 	-3.12250225675825e-17 	1.15951151076546 	0.0202101791350609 	0
9.99999999999903e-07 	2.55719136715571 	-3.46944695195361e-17 	1.15981053766608 	0.0193942855767214 	0
9.99999999999903e-07 	2.57802043030465 	-3.81639164714898e-17 	1.15983465169223 	0.0186112521500132 	0
9.99999999999903e-07 	2.59811342810315 	-4.16333634234434e-17 	1.15957678650667 	0.017859076422674 	0
9.99999999999903e-07 	2.61749637190832 	-4.16333634234434e-17 	1.15902753349381 	0.0171358745962226 	0
9.99999999999903e-07 	2.63619435387806 	-3.81639164714898e-17 	1.15817510075415 	0.0164398718561113 	0
9.99999999999903e-07 	2.65423157945406 	-3.46944695195361e-17 	1.15700528624599 	0.0157693924737383 	0
9.99999999999903e-07 	2.67163139869691 	-3.81639164714898e-17 	1.15550148187997 	0.0151228500936317 	0
9.99999999999903e-07 	2.68841633651388 	-4.16333634234434e-17 	1.15364472772089 	0.0144987385257796 	0
9.99999999999903e-07 	2.7046081218185 	-4.16333634234434e-17 	1.15141383716075 	0.0138956232856373 	0
9.99999999999903e-07 	2.72022771565972 	-4.16333634234434e-17 	1.14878561401973 	0.0133121340732206 	0
9.99999999999903e-07 	2.73529533835694 	-4.16333634234434e-17 	1.1457351798165 	0.0127469583482093 	0
9.99999999999903e-07 	2.74983049567625 	-3.81639164714898e-17 	1.14223642271564 	0.0121988361304228 	0
9.99999999999903e-07 	2.76385200408156 	-3.12250225675825e-17 	1.13826256802783 	0.0116665561249014 	0
9.99999999999903e-07 	2.77737801509343 	-3.12250225675825e-17 	1.13378685354847 	0.0111489532295973 	0
9.99999999999903e-07 	2.79042603878708 	-3.46944695195361e-17 	1.12878327272284 	0.0106449074247641 	0
9.99999999999903e-07 	2.80301296646003 	-3.81639164714898e-17 	1.12322732743336 	0.0101533439631264 	0
9.99999999999903e-07 	2.81515509249872 	-3.81639164714898e-17 	1.11709671423459 	0.00967323467994933 	0
9.99999999999903e-07 	2.82686813547237 	-3.81639164714898e-17 	1.11037185763332 	0.00920360013041059 	0
9.99999999999903e-07 	2.83816725848142 	-4.5102810375397e-17 	1.10303620502169 	0.00874351215884469 	0
9.99999999999903e-07 	2.84906708878691 	-4.85722573273506e-17 	1.09507621112657 	0.00829209645366364 	0
9.99999999999903e-07 	2.85958173674616 	-4.85722573273506e-17 	1.08648096290333 	0.00784853472268587 	0
9.99999999999903e-07 	2.86972481407933 	-4.85722573273506e-17 	1.07724142276419 	0.00741206646417674 	0
9.99999999999903e-07 	2.87950945149043 	-5.20417042793042e-17 	1.06734929034685 	0.00698199107662083 	0
9.99999999999903e-07 	2.88894831566566 	-5.55111512312578e-17 	1.05679549097768 	0.00655767235167038 	0
9.99999999999903e-07 	2.89805362567106 	-5.55111512312578e-17 	1.04556828364939 	0.00613854899834903 	0
9.99999999999903e-07 	2.90683716877067 	-5.20417042793042e-17 	1.03365093752671 	0.00572415597485564 	0
9.99999999999903e-07 	2.91531031568569 	-4.85722573273506e-17 	1.02101885675813 	0.00531416165869797 	0
9.99999999999903e-07 	2.92348403531448 	-5.20417042793042e-17 	1.00763595578907 	0.00490842119114485 	0
9.99999999999903e-07 	2.93136890893229 	-5.55111512312578e-17 	0.993450026798042 	0.00450703477203277 	0
9.99999999999903e-07 	2.93897514388925 	-5.55111512312578e-17 	0.978386790220521 	0.00411039750483574 	0
9.99999999999903e-07 	2.94631258682425 	-5.20417042793042e-17 	0.962342200679741 	0.0037192378348792 	0
9.99999999999903e-07 	2.95339073641193 	-4.85722573273506e-17 	0.945172345994979 	0.00333464341251437 	0
9.99999999999903e-07 	2.96021875565915 	-4.85722573273506e-17 	0.92667997471812 	0.00295805747530607 	0
9.99999999999903e-07 	2.96680548376697 	-4.85722573273506e-17 	0.906596261073817 	0.00259121586868437 	0
9.99999999999903e-07 	2.97315944757337 	-4.85722573273506e-17 	0.884555686133103 	0.0022362093401584 	0
9.99999999999903e-07 	2.97928887259171 	-4.85722573273506e-17 	0.860036768887621 	0.00189572465709278 	0
9.99999999999903e-07 	2.98520169365902 	-4.5102810375397e-17 	0.832263232031133 	0.00157297666839736 	0
9.99999999999903e-07 	2.99090556520806 	-4.16333634234434e-17 	0.800145910842618 	0.00127186541668444 	0
9.99999999999903e-07 	2.99640787117633 	-4.16333634234434e-17 	0.762268353059168 	0.000997110923294952 	0
9.99999999999904e-07 	3.00171573456492 	-4.85722573273506e-17 	0.716831657367671 	0.00075331506328814 	0
9.99999999999904e-07 	3.00683602665962 	-5.55111512312578e-17 	0.661582555956105 	0.000543856555869375 	0
9.99999999999904e-07 	3.01177537592612 	-5.89805981832114e-17 	0.593712498731375 	0.000370221705209649 	0
9.99999999999904e-07 	3.01654017659085 	-6.24500451351651e-17 	0.510326699519652 	0.000232000169137056 	0
9.99999999999904e-07 	3.02113659691864 	-6.24500451351651e-17 	0.410822749928591 	0.000128456931534367 	0
9.99999999999904e-07 	3.02557058719784 	-6.24500451351651e-17 	0.29905465917315 	5.88417748052825e-05 	0
9.99999999999904e-07 	3.02984788744324 	-6.59194920871187e-17 	0.181104276399558 	1.96156569813434e-05 	0
