9.99999999997963e-07 	1.00593833258374 	3.46944695195361e-18 	-0.00248192501452105 	0.000190103737355863 	1304.74814082985 	0.00037385681678591 	0
9.99999999997963e-07 	1.01006700077429 	-6.93889390390723e-18 	-0.0024706448992154 	0.000834374344875946 	293.984255355409 	0.00290474990840189 	0
9.99999999997963e-07 	1.0143469141712 	-1.73472347597681e-17 	-0.00243922350974382 	0.00230222250310547 	126.989258695368 	0.0102489174589497 	0
9.99999999997963e-07 	1.01878361332929 	-1.04083408558608e-17 	-0.00237201238768961 	0.00451752563027878 	75.7638719058572 	0.0205913288225113 	0
9.99999999997963e-07 	1.02338284177015 	-3.46944695195361e-18 	-0.00225515392271383 	0.00696686195493745 	52.4012288445491 	0.0273811664949233 	0
9.99999999997963e-07 	1.02815055341735 	-6.93889390390723e-18 	-0.00208343651599744 	0.00922170443905588 	38.406252033662 	0.0273874489566596 	0
9.99999999997963e-07 	1.03309292030413 	-1.38777878078145e-17 	-0.00186011571701897 	0.0111908948492946 	28.9346052513072 	0.0230339977343476 	0
9.99999999997963e-07 	1.03821634056339 	-1.73472347597681e-17 	-0.00159163093130991 	0.0129433980715808 	22.2999773556186 	0.0176726561316442 	0
9.99999999997963e-07 	1.04352744671036 	-1.38777878078145e-17 	-0.00128400650247695 	0.0145459714681325 	17.606031286244 	0.0130522271108024 	0
9.99999999997963e-07 	1.04903311422874 	-1.04083408558608e-17 	-0.000941958011898624 	0.0160317452087097 	14.2472210646644 	0.00961532193511658 	0
9.99999999997963e-07 	1.05474047047132 	-3.46944695195361e-18 	-0.000568802888550134 	0.0174140326026574 	11.8011751871627 	0.00722117835502489 	0
9.99999999997963e-07 	1.06065690388671 	0 	-0.000166514041834573 	0.0186995305756665 	9.98109045533191 	0.0055905020485373 	0
9.99999999997963e-07 	1.06679007358401 	-3.46944695195361e-18 	0.000264060267409108 	0.0198940034789684 	8.59605998103205 	0.00447901232622629 	0
9.99999999997963e-07 	1.07314791924792 	-1.04083408558608e-17 	0.000722890094226956 	0.0210036137110233 	7.51933774644963 	0.00371238349881286 	0
9.99999999997963e-07 	1.07973867141705 	-6.93889390390723e-18 	0.00121048899983447 	0.0220347568194425 	6.66590786584803 	0.00317524020792166 	0
9.99999999997963e-07 	1.08657086213875 	3.46944695195361e-18 	0.00172771387439292 	0.0229936464817805 	5.97774773222305 	0.00279302761192176 	0
9.99999999997963e-07 	1.09365333601424 	6.93889390390723e-18 	0.00227563113159513 	0.0238860068510994 	5.41444295762375 	0.00251755435421589 	0
9.99999999997963e-07 	1.10099526164836 	0 	0.00285542871398862 	0.0247169100922335 	4.94724706210642 	0.00231729082849626 	0
9.99999999997964e-07 	1.10860614351883 	-1.04083408558608e-17 	0.00346835719611015 	0.0254907188763445 	4.55529285599814 	0.00217124015136037 	0
9.99999999997964e-07 	1.11649583428022 	-1.04083408558608e-17 	0.00411568928554736 	0.0262110905777126 	4.22314033901481 	0.0020651351797224 	0
9.99999999997964e-07 	1.12467454751866 	-6.93889390390723e-18 	0.00479869112730981 	0.0268810127617019 	3.93916074235698 	0.00198907526878409 	0
9.99999999997964e-07 	1.13315287097387 	-1.04083408558608e-17 	0.00551860129147016 	0.0275028516100535 	3.69445090278954 	0.00193604108074989 	0
9.99999999997964e-07 	1.1419417802455 	-1.38777878078145e-17 	0.00627661482052503 	0.0280784032397305 	3.48208974175147 	0.00190094574511475 	0
9.99999999997964e-07 	1.15105265300151 	-1.73472347597681e-17 	0.00707387061950679 	0.0286089429997281 	3.29661949001712 	0.00188001682361089 	0
9.99999999997964e-07 	1.1604972837072 	-1.73472347597681e-17 	0.0079114410185733 	0.0290952708324888 	3.13367732209657 	0.00187038511655387 	0
9.99999999997963e-07 	1.17028789889366 	-1.38777878078145e-17 	0.00879032267154099 	0.0295377524939263 	2.98972951216918 	0.00186980486031933 	0
9.99999999997963e-07 	1.1804371729856 	-1.38777878078145e-17 	0.0097114281661086 	0.0299363573800253 	2.8618767289264 	0.00187645884505748 	0
9.99999999997964e-07 	1.19095824470904 	-1.73472347597681e-17 	0.0106755778676598 	0.0302906942341335 	2.74770955774043 	0.00188881949014935 	0
9.99999999997964e-07 	1.20186473410002 	-2.42861286636753e-17 	0.0116834916319155 	0.0306000462936718 	2.64520009458986 	0.00190554766104574 	0
9.99999999997963e-07 	1.21317076013637 	-2.42861286636753e-17 	0.0127357801219327 	0.0308634075788623 	2.55261988994998 	0.00192541773547626 	0
9.99999999997963e-07 	1.22489095901541 	-2.42861286636753e-17 	0.0138329355620101 	0.0310795220779356 	2.46847747962858 	0.00194726173062214 	0
9.99999999997963e-07 	1.23704050310127 	-3.46944695195361e-17 	0.0149753218579736 	0.0312469275593803 	2.39147074535317 	0.00196992812600851 	0
9.99999999997963e-07 	1.24963512056618 	-4.16333634234434e-17 	0.016163164108365 	0.0313640056374753 	2.32045072619103 	0.00199225291201788 	0
9.99999999997963e-07 	1.26269111575138 	-4.5102810375397e-17 	0.0173965376201357 	0.0314290395142378 	2.25439445725358 	0.00201304168098878 	0
9.99999999997964e-07 	1.27622539027388 	-4.85722573273506e-17 	0.01867535662098 	0.0314402804925785 	2.19238507404521 	0.00203106243342038 	0
9.99999999997964e-07 	1.29025546490642 	-4.5102810375397e-17 	0.0199993629248621 	0.0313960238729281 	2.1335978714771 	0.00204504928162875 	0
9.99999999997964e-07 	1.30479950225895 	-3.81639164714898e-17 	0.0213681148554294 	0.0312946941840711 	2.07729129871446 	0.00205371742569356 	0
9.99999999997963e-07 	1.31987633029101 	-3.46944695195361e-17 	0.0227809767627189 	0.0311349388458711 	2.0228020397583 	0.00205578964769428 	0
9.99999999997963e-07 	1.33550546668544 	-3.46944695195361e-17 	0.0242371094807844 	0.0309157283262422 	1.96954340082103 	0.00205003410649636 	0
9.99999999997963e-07 	1.35170714411495 	-3.46944695195361e-17 	0.0257354620658422 	0.0306364596776705 	1.91700622194169 	0.00203531241732543 	0
9.99999999997963e-07 	1.3685023364343 	-4.16333634234434e-17 	0.027274765123628 	0.030297059099329 	1.86476147617163 	0.00201063590735402 	0
9.99999999997963e-07 	1.38591278583198 	-5.20417042793042e-17 	0.0288535259785833 	0.0298980779904346 	1.81246364346919 	0.00197522665003504 	0
9.99999999997963e-07 	1.40396103097652 	-5.55111512312578e-17 	0.0304700258564716 	0.0294407759961645 	1.75985388117089 	0.00192857856862168 	0
9.99999999997963e-07 	1.42267043619387 	-5.89805981832114e-17 	0.0321223191515571 	0.0289271839768739 	1.70676199387679 	0.00187051280126902 	0
9.99999999997963e-07 	1.44206522171365 	-7.28583859910259e-17 	0.0338082347421171 	0.0283601398273486 	1.65310626556799 	0.00180122091121032 	0
9.99999999997963e-07 	1.46217049502345 	-8.32667268468867e-17 	0.035525379223554 	0.0277432907722489 	1.59889037934695 	0.00172128966418572 	0
9.99999999997963e-07 	1.48301228337162 	-8.32667268468867e-17 	0.037271141871123 	0.0270810572380299 	1.54419692308739 	0.00163170215641914 	0
9.99999999997963e-07 	1.50461756746086 	-8.32667268468867e-17 	0.03904270114843 	0.0263785556353857 	1.48917734980777 	0.00153381208765087 	0
9.99999999997963e-07 	1.52701431637602 	-8.32667268468867e-17 	0.0408370326618859 	0.0256414802713549 	1.43403869589345 	0.00142929077157294 	0
9.99999999997963e-07 	1.55023152379143 	-8.32667268468867e-17 	0.0426509186332774 	0.0248759479519937 	1.37902780704299 	0.0013200496994201 	0
9.99999999997963e-07 	1.57429924550461 	-8.32667268468867e-17 	0.0444809592148649 	0.0240883123682235 	1.32441421920811 	0.00120814461086442 	0
9.99999999997963e-07 	1.59924863834497 	-8.32667268468867e-17 	0.0463235862739496 	0.0232849587464195 	1.27047312586272 	0.00109566951869279 	0
9.99999999997963e-07 	1.62511200050781 	-8.67361737988404e-17 	0.0481750805618998 	0.0224720920730173 	1.21746997506847 	0.000984650493986387 	0
9.99999999997963e-07 	1.65192281336592 	-9.36750677027476e-17 	0.050031593348503 	0.0216555339313879 	1.16564813416188 	0.000876948949370594 	0
9.99999999997963e-07 	1.67971578481282 	-8.67361737988404e-17 	0.0518891735632462 	0.0208405430603551 	1.1152207149051 	0.000774182594041445 	0
9.99999999997963e-07 	1.70852689419381 	-7.97972798949331e-17 	0.0537438012994712 	0.0200316732143584 	1.06636709175265 	0.000677669300354049 	0
9.99999999997963e-07 	1.73839343888296 	-7.97972798949331e-17 	0.0555914280481535 	0.019232680727485 	1.01923397117921 	0.000588395309046562 	0
9.99999999997963e-07 	1.76935408256639 	-7.63278329429795e-17 	0.057428022169982 	0.0184464948573055 	0.973940262413093 	0.000507005876248645 	0
9.99999999997963e-07 	1.80144890529425 	-7.63278329429795e-17 	0.0592496144864561 	0.0176752601747488 	0.930584628799135 	0.000433815210611218 	0
9.99999999997963e-07 	1.83471945536633 	-7.63278329429795e-17 	0.0610523386591729 	0.0169204429557576 	0.889254484953908 	0.000368832748028479 	0
9.99999999997963e-07 	1.86920880311829 	-7.63278329429795e-17 	0.0628324734809884 	0.0161829662730706 	0.850035234344349 	0.000311802434403415 	0
9.99999999997963e-07 	1.9049615966783 	-7.28583859910259e-17 	0.0645864851958987 	0.0154633147565137 	0.813018612729315 	0.000262256897437052 	0
9.99999999997964e-07 	1.94202411976624 	-7.63278329429795e-17 	0.0663108851860646 	0.0147615430400433 	0.778309093029879 	0.000219609814394821 	0
9.99999999997964e-07 	1.98044435161018 	-7.63278329429795e-17 	0.0680022021350905 	0.0140771719524959 	0.746028830384079 	0.000183150266406386 	0
9.99999999997964e-07 	2.02025965173184 	-7.28583859910259e-17 	0.0696438764954644 	0.0134145533458685 	0.716550140428486 	0.000152216924879194 	0
9.99999999997964e-07 	2.06006301192217 	-7.28583859910259e-17 	0.0711943464282734 	0.0127874222168306 	0.690602268105468 	0.000126483422176517 	0
9.99999999997964e-07 	2.09845978584128 	-6.93889390390723e-17 	0.0726201065431486 	0.0122060167882412 	0.66861087695113 	0.000105460204684795 	0
9.99999999997964e-07 	2.13549967996945 	-6.93889390390723e-17 	0.0739214109133556 	0.0116682663966449 	0.650375710468575 	8.81787335180976e-05 	0
9.99999999997964e-07 	2.17123064424048 	-7.28583859910259e-17 	0.0751115329089456 	0.0111683422115497 	0.635537693788113 	7.37140713332761e-05 	0
9.99999999997964e-07 	2.20569893411515 	-7.63278329429795e-17 	0.0762020785959972 	0.0107018478767628 	0.623824162693941 	6.14380185816891e-05 	0
9.99999999997964e-07 	2.23894917046122 	-7.63278329429795e-17 	0.0772031573074347 	0.0102654816779212 	0.615035825292572 	5.094664640414e-05 	0
9.99999999997964e-07 	2.27102439731725 	-7.63278329429795e-17 	0.0781236260991479 	0.009856757370501 	0.609036075038249 	4.20050880228873e-05 	0
9.99999999997964e-07 	2.30196613761521 	-8.32667268468867e-17 	0.078971261779306 	0.00947379024894025 	0.60574264577258 	3.45045269240808e-05 	0
9.99999999997964e-07 	2.33181444693391 	-9.0205620750794e-17 	0.0797529046027108 	0.00911514063244838 	0.605121415714052 	2.84317428792851e-05 	0
9.99999999997964e-07 	2.3606079653529 	-9.0205620750794e-17 	0.0804745841634839 	0.00877970292518086 	0.607182114843381 	2.38484632684304e-05 	0
9.99999999997964e-07 	2.3883839674739 	-9.0205620750794e-17 	0.08114162797376 	0.00846662878062423 	0.61197567483219 	2.08783002076053e-05 	0
9.99999999997964e-07 	2.41517841067461 	-9.0205620750794e-17 	0.081758754752947 	0.00817527470936427 	0.61959295624912 	1.96994125249895e-05 	0
9.99999999997964e-07 	2.44102598165722 	-9.0205620750794e-17 	0.0823301548317358 	0.00790516647537746 	0.630164588234826 	2.05413287504473e-05 	0
9.99999999997964e-07 	2.46596014135207 	-9.0205620750794e-17 	0.0828595596682679 	0.00765597437573915 	0.64386165663473 	2.36846325715109e-05 	0
9.99999999997964e-07 	2.49001316823443 	-9.0205620750794e-17 	0.0833503021106557 	0.00742749487588687 	0.660896972245223 	2.94624062445334e-05 	0
9.99999999997964e-07 	2.51321620011054 	-9.36750677027476e-17 	0.0838053687607375 	0.0072196350988852 	0.681526636990705 	3.82624422912693e-05 	0
9.99999999997964e-07 	2.535599274427 	-1.07552855510562e-16 	0.0842274455574845 	0.00703239741721324 	0.706051601218589 	5.05292850849939e-05 	0
9.99999999997964e-07 	2.55719136715571 	-1.17961196366423e-16 	0.0846189574964388 	0.00686586196240854 	0.73481887298216 	6.67651781958215e-05 	0
9.99999999997963e-07 	2.57802043030465 	-1.17961196366423e-16 	0.084982103230492 	0.00672016534838473 	0.768222008501399 	8.75290070499209e-05 	0
9.99999999997963e-07 	2.59811342810315 	-1.17961196366423e-16 	0.0853188851536141 	0.00659547439113492 	0.806700495824968 	0.000113432384622536 	0
9.99999999997964e-07 	2.61749637190832 	-1.17961196366423e-16 	0.0856311354512201 	0.0064919541801093 	0.850737659891373 	0.000145132178932592 	0
9.99999999997963e-07 	2.63619435387806 	-1.14491749414469e-16 	0.0859205385092714 	0.00640973056710047 	0.90085678827953 	0.000183319066418362 	0
9.99999999997963e-07 	2.65423157945406 	-1.11022302462516e-16 	0.0861886500105352 	0.00634884799518185 	0.957615322902884 	0.000228702134593871 	0
9.99999999997963e-07 	2.67163139869691 	-1.14491749414469e-16 	0.0864369130116698 	0.00630922454132379 	1.02159719567543 	0.000281990133979067 	0
9.99999999997963e-07 	2.68841633651388 	-1.17961196366423e-16 	0.0866666712875593 	0.00629060697365493 	1.09340370259316 	0.000343870632037626 	0
9.99999999997963e-07 	2.7046081218185 	-1.17961196366423e-16 	0.0868791802442716 	0.00629252935599483 	1.17364368725408 	0.000414988951890868 	0
9.99999999997963e-07 	2.72022771565972 	-1.17961196366423e-16 	0.087075615729337 	0.00631427907830898 	1.26292419754828 	0.000495929273882162 	0
9.99999999997963e-07 	2.73529533835694 	-1.17961196366423e-16 	0.0872570810932503 	0.00635487399799117 	1.36184313008179 	0.000587200550267694 	0
9.99999999997963e-07 	2.74983049567625 	-1.14491749414469e-16 	0.0874246128634065 	0.00641305357972086 	1.47098562639956 	0.00068922990164769 	0
9.99999999997963e-07 	2.76385200408156 	-1.11022302462516e-16 	0.0875791853861759 	0.00648728558045872 	1.59092608681068 	0.000802365969491743 	0
9.99999999997963e-07 	2.77737801509343 	-1.11022302462516e-16 	0.0877217148147777 	0.00657578811626118 	1.72223759926083 	0.000926894400340545 	0
9.99999999997963e-07 	2.79042603878708 	-1.14491749414469e-16 	0.0878530626957135 	0.00667656511199546 	1.86551034780327 	0.00106306739515962 	0
9.99999999997963e-07 	2.80301296646003 	-1.2490009027033e-16 	0.0879740383119185 	0.00678745141063389 	2.02138019683856 	0.00121114912792365 	0
9.99999999997963e-07 	2.81515509249872 	-1.31838984174237e-16 	0.0880853986222286 	0.00690616236970408 	2.19056818758704 	0.00137147834563218 	0
9.99999999997963e-07 	2.82686813547237 	-1.31838984174237e-16 	0.0881878579792748 	0.00703034167303106 	2.373931190626 	0.00154454736584562 	0
9.99999999997963e-07 	2.83816725848142 	-1.31838984174237e-16 	0.0882821475218323 	0.00715760037213512 	2.5725235210867 	0.00173242035418119 	0
9.99999999997963e-07 	2.84906708878691 	-1.31838984174237e-16 	0.0883689174307229 	0.00728555724300695 	2.78779073687581 	0.00193880585734131 	0
9.99999999997963e-07 	2.85958173674616 	-1.28369537222284e-16 	0.0884485596803123 	0.00741186008653196 	3.02184336519884 	0.00216552786784865 	0
9.99999999997963e-07 	2.86972481407933 	-1.2490009027033e-16 	0.0885214143223705 	0.00753398514842879 	3.27719442388376 	0.00241176710273536 	0
9.99999999997963e-07 	2.87950945149043 	-1.2490009027033e-16 	0.0885879235433456 	0.00764889112030316 	3.55604435081351 	0.00267449648470107 	0
9.99999999997963e-07 	2.88894831566566 	-1.2490009027033e-16 	0.0886484821402531 	0.00775314954474671 	3.86026919367852 	0.00294861943602638 	0
9.99999999997963e-07 	2.89805362567106 	-1.31838984174237e-16 	0.0887034760020209 	0.00784357247536414 	4.19226830796834 	0.00323099335776495 	0
9.99999999997963e-07 	2.90683716877067 	-1.38777878078145e-16 	0.0887534200602664 	0.00791768062366622 	4.55584744855351 	0.00352303588214386 	0
9.99999999997964e-07 	2.91531031568569 	-1.38777878078145e-16 	0.0887990654343627 	0.00797380411441072 	4.95695739112838 	0.00383154774134189 	0
9.99999999997964e-07 	2.92348403531448 	-1.38777878078145e-16 	0.0888413983934182 	0.00801089546602749 	5.40463079346318 	0.00416644488800642 	0
9.99999999997964e-07 	2.9313689089323 	-1.38777878078145e-16 	0.0888811503994981 	0.00802816870809582 	5.91189561801502 	0.00453989990755626 	0
9.99999999997964e-07 	2.93897514388925 	-1.42247325030098e-16 	0.088918329977314 	0.00802468386809865 	6.49609283812152 	0.00496750372786185 	0
9.99999999997964e-07 	2.94631258682425 	-1.42247325030098e-16 	0.0889526447481501 	0.007998954133874 	7.17940457340752 	0.00546370966237929 	0
9.99999999997964e-07 	2.95339073641193 	-1.38777878078145e-16 	0.0889840562258512 	0.00794871550319496 	7.99079017191669 	0.00604380815965545 	0
9.99999999997964e-07 	2.96021875565916 	-1.38777878078145e-16 	0.0890126973650451 	0.00787068834324569 	8.9691360366778 	0.00673371915970945 	0
9.99999999997963e-07 	2.96680548376697 	-1.38777878078145e-16 	0.0890387697324073 	0.00775976922178731 	10.16803877201 	0.00756666244767929 	0
9.99999999997963e-07 	2.97315944757337 	-1.38777878078145e-16 	0.0890624976332498 	0.00760759448396503 	11.6628647127136 	0.00857509036631023 	0
9.99999999997963e-07 	2.97928887259171 	-1.45716771982052e-16 	0.0890838404474909 	0.00740091437703939 	13.5583824813981 	0.00978894242947416 	0
9.99999999997963e-07 	2.98520169365903 	-1.52655665885959e-16 	0.0891024700121754 	0.00711973339155151 	15.9975102389666 	0.0112145082045719 	0
9.99999999997963e-07 	2.99090556520806 	-1.52655665885959e-16 	0.0891181058079523 	0.00673546447876757 	19.1772129907501 	0.01279856041133 	0
9.99999999997963e-07 	2.99640787117633 	-1.52655665885959e-16 	0.0891306686487508 	0.00621027138872878 	23.381115100188 	0.0143810619970105 	0
9.99999999997963e-07 	3.00171573456492 	-1.52655665885959e-16 	0.0891402349089061 	0.005500047678175 	29.0545053367495 	0.0156263627711108 	0
9.99999999997963e-07 	3.00683602665963 	-1.52655665885959e-16 	0.0891469905031121 	0.00456433127993372 	37.0084150298874 	0.0158250435398229 	0
9.99999999997963e-07 	3.01177537592613 	-1.52655665885959e-16 	0.0891512661419326 	0.00340238716220798 	49.0448790178081 	0.0138346493083175 	0
9.99999999997963e-07 	3.01654017659085 	-1.52655665885959e-16 	0.0891536264382478 	0.0021397190560554 	70.2056160557744 	0.00935232291051118 	0
9.99999999997963e-07 	3.02113659691864 	-1.52655665885959e-16 	0.0891547369610992 	0.00105181292130725 	118.14965192784 	0.00433721649664953 	0
9.99999999997963e-07 	3.02557058719784 	-1.52655665885959e-16 	0.0891550808186684 	0.00037077970539783 	274.424410021424 	0.00120762917204622 	0
9.99999999997963e-07 	3.02984788744324 	-1.52655665885959e-16 	0.0891549402976534 	8.34216091882952e-05 	1216.28008409263 	0.000166189050051507 	0
