9.99999999999901e-07 	1.00195556483898 	-3.46944695195361e-18 	0.0328854110518072 	0.000211158147532086 	3.28771858791486e-24
9.99999999999901e-07 	1.00593833258374 	-3.46944695195361e-18 	0.117031729539424 	0.00145074060999671 	1.53647918975033e-23
9.99999999999901e-07 	1.01006700077429 	-3.46944695195361e-18 	0.231977429105089 	0.00459949467967737 	1.31042900053539e-23
9.99999999999901e-07 	1.0143469141712 	-6.93889390390723e-18 	0.358428928512711 	0.00956706543669653 	-1.06260735039981e-23
9.99999999999901e-07 	1.01878361332929 	-6.93889390390723e-18 	0.471271976422037 	0.0153389695575603 	-2.35966459510901e-23
9.99999999999901e-07 	1.02338284177015 	0 	0.555917135494471 	0.0209053499077881 	-1.12054262242166e-23
9.99999999999901e-07 	1.02815055341735 	6.93889390390723e-18 	0.612854982058204 	0.0258316310158898 	7.37355602292426e-25
9.99999999999902e-07 	1.03309292030413 	6.93889390390723e-18 	0.649716378477968 	0.0300728743720547 	-5.41357084404915e-25
9.99999999999902e-07 	1.03821634056339 	1.04083408558608e-17 	0.674028314132386 	0.0337208823402555 	-1.08281560391156e-24
9.99999999999901e-07 	1.04352744671036 	1.38777878078145e-17 	0.69094512386985 	0.0369013656813025 	-1.98661492488128e-24
9.99999999999901e-07 	1.04903311422874 	1.04083408558608e-17 	0.703523125683378 	0.0397273866145455 	-2.89050333631165e-24
9.99999999999901e-07 	1.05474047047132 	0 	0.713492718104833 	0.0422845774364987 	-1.44522835030234e-24
9.99999999999901e-07 	1.06065690388671 	-3.46944695195361e-18 	0.72183793045956 	0.0446336038911994 	1.22358074883699e-24
9.99999999999901e-07 	1.06679007358401 	0 	0.729134410554424 	0.046816652001808 	2.44712146622571e-24
9.99999999999901e-07 	1.07314791924792 	-3.46944695195361e-18 	0.735732299278206 	0.0488629513423262 	1.91188160755322e-24
9.99999999999901e-07 	1.07973867141705 	-6.93889390390723e-18 	0.741854106967225 	0.0507925849695179 	-6.4038530259893e-18
9.99999999999901e-07 	1.08657086213875 	-6.93889390390723e-18 	0.747647701243797 	0.052618975973841 	-6.88246115613401e-18
9.99999999999901e-07 	1.09365333601424 	-6.93889390390723e-18 	0.753215540949113 	0.0543505975675718 	5.44624129938821e-18
9.99999999999901e-07 	1.10099526164836 	-1.73472347597681e-17 	0.758631226207036 	0.0559923182016805 	5.92484873069949e-18
9.99999999999901e-07 	1.10860614351883 	-2.08166817117217e-17 	0.76394918856702 	0.0575465592288087 	0
9.99999999999901e-07 	1.11649583428022 	-2.08166817117217e-17 	0.769210596285043 	0.0590142716077084 	0
9.99999999999901e-07 	1.12467454751866 	-3.12250225675825e-17 	0.774447154686648 	0.0603956800026638 	-6.54505121706695e-25
9.99999999999901e-07 	1.13315287097387 	-3.81639164714898e-17 	0.779683731836686 	0.0616907647411852 	-1.30913609309999e-24
9.99999999999901e-07 	1.1419417802455 	-4.16333634234434e-17 	0.784940292649021 	0.0628995011852172 	-2.0583773766286e-24
9.99999999999901e-07 	1.15105265300152 	-4.5102810375397e-17 	0.790233362045564 	0.0640219090416074 	-2.80805611729092e-24
9.99999999999901e-07 	1.1604972837072 	-4.85722573273506e-17 	0.795577107190928 	0.0650579775056651 	1.28079778192016e-25
9.99999999999901e-07 	1.17028789889366 	-4.5102810375397e-17 	0.800984089460927 	0.0660075369205128 	1.86092536404311e-24
9.99999999999901e-07 	1.1804371729856 	-3.81639164714898e-17 	0.806465749002459 	0.0668701441160396 	-8.74573121157124e-25
9.99999999999901e-07 	1.19095824470904 	-3.81639164714898e-17 	0.812032708911006 	0.0676450303306999 	-1.20322465067804e-24
9.99999999999901e-07 	1.20186473410002 	-4.16333634234434e-17 	0.817694991379476 	0.0683311287851766 	0
9.99999999999901e-07 	1.21317076013637 	-4.5102810375397e-17 	0.823462215296967 	0.0689271664358065 	0
9.99999999999901e-07 	1.22489095901541 	-4.5102810375397e-17 	0.829343809063 	0.0694317837553703 	0
9.99999999999901e-07 	1.23704050310127 	-5.20417042793042e-17 	0.835349233072368 	0.0698436336263083 	4.1048490360838e-24
9.99999999999901e-07 	1.24963512056618 	-5.89805981832114e-17 	0.841488158710394 	0.0701614331469709 	1.26270777959094e-23
9.99999999999901e-07 	1.26269111575138 	-5.55111512312578e-17 	0.84777056152805 	0.0703840198427005 	1.29396309720279e-23
9.99999999999901e-07 	1.27622539027388 	-5.20417042793042e-17 	0.854206740338965 	0.0705104755637698 	-6.63675782113278e-25
9.99999999999901e-07 	1.29025546490642 	-4.5102810375397e-17 	0.860807255812052 	0.0705403070021808 	-1.01622454809784e-23
9.99999999999901e-07 	1.30479950225895 	-4.16333634234434e-17 	0.867582752985324 	0.0704736408587823 	-1.08789941430294e-23
9.99999999999902e-07 	1.31987633029101 	-4.16333634234434e-17 	0.874543653975188 	0.0703113945758619 	-1.15958388618021e-23
9.99999999999902e-07 	1.33550546668544 	-3.81639164714898e-17 	0.881699731113046 	0.0700553865796996 	-5.79801218554088e-24
9.99999999999902e-07 	1.35170714411495 	-3.12250225675825e-17 	0.889059586417276 	0.0697083617962366 	0
9.99999999999902e-07 	1.3685023364343 	-3.12250225675825e-17 	0.896630080441068 	0.0692739192591296 	0
9.99999999999902e-07 	1.38591278583198 	-3.46944695195361e-17 	0.9044157660664 	0.0687563483412724 	1.42681158479928e-24
9.99999999999902e-07 	1.40396103097652 	-3.12250225675825e-17 	0.912418373994448 	0.0681604018402895 	-1.35840793715076e-23
9.99999999999901e-07 	1.42267043619387 	-3.12250225675825e-17 	0.920636386831811 	0.0674910476058162 	-1.41463394891006e-23
9.99999999999901e-07 	1.44206522171365 	-3.46944695195361e-17 	0.929064740338059 	0.0667532431592589 	1.75499787020371e-24
9.99999999999901e-07 	1.46217049502345 	-3.46944695195361e-17 	0.937694664645341 	0.0659517603583809 	2.07297497905897e-23
9.99999999999901e-07 	1.48301228337162 	-3.12250225675825e-17 	0.946513638357033 	0.0650910629422802 	3.80939149364643e-23
9.99999999999902e-07 	1.50461756746086 	-3.12250225675825e-17 	0.955505418374043 	0.0641752249047271 	2.40438479256767e-25
9.99999999999902e-07 	1.52701431637602 	-3.12250225675825e-17 	0.964650120288253 	0.0632078735466613 	-1.80056169238369e-23
9.99999999999902e-07 	1.55023152379143 	-2.77555756156289e-17 	0.973924339620433 	0.0621921453141833 	-2.12258078250402e-24
9.99999999999902e-07 	1.57429924550461 	-2.77555756156289e-17 	0.98330131625895 	0.0611306490531758 	-4.24093965381609e-24
9.99999999999902e-07 	1.59924863834497 	-3.12250225675825e-17 	0.992751150824552 	0.0600254356488393 	-2.12306479349425e-24
9.99999999999902e-07 	1.62511200050781 	-3.12250225675825e-17 	1.00224108740872 	0.0588779703179738 	-5.0493254496068e-23
9.99999999999902e-07 	1.65192281336592 	-2.42861286636753e-17 	1.01173589022432 	0.0576890970554394 	-1.08768006526949e-24
9.99999999999902e-07 	1.67971578481282 	-2.08166817117217e-17 	1.02119835988344 	0.0564589850676434 	4.60733967118302e-23
9.99999999999902e-07 	1.70852689419381 	-2.42861286636753e-17 	1.03059004378524 	0.055187062877151 	-1.62293885158466e-22
9.99999999999902e-07 	1.73839343888296 	-2.77555756156289e-17 	1.0398721803078 	0.0538719736317287 	-1.57307299359386e-22
9.99999999999902e-07 	1.76935408256639 	-2.77555756156289e-17 	1.0490068632196 	0.0525116042082856 	5.89208722888357e-23
9.99999999999902e-07 	1.80144890529425 	-2.77555756156289e-17 	1.0579583206815 	0.0511032228353388 	6.18477065030685e-23
9.99999999999902e-07 	1.83471945536633 	-2.42861286636753e-17 	1.06669414402464 	0.0496437273786473 	-1.05989781463245e-22
9.99999999999902e-07 	1.86920880311829 	-2.42861286636753e-17 	1.07518627870422 	0.0481299979186023 	-9.84470866311225e-23
9.99999999999902e-07 	1.9049615966783 	-1.73472347597681e-17 	1.08341149193095 	0.0465593174354582 	1.39482565332612e-22
9.99999999999902e-07 	1.94202411976624 	-3.46944695195361e-18 	1.09135113780415 	0.0449296445996424 	1.27367162616418e-22
9.99999999999902e-07 	1.98044435161018 	-3.46944695195361e-18 	1.09899093767392 	0.0432395532328545 	0
9.99999999999902e-07 	2.02025965173184 	-1.04083408558608e-17 	1.10626078056161 	0.0415039211262026 	0
9.99999999999902e-07 	2.06006301192217 	-6.93889390390723e-18 	1.11298971885101 	0.0397716863607519 	0
9.99999999999902e-07 	2.09845978584128 	-3.46944695195361e-18 	1.11905816310885 	0.0380920260880252 	0
9.99999999999902e-07 	2.13549967996945 	-6.93889390390723e-18 	1.12449591674779 	0.0364808023421992 	0
9.99999999999902e-07 	2.17123064424048 	-6.93889390390723e-18 	1.12938011667186 	0.034937976463703 	0
9.99999999999902e-07 	2.20569893411515 	-1.04083408558608e-17 	1.13377331563815 	0.0334628396401983 	0
9.99999999999902e-07 	2.23894917046122 	-1.38777878078145e-17 	1.13772594204223 	0.0320540378136504 	0
9.99999999999903e-07 	2.27102439731725 	-1.73472347597681e-17 	1.14127855007965 	0.0307096296553854 	0
9.99999999999903e-07 	2.30196613761521 	-1.73472347597681e-17 	1.14446372120578 	0.0294272299347786 	0
9.99999999999903e-07 	2.33181444693391 	-1.04083408558608e-17 	1.14730759926531 	0.0282041517095221 	0
9.99999999999903e-07 	2.3606079653529 	-6.93889390390723e-18 	1.14983109152197 	0.02703752896611 	0
9.99999999999903e-07 	2.3883839674739 	-6.93889390390723e-18 	1.15205078505958 	0.0259244168096748 	0
9.99999999999903e-07 	2.41517841067461 	-6.93889390390723e-18 	1.15397963043696 	0.0248618689867346 	0
9.99999999999903e-07 	2.44102598165722 	-6.93889390390723e-18 	1.15562743990977 	0.0238469946867276 	0
9.99999999999903e-07 	2.46596014135207 	-6.93889390390723e-18 	1.15700124027411 	0.0228769977541519 	0
9.99999999999903e-07 	2.49001316823443 	-1.04083408558608e-17 	1.15810551280689 	0.0219492016955291 	0
9.99999999999903e-07 	2.51321620011054 	-2.08166817117217e-17 	1.15894234601479 	0.0210610636512539 	0
9.99999999999903e-07 	2.535599274427 	-3.12250225675825e-17 	1.15951152142664 	0.020210180093184 	0
9.99999999999903e-07 	2.55719136715571 	-3.46944695195361e-17 	1.15981054860276 	0.0193942865385241 	0
9.99999999999903e-07 	2.57802043030465 	-3.81639164714898e-17 	1.159834662864 	0.0186112531124544 	0
9.99999999999903e-07 	2.59811342810315 	-4.16333634234434e-17 	1.15957679787234 	0.0178590773837951 	0
9.99999999999903e-07 	2.61749637190832 	-4.16333634234434e-17 	1.15902754501179 	0.0171358755549664 	0
9.99999999999903e-07 	2.63619435387806 	-3.81639164714898e-17 	1.15817511238323 	0.0164398728117111 	0
9.99999999999903e-07 	2.65423157945406 	-3.46944695195361e-17 	1.15700529794633 	0.0157693934247509 	0
9.99999999999903e-07 	2.67163139869691 	-3.81639164714898e-17 	1.15550149361457 	0.0151228510368184 	0
9.99999999999903e-07 	2.68841633651388 	-4.16333634234434e-17 	1.1536447394572 	0.0144987394551522 	0
9.99999999999903e-07 	2.7046081218185 	-4.16333634234434e-17 	1.15141384887246 	0.0138956241920584 	0
9.99999999999903e-07 	2.72022771565972 	-4.16333634234434e-17 	1.14878562568824 	0.013312134944945 	0
9.99999999999903e-07 	2.73529533835694 	-4.16333634234434e-17 	1.14573519143176 	0.0127469591726471 	0
9.99999999999903e-07 	2.74983049567625 	-3.81639164714898e-17 	1.1422364342758 	0.0121988368971782 	0
9.99999999999903e-07 	2.76385200408156 	-3.12250225675825e-17 	1.13826257953733 	0.0116665568297917 	0
9.99999999999903e-07 	2.77737801509343 	-3.12250225675825e-17 	1.13378686501434 	0.0111489538789222 	0
9.99999999999903e-07 	2.79042603878708 	-3.46944695195361e-17 	1.1287832841496 	0.0106449080386798 	0
9.99999999999903e-07 	2.80301296646003 	-3.81639164714898e-17 	1.12322733881734 	0.0101533445767199 	0
9.99999999999903e-07 	2.81515509249872 	-3.81639164714898e-17 	1.11709672555906 	0.00967323534069013 	0
9.99999999999903e-07 	2.82686813547237 	-3.81639164714898e-17 	1.11037186886626 	0.00920360089122874 	0
9.99999999999903e-07 	2.83816725848142 	-4.5102810375397e-17 	1.10303621611737 	0.00874351306716561 	0
9.99999999999903e-07 	2.84906708878691 	-4.85722573273506e-17 	1.0950762220314 	0.0082920975381466 	0
9.99999999999903e-07 	2.85958173674616 	-4.85722573273506e-17 	1.08648097356471 	0.0078485359807435 	0
9.99999999999903e-07 	2.86972481407933 	-4.85722573273506e-17 	1.07724143313968 	0.00741206785404669 	0
9.99999999999903e-07 	2.87950945149043 	-5.20417042793042e-17 	1.06734930041015 	0.00698199251733451 	0
9.99999999999903e-07 	2.88894831566566 	-5.55111512312578e-17 	1.05679550071858 	0.00655767373258755 	0
9.99999999999903e-07 	2.89805362567106 	-5.55111512312578e-17 	1.0455682930666 	0.0061385501973832 	0
9.99999999999903e-07 	2.90683716877067 	-5.20417042793042e-17 	1.03365094661535 	0.00572415688192538 	0
9.99999999999903e-07 	2.91531031568569 	-4.85722573273506e-17 	1.02101886549498 	0.00531416219933687 	0
9.99999999999903e-07 	2.92348403531448 	-5.20417042793042e-17 	1.00763596411758 	0.00490842134491736 	0
9.99999999999903e-07 	2.93136890893229 	-5.55111512312578e-17 	0.993450034613906 	0.00450703458136766 	0
9.99999999999903e-07 	2.93897514388925 	-5.55111512312578e-17 	0.978386797360318 	0.00411039707207698 	0
9.99999999999903e-07 	2.94631258682425 	-5.20417042793042e-17 	0.962342206917011 	0.00371923730864967 	0
9.99999999999903e-07 	2.95339073641193 	-4.85722573273506e-17 	0.945172351044752 	0.00333464296754739 	0
9.99999999999903e-07 	2.96021875565915 	-4.85722573273506e-17 	0.926679978248365 	0.00295805729066381 	0
9.99999999999903e-07 	2.96680548376697 	-4.85722573273506e-17 	0.906596262731531 	0.00259121610822345 	0
9.99999999999903e-07 	2.97315944757337 	-4.85722573273506e-17 	0.884555685611339 	0.00223621014362527 	0
9.99999999999903e-07 	2.97928887259171 	-4.85722573273506e-17 	0.860036765631962 	0.00189572612504114 	0
9.99999999999903e-07 	2.98520169365902 	-4.5102810375397e-17 	0.832263224699763 	0.00157297883719295 	0
9.99999999999903e-07 	2.99090556520806 	-4.16333634234434e-17 	0.800145897988963 	0.00127186826071459 	0
9.99999999999903e-07 	2.99640787117633 	-4.16333634234434e-17 	0.762268334414678 	0.000997114362178388 	0
9.99999999999904e-07 	3.00171573456492 	-4.85722573273506e-17 	0.716831633962413 	0.000753318933533865 	0
9.99999999999904e-07 	3.00683602665962 	-5.55111512312578e-17 	0.66158253003733 	0.000543860555092053 	0
9.99999999999904e-07 	3.01177537592612 	-5.89805981832114e-17 	0.593712473887288 	0.000370225329267505 	0
9.99999999999904e-07 	3.01654017659085 	-6.24500451351651e-17 	0.510326679615955 	0.00023200275703717 	0
9.99999999999904e-07 	3.02113659691864 	-6.24500451351651e-17 	0.410822736886424 	0.000128457990783946 	0
9.99999999999904e-07 	3.02557058719784 	-6.24500451351651e-17 	0.299054651925022 	5.88414344790013e-05 	0
9.99999999999904e-07 	3.02984788744324 	-6.59194920871187e-17 	0.181104272770741 	1.96147578736119e-05 	0
