/*--------------------------------*- C++ -*----------------------------------*\
  =========                 |
  \\      /  F ield         | OpenFOAM: The Open Source CFD Toolbox
   \\    /   O peration     | Website:  https://openfoam.org
    \\  /    A nd           | Version:  7
     \\/     M anipulation  |
\*---------------------------------------------------------------------------*/
FoamFile
{
    version     2.0;
    format      ascii;
    class       volVectorField;
    location    "0";
    object      C;
}
// * * * * * * * * * * * * * * * * * * * * * * * * * * * * * * * * * * * * * //

dimensions      [0 1 0 0 0 0 0];

internalField   nonuniform List<vector> 
15600
(
(0.0210701554105854 1.0019553158389 4.28271454389253e-18)
(0.0631504809359917 1.00067183630324 2.243348854143e-18)
(0.104400002182897 0.993671708935738 4.64206873794657e-18)
(0.142659033340636 0.977128168442014 -2.47932285915157e-18)
(0.175953982400272 0.951810432453228 5.84406595959696e-18)
(0.204624223540433 0.921072740039714 1.58996389802674e-18)
(0.230267551793999 0.887689177309776 -3.34702438800418e-18)
(0.254032267617541 0.852922230993679 -3.31132049160555e-18)
(0.276601845503674 0.817371380693662 6.78126264023394e-18)
(0.298421754115716 0.78136083271742 9.44289289567791e-20)
(0.319823413767007 0.745099069168911 0)
(0.341081149622453 0.708756015825493 0)
(0.362444807548874 0.672477605672486 0)
(0.384068363374822 0.63635646968945 -2.97296660272091e-18)
(0.405976948170254 0.600405222543645 0)
(0.42814390632772 0.564610127215676 2.63290055286656e-18)
(0.450537542068481 0.528956162151544 -5.05962374574996e-18)
(0.473124462510554 0.493422984919086 -9.50296968409188e-20)
(0.495867808053137 0.457988682492151 -6.97141784122154e-18)
(0.518728336050595 0.422629077150482 -4.37360296106106e-18)
(0.541671351274734 0.387321521200897 0)
(0.564719900943936 0.352082225643806 -9.52065230937753e-20)
(0.587980678513849 0.316983802441759 -1.97822461597359e-18)
(0.611601045689411 0.282125134298541 -1.90002856324517e-18)
(0.635746841023008 0.247628493690888 0)
(0.660614701639386 0.213651631310052 1.8255837217497e-18)
(0.686448777539076 0.180409817543302 5.00890490735954e-18)
(0.713565632110432 0.148210876329758 6.25308196247425e-18)
(0.742315347976736 0.117470512222175 4.41599491102983e-18)
(0.773006268133042 0.0886860086986197 -9.57722490523972e-20)
(0.805913284584524 0.0624898958423135 2.60797453645004e-18)
(0.841270245844081 0.0397648568720588 -1.90585624609702e-16)
(0.879163989408006 0.0216867267745821 -2.14802626114386e-16)
(0.919327870370637 0.00965570779057123 2.14834240339544e-18)
(0.960951436205053 0.00462353682555943 -4.46730718699901e-18)
(1.00306238488131 0.00391063167780391 0)
(1.04520269570248 0.00391063167780412 0)
(1.08734300652365 0.00391063167780386 6.6168188718456e-18)
(1.12948331734482 0.00391063167780407 2.30260570778362e-16)
(1.17162362816599 0.0039106316778041 2.39418569132156e-16)
(1.21376393898717 0.00391063167780397 0)
(1.25590424980834 0.00391063167780425 0)
(1.29804456062951 0.00391063167780397 0)
(1.34018487145068 0.00391063167780428 0)
(1.38232518227185 0.00391063167780392 0)
(1.42446549309302 0.00391063167780404 4.37908807189566e-18)
(1.46660580391419 0.00391063167780399 -2.41063730666041e-16)
(1.50874611473536 0.00391063167780381 -2.44551942621846e-16)
(1.55088642555653 0.00391063167780417 0)
(1.5930267363777 0.00391063167780378 0)
(1.63516704719888 0.00391063167780399 0)
(1.67730735802005 0.00391063167780407 -4.47546159990127e-18)
(1.71944766884122 0.00391063167780402 -2.3026057077831e-16)
(1.76158797966239 0.00391063167780407 -2.28910786846682e-16)
(1.80372829048356 0.00391063167780418 6.52044534384062e-18)
(1.84586860130473 0.00391063167780418 0)
(1.88800891212591 0.00391063167780386 0)
(1.93014922294708 0.00391063167780412 4.37908807189523e-18)
(1.97228953376825 0.00391063167780386 2.2377307999504e-18)
(2.01442984458942 0.00391063167780396 0)
(2.05657015541059 0.00391063167780394 9.63735280056269e-20)
(2.09871046623176 0.00391063167780383 -2.23773079995042e-18)
(2.14085077705293 0.00391063167780412 -4.37908807189526e-18)
(2.1829910878741 0.00391063167780386 0)
(2.22513139869527 0.00391063167780429 2.23773079995035e-18)
(2.26727170951644 0.00391063167780397 0)
(2.30941202033762 0.00391063167780409 0)
(2.35155233115879 0.0039106316778041 0)
(2.39369264197996 0.00391063167780413 2.23773079995008e-18)
(2.43583295280113 0.00391063167780401 -2.14135727194504e-18)
(2.4779732636223 0.00391063167780381 -4.28271454388962e-18)
(2.52011357444347 0.00391063167780418 2.23773079995041e-18)
(2.56225388526464 0.00391063167780386 2.30164197250333e-16)
(2.60439419608581 0.00391063167780402 4.69723862278382e-16)
(2.64653450690698 0.00391063167780396 2.29026454031818e-16)
(2.68867481772815 0.00391063167780386 -4.37908807189518e-18)
(2.73081512854932 0.00391063167780429 0)
(2.77295543937049 0.00391063167780397 0)
(2.81509575019166 0.00391063167780425 0)
(2.85723606101283 0.00391063167780389 2.32401928050281e-16)
(2.89937637183401 0.00391063167780407 2.24064780236151e-16)
(2.94151668265518 0.00391063167780408 0)
(2.98365699347635 0.00391063167780396 -6.71319239985058e-18)
(3.02579730429752 0.00391063167780396 2.14135727194505e-18)
(3.06793761511869 0.00391063167780401 0)
(3.11005026612445 0.0045993165969467 -6.50850944823079e-18)
(3.15168338040968 0.00956938555652269 -6.63664556439846e-18)
(3.19186752652423 0.0215319166011853 -2.22458818371246e-18)
(3.22978628424406 0.0395557782808693 0)
(3.2651687633019 0.062240005415775 2.41338298165763e-18)
(3.29809935026573 0.0884054929365386 9.6972750469419e-20)
(3.32881094119726 0.117166795545572 0)
(3.35757967586568 0.147890739458513 -4.80896659045827e-18)
(3.38471159537874 0.180077300936289 3.46807409744698e-18)
(3.41055652053326 0.213309709183204 1.72915370402671e-18)
(3.43543288733465 0.24728033307288 -1.81650017765121e-18)
(3.45958511839241 0.281772792885289 1.89908217813869e-18)
(3.48320976038905 0.316628165785537 -4.05223360083315e-18)
(3.50647325872927 0.351724419984106 0)
(3.52952340913003 0.386962894901681 -2.11903049178315e-18)
(3.55246721067047 0.422269906135604 -2.2835585594404e-18)
(3.57532876431157 0.457628951979406 0)
(3.59807347806035 0.493062331111951 4.68352517595062e-18)
(3.62066220141654 0.528594427429851 0)
(3.64305797851244 0.56424706172045 -2.63453024138118e-18)
(3.665227475165 0.600040756509613 -1.3552893852857e-17)
(3.68713890380963 0.635990464590552 5.75964448042025e-18)
(3.70876523115117 0.672109493029266 0)
(3.73013095371604 0.708386587935119 -4.61924806416488e-18)
(3.7513885109074 0.744729607483346 9.82528624365249e-20)
(3.77278735639588 0.780992936186193 0)
(3.79460197205181 0.817007787596199 8.67080463270956e-18)
(3.81716200056071 0.852564702070178 6.90961738318435e-18)
(3.84091100982986 0.887340956212151 4.92352387486283e-18)
(3.86653121836588 0.920744017802791 -3.27977036687412e-18)
(3.89516438651492 0.95152113291436 2.87800126990089e-18)
(3.9284047896939 0.976910822362359 -5.06361983406839e-18)
(3.96661847557792 0.993552761785263 0)
(4.00785160411737 1.00063864808196 -4.39099824295823e-18)
(4.04992984458941 1.0019553158389 4.47546159990373e-18)
(0.021053763599106 1.00593806479798 -6.39469532965805e-18)
(0.0631015738451379 1.00465970704204 0)
(0.104321965267809 0.997687512351066 -4.29556454924173e-18)
(0.142563811427657 0.981210000607134 2.39213468499814e-18)
(0.175861346384648 0.955993362557179 0)
(0.2045525837551 0.92537842984001 -3.25501282653033e-18)
(0.230228968956338 0.89212817406534 1.42095565619811e-18)
(0.254034231666595 0.85750002847602 0)
(0.27664912249584 0.822091080512095 3.26416484102585e-18)
(0.298517333919961 0.786224245964212 0)
(0.3199689636328 0.750107179678578 6.57184813003974e-18)
(0.341277242163465 0.71390913315636 0)
(0.362691018327442 0.677775461616326 0)
(0.384363654773553 0.641798437797995 -2.68050500710954e-18)
(0.406320183154887 0.605990630237279 0)
(0.428534054219504 0.570338356058006 2.25345189115178e-18)
(0.45097369880272 0.534826652712923 4.88234691672223e-18)
(0.473605857272774 0.499435258439862 1.91350348542029e-19)
(0.4963938171593 0.46414234713152 2.17782016102537e-18)
(0.519298492400396 0.428923837220248 8.81092810842884e-18)
(0.542285326157673 0.393757170671099 -4.08518172442127e-18)
(0.565377272862822 0.358658490730692 0)
(0.58868059980223 0.323700118226519 -1.90638438261126e-18)
(0.612342080560304 0.28898054154748 0)
(0.636526891751352 0.254621545590998 -3.50371189320375e-18)
(0.661430885624173 0.220780251722722 -1.66791812569262e-18)
(0.687297237517626 0.187671071622519 0)
(0.714441247033375 0.155600601173679 1.48453757821286e-18)
(0.743211599541062 0.1249828882831 0)
(0.773915407632985 0.0963132337971983 0)
(0.806826465330645 0.0702216442834252 0)
(0.842177686533696 0.0475872811822497 2.105450178812e-16)
(0.88005556063717 0.0295812875449091 1.95199104467802e-16)
(0.920194505895848 0.0175982777962819 -4.14806901437684e-18)
(0.961787309436962 0.0125861894342767 -2.44890935308973e-18)
(1.0038655836438 0.0118761295959653 2.26007446233335e-18)
(1.04597311084202 0.0118761295959653 0)
(1.08808063804023 0.0118761295959655 0)
(1.13018816523844 0.0118761295959655 -2.29822247851648e-16)
(1.17229569243665 0.0118761295959652 -2.25374040706373e-16)
(1.21440321963486 0.0118761295959655 0)
(1.25651074683307 0.0118761295959652 6.58744238591378e-18)
(1.29861827403128 0.0118761295959654 0)
(1.3407258012295 0.0118761295959654 -1.92781001085893e-19)
(1.38283332842771 0.0118761295959653 0)
(1.42494085562592 0.0118761295959654 -2.2600744623334e-18)
(1.46704838282413 0.0118761295959653 2.33956834774088e-16)
(1.50915591002235 0.0118761295959652 2.26154272410174e-16)
(1.55126343722056 0.0118761295959651 0)
(1.59337096441877 0.0118761295959654 0)
(1.63547849161698 0.0118761295959651 -4.32736792358048e-18)
(1.6775860188152 0.0118761295959656 -4.52014892466629e-18)
(1.71969354601341 0.0118761295959653 2.2342758646679e-16)
(1.76180107321162 0.0118761295959653 2.24091781067297e-16)
(1.80390860040984 0.0118761295959656 -4.32736792358054e-18)
(1.84601612760805 0.0118761295959652 0)
(1.88812365480626 0.0118761295959653 0)
(1.93023118200447 0.0118761295959652 1.92781001085895e-19)
(1.97233870920269 0.0118761295959653 -2.26007446233342e-18)
(2.0144462364009 0.0118761295959652 -1.92781001085892e-19)
(2.05655376359911 0.0118761295959652 1.9278100108589e-19)
(2.09866129079732 0.0118761295959653 -2.26007446233341e-18)
(2.14076881799553 0.0118761295959651 -1.92781001085902e-19)
(2.18287634519375 0.0118761295959655 0)
(2.22498387239196 0.0118761295959652 4.13458692249467e-18)
(2.26709139959017 0.0118761295959654 0)
(2.30919892678838 0.0118761295959655 0)
(2.3513064539866 0.0118761295959655 -1.92781001085895e-19)
(2.39341398118481 0.0118761295959653 -6.5874423859137e-18)
(2.43552150838302 0.0118761295959655 4.13458692249456e-18)
(2.47762903558123 0.0118761295959652 0)
(2.51973656277944 0.0118761295959651 -4.52014892466637e-18)
(2.56184408997765 0.0118761295959653 -2.30015028852737e-16)
(2.60395161717587 0.0118761295959653 -4.46877500231679e-16)
(2.64605914437408 0.0118761295959653 -2.28148577334066e-16)
(2.68816667157229 0.0118761295959653 -4.52014892466685e-18)
(2.7302741987705 0.0118761295959654 -6.78022338699892e-18)
(2.77238172596872 0.0118761295959654 0)
(2.81448925316693 0.0118761295959652 0)
(2.85659678036514 0.0118761295959655 -2.23234805465715e-16)
(2.89870430756335 0.0118761295959653 -2.25202660559688e-16)
(2.94081183476156 0.0118761295959655 -1.92781001085893e-19)
(2.98291936195978 0.0118761295959654 4.52014892466565e-18)
(3.02502688915799 0.0118761295959653 0)
(3.0671344163562 0.0118761295959651 -4.32736792358049e-18)
(3.10921438637221 0.0125620658683987 -2.06345943213567e-18)
(3.15081670041918 0.0175123000393865 2.45943603101981e-18)
(3.19097582988923 0.0294270951115217 9.1689210536447e-18)
(3.22887861826195 0.047379036856757 2.27013818123556e-18)
(3.26425525537263 0.0699727509260252 0)
(3.29718978949079 0.0960338372931292 2.78681257314361e-18)
(3.32791418583701 0.124680383398058 0)
(3.35670348122439 0.155281741577894 0)
(3.38386249555082 0.187339881723145 5.1217466256112e-18)
(3.4097396533826 0.220439693836394 -8.91576749039802e-18)
(3.43465211948044 0.254274774117007 -3.69554777988964e-18)
(3.45884334070194 0.288629605977198 5.68466483895969e-18)
(3.48250907921832 0.323345900597214 1.93818633017449e-19)
(3.50581511605624 0.358302112759452 -1.97610929158497e-18)
(3.52890865709894 0.393399975364544 6.31931710640573e-18)
(3.55189627403625 0.42856609936418 0)
(3.5748019708314 0.463784051979785 0)
(3.59759129347174 0.499076043655138 0)
(3.62022524766155 0.534466361280737 4.6887334547299e-18)
(3.64266702506331 0.569976739131953 0)
(3.66488342448946 0.605627618293652 5.4965492423442e-18)
(3.68684278538004 0.641433892885685 5.55216931395836e-18)
(3.7085181822818 0.677408817498959 1.6037331794804e-18)
(3.72993401482407 0.713541179073155 6.12402439655594e-18)
(3.75124211538766 0.749739192064305 -3.28819675296621e-18)
(3.77269094214225 0.785857817407905 1.7925927509896e-18)
(3.79455388170234 0.821728938409722 -3.06861402468155e-18)
(3.81715926126573 0.857143926660742 8.78162527803768e-18)
(3.840948880053 0.891781343236118 3.41886178074754e-18)
(3.86660223766457 0.925051020262763 -4.79292137241627e-18)
(3.89525654970611 0.95570521837315 -5.54956990038986e-18)
(3.92849975596675 0.980993522218705 0)
(3.96669643759559 0.997569039846332 -2.34232803520598e-18)
(4.00790050213979 1.00462665125309 -2.26584305130987e-18)
(4.04994623640089 1.00593806479798 0)
(0.021036771310605 1.01006671277717 4.18451648558056e-18)
(0.0630508751531971 1.00879366444069 0)
(0.10424106964272 1.00185042585406 2.07322655325181e-18)
(0.142465101259848 0.985441362122502 0)
(0.175765316838092 0.960329525748771 0)
(0.204478319599033 0.92984184940242 4.23717727814158e-18)
(0.23018897272374 0.89672978342049 6.3998277206427e-18)
(0.254036267663948 0.862245522758257 1.578600050092e-18)
(0.276698131366845 0.826983675175704 -1.90703024879245e-19)
(0.298616415060898 0.791265818680791 -1.90721959885262e-19)
(0.32011984537495 0.755298750515522 0)
(0.341480518105998 0.719251023148758 4.85628489785897e-18)
(0.362946248493448 0.683267392797796 2.71558900409714e-18)
(0.384669763538637 0.647439760723412 0)
(0.406675991832426 0.611780647612979 0)
(0.428938494373609 0.576276426734621 0)
(0.451425833249426 0.540912196723826 -1.91289923563628e-19)
(0.474104886959537 0.505667779454345 9.0800190607376e-18)
(0.49693909555384 0.470521438930093 -6.48584417206953e-18)
(0.519889535290415 0.435449193264976 -1.91449632811964e-19)
(0.542921792790488 0.400428577372074 2.15956052483251e-18)
(0.566058726300344 0.365475664267879 0)
(0.589406161324653 0.33066247297522 2.02867305605677e-18)
(0.613110261781549 0.296087083114518 -1.5731787126671e-18)
(0.637335518097194 0.261870774133202 0)
(0.662276968890431 0.228170015005362 -1.99144248933133e-18)
(0.688176779131801 0.195198327232945 0)
(0.715348938337612 0.163261033637527 5.72655887457786e-18)
(0.744140683438477 0.132770464793236 1.92048567623812e-19)
(0.774857851552803 0.104219866299352 0)
(0.807773098498565 0.0782366287774005 -5.06307322292686e-18)
(0.84311836932886 0.0556962629033568 -1.92376502125224e-19)
(0.880979792592098 0.0377650479617736 2.26659089910635e-18)
(0.921092888659469 0.0258318059455505 0)
(0.962653802996914 0.0208405358377784 0)
(1.00469820578035 0.0201334255543399 0)
(1.04677174840156 0.0201334255543397 4.18448126895427e-18)
(1.08884529102277 0.0201334255543401 -4.37726354208826e-18)
(1.13091883364398 0.0201334255543399 0)
(1.17299237626519 0.02013342555434 -2.381414044178e-18)
(1.2150659188864 0.0201334255543396 -4.57004581522212e-18)
(1.25713946150761 0.0201334255543399 0)
(1.29921300412882 0.0201334255543398 3.99169899582074e-18)
(1.34128654675003 0.0201334255543397 2.38141404417772e-18)
(1.38336008937124 0.0201334255543397 -1.92782273133926e-19)
(1.42543363199245 0.02013342555434 0)
(1.46750717461366 0.0201334255543397 0)
(1.50958071723487 0.0201334255543399 4.570045815222e-18)
(1.55165425985608 0.0201334255543398 4.37726354208862e-18)
(1.59372780247729 0.0201334255543398 0)
(1.6358013450985 0.0201334255543399 -6.18033076686431e-18)
(1.67787488771971 0.0201334255543397 2.18863177104411e-18)
(1.71994843034093 0.0201334255543401 1.92782273133913e-19)
(1.76202197296214 0.0201334255543398 2.18863177104434e-18)
(1.80409551558335 0.0201334255543398 6.37311303999754e-18)
(1.84616905820456 0.0201334255543398 -2.1886317710443e-18)
(1.88824260082577 0.0201334255543399 4.3772635420881e-18)
(1.93031614344698 0.0201334255543398 4.18448126895373e-18)
(1.97238968606819 0.0201334255543398 6.56589531313292e-18)
(2.0144632286894 0.0201334255543398 2.57419631731166e-18)
(2.05653677131061 0.0201334255543398 -6.18033076686506e-18)
(2.09861031393182 0.0201334255543399 -4.18448126895419e-18)
(2.14068385655303 0.0201334255543398 -2.18863177104429e-18)
(2.18275739917424 0.0201334255543398 0)
(2.22483094179545 0.0201334255543398 -6.18033076686506e-18)
(2.26690448441666 0.0201334255543398 2.18863177104429e-18)
(2.30897802703787 0.0201334255543398 -2.18863177104387e-18)
(2.35105156965908 0.0201334255543399 1.92782273133921e-19)
(2.39312511228029 0.02013342555434 -4.18448126895429e-18)
(2.4351986549015 0.0201334255543396 0)
(2.47727219752271 0.0201334255543399 4.18448126895418e-18)
(2.51934574014392 0.0201334255543398 -6.18033076686506e-18)
(2.56141928276513 0.0201334255543399 -4.18448126895418e-18)
(2.60349282538634 0.0201334255543396 0)
(2.64556636800755 0.0201334255543399 -2.38141404417798e-18)
(2.68763991062876 0.0201334255543397 1.80306722477649e-18)
(2.72971345324997 0.0201334255543398 4.18448126895373e-18)
(2.77178699587118 0.0201334255543398 1.99584949791036e-18)
(2.81386053849239 0.0201334255543399 -1.92782273133912e-19)
(2.8559340811136 0.0201334255543396 -4.37726354208813e-18)
(2.89800762373481 0.02013342555434 -8.36896253790855e-18)
(2.94008116635602 0.0201334255543399 0)
(2.98215470897723 0.0201334255543399 4.37726354208781e-18)
(3.02422825159845 0.0201334255543399 4.37726354208866e-18)
(3.06630179421965 0.0201334255543399 0)
(3.10834788605305 0.0208165124759048 8.54706971699705e-18)
(3.14991827156153 0.0257461852835958 4.19675998698523e-18)
(3.19005146793485 0.0376114958948268 0)
(3.2279377019216 0.0554888834015404 2.38427190852148e-18)
(3.26330828303637 0.0779887690107303 -5.06165955609047e-18)
(3.29624690886385 0.103941630051685 2.50214464268703e-18)
(3.32698457968852 0.132469216088164 5.54907796655787e-18)
(3.35579518896533 0.162943498104964 2.86114441091822e-18)
(3.38298229064785 0.194868512640984 -3.62406994252218e-18)
(3.40889286192414 0.227830871334816 -1.41330805898146e-18)
(3.43384274973829 0.261525442691249 -5.25666776189148e-18)
(3.45807438944939 0.295737604887338 3.5278965338728e-18)
(3.48178272997674 0.330309726356327 3.87631791425649e-19)
(3.50513286362949 0.365120766285993 -2.29184663863803e-18)
(3.52827138484865 0.400072865480245 0)
(3.5513044222776 0.435092941069288 0)
(3.5742558793288 0.470164631721795 0)
(3.59709144502478 0.505310056408844 -2.17336367827285e-18)
(3.61977228699677 0.540553401454679 0)
(3.64226174984177 0.575916311445125 1.94137849713218e-19)
(3.66452677023974 0.611419143030085 -5.11372725149536e-18)
(3.68653581928739 0.647076729492088 -1.94281708855624e-19)
(3.70826208332317 0.682902271007254 0)
(3.72972986152629 0.718884596867363 4.2812103382575e-18)
(3.75109035701288 0.754932290975882 0)
(3.77259099598382 0.790900911877941 -3.0764039821579e-18)
(3.79450402967863 0.826623037222873 -1.76525419361274e-18)
(3.81715642162315 0.861890900327687 3.35169370211197e-18)
(3.84098813756604 0.896384393784309 3.29974486213206e-18)
(3.86667585860369 0.929515800566323 5.90757602187304e-18)
(3.89535208910725 0.960042579242426 2.67521780506199e-18)
(3.92859820112972 0.985225783216352 1.93624838794734e-19)
(3.96677725557962 1.00173244538579 -4.53544203260369e-18)
(4.0079511914311 1.00876074593596 0)
(4.0499632286894 1.01006671277717 1.99584949790978e-18)
(0.0210191565480851 1.01434660442788 3.95027586693662e-18)
(0.0629983192292709 1.01307906002549 -2.12468574367079e-18)
(0.104157210585514 1.00616583847576 2.19367299273036e-18)
(0.142362775052416 0.989827730677431 -2.22689318884739e-18)
(0.175665769445452 0.964824535412638 -5.15220770776281e-18)
(0.204401334934158 0.934468776811346 5.68851912309165e-18)
(0.230147511319923 0.901499962292005 -1.68565669052866e-18)
(0.25403837824524 0.867164856974507 0)
(0.276748935559406 0.832055498221757 -3.02456353066299e-18)
(0.298719125800616 0.796492077262037 0)
(0.320276254312892 0.760680502272178 -4.49237058222594e-18)
(0.341691240596195 0.724788601022145 -2.93989284105924e-18)
(0.363210828451115 0.688960508710537 0)
(0.384987085940346 0.653287741388089 -2.29436408994222e-18)
(0.407044834813385 0.617782770111618 1.91144498282176e-19)
(0.429357750357634 0.582432026368998 2.26784416342278e-18)
(0.451894530719981 0.547220672235095 0)
(0.474622197591501 0.512128616294847 1.91349949992318e-19)
(0.497504349129647 0.477134215973241 1.9140289402432e-19)
(0.520502229858855 0.442213592724401 -4.10304190353837e-18)
(0.543581575115517 0.407344377820112 0)
(0.566765143437323 0.372542571480109 7.72495883189698e-18)
(0.590158302362792 0.337879879861808 -1.91585793105973e-19)
(0.613906583808678 0.303453958833454 1.7007857009951e-18)
(0.638173766874483 0.269385563866465 1.91706880048818e-19)
(0.663154046741608 0.23583048763156 1.91778186643924e-19)
(0.689088540997454 0.203001328828328 -1.91858279749843e-19)
(0.716289881078054 0.171202090560563 1.91949275165635e-19)
(0.745103802414501 0.140843323159461 5.36174504783118e-18)
(0.775834819929247 0.112416141702421 0)
(0.808754409543675 0.0865452250498246 -2.4496776598091e-18)
(0.844093511977284 0.0641022994038563 4.4247262063473e-18)
(0.88193788172011 0.0462486021603096 -2.19476441425931e-18)
(0.922024181643554 0.0343669507748809 -2.12584472400244e-18)
(0.963552038585127 0.0293972615190111 -6.15550686700362e-18)
(1.00556132914382 0.028693208855761 2.11971649463994e-18)
(1.04759964223999 0.0286932088557611 0)
(1.08963795533616 0.0286932088557609 -4.04664939532777e-18)
(1.13167626843233 0.028693208855761 0)
(1.1737145815285 0.0286932088557609 -2.11971649463985e-18)
(1.21575289462468 0.028693208855761 -3.85386580137626e-18)
(1.25779120772085 0.0286932088557608 5.97358229601566e-18)
(1.29982952081702 0.0286932088557611 2.11971649464004e-18)
(1.34186783391319 0.0286932088557609 0)
(1.38390614700936 0.028693208855761 -5.97358229601631e-18)
(1.42594446010553 0.0286932088557608 -2.11971649463982e-18)
(1.4679827732017 0.0286932088557611 0)
(1.51002108629787 0.0286932088557609 0)
(1.55205939939404 0.0286932088557611 0)
(1.59409771249021 0.0286932088557609 -4.04664939532775e-18)
(1.63613602558638 0.0286932088557609 -4.04664939532775e-18)
(1.67817433868255 0.0286932088557611 -2.83455532150433e-16)
(1.72021265177872 0.0286932088557609 -2.89391966450207e-16)
(1.76225096487489 0.0286932088557611 0)
(1.80428927797106 0.0286932088557609 0)
(1.84632759106723 0.0286932088557611 -1.92693290068817e-18)
(1.8883659041634 0.0286932088557609 0)
(1.93040421725958 0.0286932088557609 0)
(1.97244253035575 0.0286932088557613 4.04664939532774e-18)
(2.01448084345192 0.0286932088557609 0)
(2.05651915654809 0.0286932088557608 -2.11971649464031e-18)
(2.09855746964426 0.0286932088557611 0)
(2.14059578274043 0.0286932088557611 1.9278359395189e-19)
(2.1826340958366 0.0286932088557607 0)
(2.22467240893277 0.0286932088557611 -4.23943298928007e-18)
(2.26671072202894 0.0286932088557611 -2.11971649464005e-18)
(2.30874903512511 0.0286932088557609 0)
(2.35078734822128 0.0286932088557611 2.85575248645074e-16)
(2.39282566131745 0.0286932088557609 2.83585434636065e-16)
(2.43486397441362 0.0286932088557611 1.92783593951887e-19)
(2.47690228750979 0.0286932088557609 1.92783593951897e-19)
(2.51894060060596 0.028693208855761 0)
(2.56097891370213 0.0286932088557609 0)
(2.6030172267983 0.0286932088557611 1.92783593951887e-19)
(2.64505553989447 0.0286932088557609 -2.11971649463981e-18)
(2.68709385299064 0.028693208855761 1.92693290068813e-18)
(2.72913216608681 0.0286932088557609 0)
(2.77117047918298 0.028693208855761 -1.92783593951889e-19)
(2.81320879227915 0.0286932088557608 2.11971649463987e-18)
(2.85524710537532 0.0286932088557611 -1.92693290068815e-18)
(2.89728541847149 0.0286932088557609 0)
(2.93932373156767 0.0286932088557611 -1.92693290068815e-18)
(2.98136204466384 0.0286932088557609 0)
(3.02340035776001 0.0286932088557611 1.92783593951888e-19)
(3.06543867085618 0.0286932088557609 0)
(3.10744964345798 0.0293733420321577 0)
(3.14898693079503 0.0342817002877682 -6.18422634224672e-18)
(3.18909324404552 0.0460957139148559 1.93055510218285e-19)
(3.22696231717301 0.0638958164028453 2.30803698240269e-18)
(3.26232662039871 0.0862984367330585 2.44903636662859e-18)
(3.29526948778285 0.112139108211197 2.6074092860404e-18)
(3.32602091933021 0.140543376648622 -5.35936159353498e-18)
(3.35485362325562 0.170885927592753 0)
(3.38206984119532 0.202672939923805 1.93589334136776e-19)
(3.40801504993767 0.235492809982736 -1.35543609162184e-18)
(3.4330037303319 0.269041725208725 3.44696133560817e-18)
(3.45727726918241 0.30310599133613 1.93764967524401e-19)
(3.48102977236288 0.337528658141142 -3.92659777762754e-18)
(3.50442561823386 0.372189207704454 2.028550177073e-18)
(3.5276107673939 0.406990203685508 -2.08935662025869e-18)
(3.55069088920917 0.441858880613985 0)
(3.57368978285827 0.476778951217118 -2.2144086439549e-18)
(3.5965732856389 0.511772439636686 -2.28763357143953e-18)
(3.61930273304119 0.546863427939505 -1.10701692297113e-17)
(3.64184162819918 0.582073467727611 0)
(3.66415705071065 0.617422828111409 3.88400766872171e-19)
(3.68621760815156 0.652926279292084 1.94276078118791e-19)
(3.70799660274635 0.688596965018978 0)
(3.72951822954072 0.72442375851544 0)
(3.75093303932881 0.760315626789073 1.62770086009362e-18)
(3.77248738853874 0.796128747961461 -1.48052955487932e-18)
(3.79445235144649 0.831696419520133 -6.24199074041165e-18)
(3.81715347795699 0.86681176811999 2.84482196023231e-18)
(3.84102883318893 0.901156066638656 -4.87453860565125e-18)
(3.86675217648866 0.934144138558886 -2.8458339950143e-18)
(3.89545112839896 0.964538830457138 5.54647312547254e-18)
(3.92870025262454 0.989613084209598 0)
(3.96686103415161 1.00604836807197 -6.39406606531932e-18)
(4.00800373761005 1.01304628383465 0)
(4.04998084345192 1.01434660442788 -6.16636588996856e-18)
(0.0210008965087528 1.01878328018729 -3.91373179518206e-18)
(0.0629438380382411 1.01752144136047 2.25070266010517e-18)
(0.104070279537895 1.01063933665985 -5.98816063324082e-18)
(0.14225670033946 0.994374784624376 -1.95673557413426e-18)
(0.175562575337537 0.969484210568696 0)
(0.204321530100603 0.93926520181806 -3.12226613183274e-18)
(0.230104531071922 0.906444885812064 9.01830114989795e-18)
(0.254040566142654 0.872264399293986 1.65373466025588e-18)
(0.27680160084027 0.837313115196649 -1.45555907691775e-18)
(0.298825599099683 0.801909787176879 -6.27404897842975e-18)
(0.320438392921009 0.766259401729772 0)
(0.34190968241983 0.730529035315822 8.12903725263363e-18)
(0.363485100708185 0.69486217928646 0)
(0.385316032765384 0.659349950239988 0)
(0.40742718958175 0.624004767753289 1.91144606912906e-19)
(0.429792364919005 0.588813123686631 1.91221594453096e-19)
(0.452380397967496 0.553760245894544 -6.67101468703026e-18)
(0.475158458855077 0.518826132861785 -1.91349740588607e-19)
(0.498090309638697 0.483989238866121 0)
(0.521137369273383 0.449225792495036 0)
(0.544265527258772 0.414513524915036 -3.84519209831789e-18)
(0.56749743877174 0.379868360888903 0)
(0.590937996607292 0.34536168224239 0)
(0.614732077527403 0.311090705558316 3.46967362568046e-18)
(0.639042723245404 0.27717564312668 -1.56859070209585e-18)
(0.664063254605699 0.243771586526088 1.91777770338082e-19)
(0.690033703441598 0.211090177833079 -1.91857925244455e-19)
(0.717265293355538 0.179434052066849 -2.85472248801302e-18)
(0.746102203274829 0.149211914100739 1.92048411724387e-19)
(0.776847577492463 0.120912670458931 0)
(0.809771668813026 0.0951581889164064 2.56297352246969e-18)
(0.845104376835727 0.0728162725962673 2.42734024582835e-18)
(0.882931068297058 0.055042932362442 -1.93297605348357e-18)
(0.922989590432632 0.0432147612653535 0)
(0.964483178992034 0.0382674433924151 0)
(1.00645607107111 0.0375665603745785 7.82738777352751e-18)
(1.04845786408861 0.0375665603745783 1.92784965494261e-19)
(1.09045965710612 0.0375665603745784 0)
(1.13246145012362 0.0375665603745784 0)
(1.17446324314113 0.0375665603745784 0)
(1.21646503615863 0.0375665603745782 -1.86045446063505e-18)
(1.25846682917614 0.0375665603745784 0)
(1.30046862219365 0.0375665603745785 0)
(1.34247041521115 0.0375665603745785 0)
(1.38447220822866 0.0375665603745782 -2.0532394261293e-18)
(1.42647400124616 0.0375665603745784 0)
(1.46847579426367 0.0375665603745784 0)
(1.51047758728118 0.0375665603745784 0)
(1.55247938029868 0.0375665603745782 -2.05323942612931e-18)
(1.59448117331619 0.0375665603745785 -3.91369388676384e-18)
(1.63648296633369 0.0375665603745785 1.8604544606348e-18)
(1.6784847593512 0.0375665603745785 2.77477295411822e-16)
(1.72048655236871 0.0375665603745784 2.71713759758512e-16)
(1.76248834538621 0.0375665603745784 0)
(1.80449013840372 0.0375665603745782 4.10647885225859e-18)
(1.84649193142122 0.0375665603745784 -1.86045446063482e-18)
(1.88849372443873 0.0375665603745784 -2.05323942612907e-18)
(1.93049551745624 0.0375665603745784 2.05323942612906e-18)
(1.97249731047375 0.0375665603745782 0)
(2.01449910349126 0.0375665603745783 -1.86045446063482e-18)
(2.05650089650876 0.0375665603745783 0)
(2.09850268952626 0.0375665603745782 -1.9278496549426e-19)
(2.14050448254377 0.0375665603745784 0)
(2.18250627556128 0.0375665603745786 2.05323942612929e-18)
(2.22450806857878 0.0375665603745782 0)
(2.26650986159628 0.0375665603745784 0)
(2.30851165461379 0.0375665603745784 0)
(2.3505134476313 0.0375665603745784 -2.71510362098932e-16)
(2.3925152406488 0.0375665603745783 -2.7357421421917e-16)
(2.43451703366631 0.0375665603745784 0)
(2.47651882668381 0.0375665603745783 -1.92784965494247e-19)