/*--------------------------------*- C++ -*----------------------------------*\
  =========                 |
  \\      /  F ield         | OpenFOAM: The Open Source CFD Toolbox
   \\    /   O peration     | Website:  https://openfoam.org
    \\  /    A nd           | Version:  7
     \\/     M anipulation  |
\*---------------------------------------------------------------------------*/
FoamFile
{
    version     2.0;
    format      ascii;
    class       volScalarField;
    location    "0";
    object      k_LES;
}
// * * * * * * * * * * * * * * * * * * * * * * * * * * * * * * * * * * * * * //

dimensions      [0 2 -2 0 0 0 0];

internalField   nonuniform List<scalar>
15600
(
0.00443761
0.00359631
0.00005405
0.00024921
0.00056877
0.00037938
0.00007762
0.00011096
0.00009913
0.00006979
0.00014814
0.00010054
0.00012044
0.00003992
0.00006968
0.00015275
0.00011982
0.00008512
0.00013851
0.00021128
0.00006755
0.00010827
0.00018270
0.00020648
0.00021204
0.00010618
0.00030073
0.00025660
0.00015553
0.00025594
0.00021296
0.00029131
0.00024093
0.00021584
0.00017024
0.00014229
0.00014688
0.00016033
0.00017029
0.00017243
0.00017998
0.00019459
0.00020411
0.00021630
0.00023960
0.00025428
0.00025645
0.00027155
0.00029171
0.00032761
0.00034333
0.00036400
0.00038710
0.00041299
0.00043211
0.00045783
0.00048632
0.00051677
0.00055078
0.00058076
0.00061746
0.00066086
0.00069727
0.00073918
0.00078678
0.00083585
0.00089785
0.00094209
0.00100775
0.00103887
0.00112020
0.00120822
0.00121942
0.00128293
0.00141194
0.00141437
0.00155914
0.00158088
0.00167421
0.00187955
0.00196648
0.00213314
0.00245424
0.00257904
0.00267527
0.00239419
0.00081338
0.00009717
0.00029219
0.00000025
-0.00000022
-0.00004407
-0.00017162
-0.00025996
-0.00012040
-0.00004456
-0.00042843
-0.00063714
-0.00036568
-0.00009095
0.00002124
-0.00039232
-0.00053539
-0.00051736
-0.00081265
-0.00049072
-0.00044400
-0.00047210
-0.00040246
-0.00033436
-0.00043145
-0.00013489
-0.00018390
-0.00040615
-0.00070114
-0.00058067
-0.00123060
-0.00259518
0.00274528
0.00401703
0.01112459
0.00936181
0.00259157
0.00105252
0.00152030
0.00091401
0.00052552
0.00028819
0.00024814
0.00017958
0.00034475
0.00020908
0.00030461
0.00017391
0.00030653
0.00043813
0.00037546
0.00043353
0.00054961
0.00049606
0.00042524
0.00057078
0.00071680
0.00072008
0.00084583
0.00067857
0.00098389
0.00103983
0.00109986
0.00120132
0.00114078
0.00112091
0.00093234
0.00086248
0.00078153
0.00074669
0.00077706
0.00081934
0.00086643
0.00091347
0.00096640
0.00102751
0.00109413
0.00115992
0.00123147
0.00131298
0.00139449
0.00148832
0.00159147
0.00170526
0.00182062
0.00193926
0.00207250
0.00220910
0.00234225
0.00247645
0.00261496
0.00277202
0.00293260
0.00309759
0.00327679
0.00346196
0.00364815
0.00385161
0.00407162
0.00429118
0.00453473
0.00476558
0.00499939
0.00524016
0.00549649
0.00577711
0.00602287
0.00631408
0.00661480
0.00685844
0.00720287
0.00753748
0.00793574
0.00845376
0.00899123
0.00957202
0.01027023
0.01062168
0.01041177
0.00894735
0.00602386
0.00382326
0.00295053
0.00191274
0.00110863
0.00090231
0.00035226
0.00014166
-0.00017928
0.00028097
-0.00010489
-0.00028367
-0.00003923
0.00020739
-0.00013024
-0.00011224
-0.00028750
-0.00131521
0.00013232
0.00014794
-0.00047705
0.00093687
0.00011594
0.00093435
-0.00002212
0.00040915
-0.00023109
0.00036270
0.00255702
0.00441090
0.00645388
0.00408958
0.00916854
0.01076006
0.02072904
0.01862516
0.00814197
0.00244635
0.00231462
0.00155643
0.00113559
0.00062014
0.00054460
0.00041641
0.00056802
0.00048229
0.00064024
0.00055760
0.00070503
0.00083748
0.00083349
0.00099519
0.00113997
0.00106345
0.00113707
0.00136474
0.00160797
0.00174701
0.00180349
0.00166893
0.00209825
0.00205670
0.00213883
0.00216541
0.00204312
0.00193676
0.00173122
0.00160731
0.00151653
0.00153788
0.00161036
0.00170381
0.00180352
0.00190620
0.00201791
0.00214327
0.00228319
0.00242795
0.00258498
0.00275612
0.00293103
0.00312799
0.00334080
0.00356892
0.00380481
0.00404772
0.00431320
0.00457998
0.00483840
0.00509439
0.00535198
0.00563036
0.00590808
0.00618512
0.00647506
0.00678263
0.00709201
0.00742372
0.00778627
0.00814790
0.00851236
0.00887698
0.00926560
0.00965246
0.01004326
0.01041854
0.01085398
0.01128923
0.01174067
0.01220570
0.01268433
0.01322664
0.01383228
0.01451915
0.01523746
0.01594841
0.01656630
0.01684266
0.01630561
0.01447456
0.01185927
0.00985926
0.00826264
0.00733897
0.00538588
0.00473022
0.00380259
0.00306947
0.00228542
0.00243515
0.00304219
0.00247087
0.00199109
0.00162166
0.00058552
0.00222006
0.00227303
0.00029399
0.00186657
0.00136162
0.00031675
0.00182864
0.00038053
0.00132292
-0.00017869
0.00043996
-0.00092213
0.00286757
0.00537472
0.01120440
0.01443468
0.01848577
0.02103785
0.02087382
0.03006112
0.02856167
0.01636358
0.00434220
0.00330445
0.00228188
0.00173873
0.00108307
0.00097134
0.00079308
0.00081794
0.00090309
0.00105313
0.00097646
0.00119260
0.00133548
0.00149945
0.00173228
0.00192921
0.00200337
0.00210693
0.00229563
0.00258669
0.00272945
0.00285049
0.00282669
0.00300291
0.00304683
0.00303984
0.00296712
0.00288762
0.00269631
0.00247491
0.00228390
0.00221349
0.00229752
0.00242303
0.00257037
0.00272571
0.00288759
0.00305993
0.00325293
0.00346781
0.00369972
0.00394588
0.00420720
0.00447836
0.00477498
0.00508892
0.00541854
0.00575520
0.00610129
0.00646425
0.00682368
0.00716731
0.00749997
0.00782113
0.00815184
0.00847748
0.00879029
0.00911314
0.00946037
0.00981629
0.01020500
0.01061659
0.01103082
0.01144501
0.01185262
0.01227434
0.01272154
0.01316101
0.01360933
0.01409558
0.01461799
0.01515067
0.01567697
0.01624086
0.01684135
0.01749424
0.01819486
0.01889723
0.01951643
0.01999628
0.02013227
0.01963312
0.01812016
0.01631514
0.01474230
0.01369706
0.01289381
0.01217494
0.01111379
0.01021112
0.00915024
0.00866906
0.00770252
0.00937917
0.00850826
0.00751641
0.00746186
0.00659194
0.00697968
0.00865211
0.00665515
0.00494939
0.00741658
0.00408683
0.00691840
0.00423590
0.00154607
0.00241121
0.00266438
0.00181985
0.00850162
0.00981670
0.02777485
0.03120372
0.03603487
0.03470427
0.03110633
0.03685641
0.03548657
0.02629888
0.00756784
0.00399993
0.00323256
0.00241850
0.00169342
0.00148160
0.00127235
0.00120830
0.00135218
0.00154625
0.00150614
0.00177039
0.00193501
0.00219881
0.00244404
0.00272801
0.00291097
0.00306197
0.00322870
0.00347483
0.00358562
0.00371957
0.00370065
0.00375779
0.00382671
0.00378350
0.00370690
0.00356882
0.00334914
0.00309592
0.00289238
0.00284819
0.00298556
0.00316843
0.00336781
0.00357719
0.00379709
0.00403126
0.00429378
0.00458393
0.00489877
0.00522550
0.00556618
0.00592633
0.00630471
0.00669706
0.00709679
0.00750931
0.00792205
0.00833725
0.00873706
0.00911528
0.00947523
0.00980496
0.01013236
0.01044288
0.01074698
0.01105345
0.01139181
0.01175874
0.01215871
0.01258087
0.01300388
0.01343353
0.01385762
0.01428982
0.01474991
0.01522928
0.01572497
0.01624402
0.01679550
0.01734758
0.01792939
0.01851806
0.01913175
0.01976943
0.02043276
0.02103650
0.02156361
0.02192743
0.02204491
0.02165512
0.02055758
0.01931786
0.01838189
0.01771709
0.01727480
0.01710807
0.01706126
0.01664908
0.01666109
0.01674355
0.01701028
0.01792873
0.01690052
0.01572443
0.01705651
0.01710413
0.01584393
0.01867956
0.01688627
0.01415230
0.01470282
0.01169347
0.01557049
0.01106627
0.00653182
0.00833001
0.00951417
0.00835253
0.01824379
0.02253530
0.04875182
0.05218703
0.05156337
0.04531016
0.03924689
0.04185517
0.04000858
0.03441537
0.01238377
0.00478782
0.00406478
0.00313041
0.00240665
0.00206579
0.00177675
0.00176328
0.00193136
0.00204452
0.00216631
0.00235997
0.00257485
0.00287651
0.00311982
0.00344204
0.00365118
0.00383178
0.00404791
0.00420539
0.00427866
0.00438068
0.00442629
0.00443804
0.00445962
0.00440064
0.00426229
0.00410054
0.00389349
0.00364619
0.00344706
0.00343090
0.00361263
0.00384742
0.00409535
0.00435861
0.00463280
0.00492687
0.00525650
0.00561589
0.00600322
0.00639754
0.00680003
0.00722768
0.00767232
0.00811759
0.00856061
0.00900791
0.00945181
0.00987631
0.01028451
0.01066605
0.01101155
0.01131724
0.01160165
0.01187813
0.01215368
0.01243679
0.01276268
0.01313038
0.01353449
0.01394961
0.01437992
0.01480903
0.01523587
0.01568603
0.01616912
0.01666745
0.01719884
0.01774034
0.01831067
0.01887706
0.01947511
0.02008407
0.02068214
0.02127835
0.02186430
0.02239511
0.02283603
0.02314186
0.02326952
0.02302157
0.02228394
0.02149089
0.02098012
0.02078182
0.02073781
0.02106496
0.02131919
0.02175069
0.02246033
0.02311661
0.02461987
0.02532554
0.02524481
0.02443918
0.02714000
0.02841936
0.02879027
0.02868685
0.02840168
0.02530142
0.02381204
0.02383004
0.02362543
0.02289869
0.01461596
0.01819154
0.02097058
0.02035231
0.03291531
0.04099140
0.06116089
0.06372565
0.06068925
0.05210177
0.04526038
0.04601041
0.04394903
0.03931703
0.01904373
0.00595567
0.00474603
0.00374654
0.00303389
0.00263785
0.00237021
0.00229318
0.00240187
0.00258423
0.00269378
0.00292488
0.00320805
0.00347271
0.00371403
0.00400635
0.00426889
0.00450296
0.00473567
0.00484983
0.00493021
0.00498317
0.00500819
0.00503081
0.00496145
0.00486509
0.00473202
0.00456567
0.00436621
0.00413627
0.00396054
0.00397545
0.00419231
0.00446849
0.00476189
0.00507700
0.00539990
0.00574743
0.00613373
0.00655381
0.00700313
0.00744836
0.00789819
0.00837689
0.00885962
0.00933109
0.00979741
0.01025327
0.01069767
0.01111281
0.01149747
0.01185407
0.01216799
0.01243860
0.01267448
0.01291289
0.01317507
0.01345069
0.01376662
0.01414021
0.01454420
0.01495739
0.01538950
0.01582696
0.01626527
0.01673850
0.01723649
0.01776356
0.01832075
0.01888427
0.01945314
0.02002303
0.02062127
0.02122641
0.02180223
0.02234567
0.02287017
0.02333095
0.02371276
0.02398729
0.02414271
0.02402981
0.02357846
0.02312529
0.02295491
0.02304119
0.02340886
0.02393553
0.02463237
0.02557347
0.02659484
0.02786624
0.02932851
0.03020329
0.03138304
0.03314871
0.03468004
0.03632520
0.03694986
0.03738067
0.03713601
0.03665312
0.03340495
0.03482566
0.03189825
0.03332248
0.02768235
0.03128852
0.03372071
0.03456470
0.04653248
0.06113976
0.06506564
0.06674728
0.06317156
0.05596767
0.04961720
0.04915878
0.04711858
0.04313901
0.02692931
0.00776265
0.00542099
0.00433361
0.00350570
0.00307035
0.00280625
0.00276143
0.00283778
0.00303334
0.00318406
0.00346351
0.00374951
0.00401751
0.00427961
0.00458253
0.00482589
0.00501196
0.00525277
0.00538774
0.00545178
0.00546806
0.00544895
0.00543320
0.00536982
0.00525945
0.00511286
0.00494905
0.00477510
0.00458327
0.00444056
0.00448956
0.00473386
0.00504210
0.00537864
0.00573977
0.00610165
0.00649331
0.00692496
0.00739594
0.00788992
0.00837605
0.00886054
0.00936735
0.00987040
0.01034591
0.01081153
0.01126112
0.01168827
0.01207525
0.01242741
0.01275235
0.01303286
0.01326632
0.01346662
0.01368671
0.01395414
0.01423979
0.01455400
0.01493278
0.01534041
0.01575532
0.01619353
0.01664040
0.01709417
0.01759052
0.01811116
0.01865312
0.01922533
0.01980127
0.02036776
0.02093248
0.02151418
0.02209940
0.02264972
0.02315684
0.02362943
0.02403842
0.02438220
0.02464904
0.02483267
0.02482744
0.02460441
0.02442787
0.02451563
0.02486668
0.02546602
0.02628222
0.02723361
0.02838074
0.02987723
0.03137067
0.03272755
0.03434468
0.03604107
0.03798900
0.03956169
0.04086437
0.04246116
0.04342243
0.04386285
0.04393498
0.04365169
0.04592615
0.04463011
0.04366174
0.04017022
0.04313701
0.04592377
0.04963448
0.05981346
0.06802962
0.06717289
0.06792112
0.06328871
0.05794149
0.05258155
0.05109554
0.04913174
0.04645547
0.03411745
0.01062889
0.00615612
0.00499452
0.00402501
0.00349122
0.00324007
0.00321051
0.00325904
0.00343932
0.00364294
0.00391896
0.00421511
0.00451240
0.00479191
0.00505103
0.00528098
0.00548902
0.00566212
0.00578729
0.00583455
0.00584195
0.00580202
0.00577701
0.00570967
0.00558211
0.00543336
0.00528633
0.00514262
0.00499265
0.00489104
0.00497749
0.00524315
0.00557784
0.00595264
0.00634881
0.00673981
0.00716472
0.00763622
0.00814764
0.00867357
0.00918761
0.00969211
0.01020689
0.01071027
0.01118048
0.01163021
0.01205886
0.01245961
0.01281886
0.01313858
0.01343322
0.01368467
0.01389671
0.01408098
0.01429962
0.01458970
0.01489498
0.01521483
0.01559970
0.01601292
0.01643790
0.01687953
0.01734323
0.01781809
0.01833675
0.01886990
0.01942241
0.01999708
0.02057512
0.02113355
0.02168961
0.02224528
0.02280450
0.02332458
0.02381575
0.02425257
0.02463049
0.02495136
0.02522476
0.02543684
0.02551081
0.02546480
0.02550176
0.02577760
0.02633218
0.02714764
0.02814493
0.02931150
0.03070788
0.03231476
0.03395293
0.03564957
0.03747074
0.03948306
0.04135121
0.04320972
0.04457404
0.04598127
0.04721859
0.04837287
0.04900768
0.05099618
0.05208409
0.05209637
0.05402939
0.05001381
0.05393250
0.05749217
0.05961604
0.06369858
0.06560759
0.06869922
0.06678304
0.06349846
0.05902807
0.05439014
0.05235876
0.05044518
0.04866945
0.03958139
0.01512552
0.00709785
0.00559551
0.00458510
0.00395910
0.00365491
0.00358785
0.00364708
0.00385897
0.00406299
0.00434441
0.00462566
0.00492567
0.00518688
0.00542565
0.00565618
0.00584569
0.00600370
0.00609232
0.00612938
0.00613038
0.00610100
0.00605452
0.00597726
0.00586058
0.00571362
0.00558544
0.00547107
0.00536769
0.00531383
0.00543812
0.00572404
0.00608187
0.00648550
0.00690326
0.00731707
0.00776781
0.00827231
0.00881383
0.00936111
0.00988856
0.01039629
0.01090480
0.01139675
0.01185017
0.01227821
0.01267895
0.01304997
0.01338083
0.01368123
0.01395696
0.01419474
0.01440228
0.01458633
0.01481677
0.01513363
0.01546093
0.01579870
0.01618900
0.01661408
0.01705095
0.01750460
0.01798422
0.01848255
0.01901660
0.01955915
0.02011119
0.02068243
0.02124936
0.02179867
0.02233969
0.02286917
0.02340729
0.02390049
0.02438432
0.02480702
0.02517311
0.02548189
0.02576820
0.02601135
0.02614137
0.02623043
0.02641871
0.02687393
0.02760530
0.02856374
0.02974095
0.03105954
0.03268937
0.03436100
0.03608606
0.03795162
0.03996816
0.04201757
0.04396976
0.04598426
0.04761563
0.04946947
0.05090057
0.05196702
0.05322009
0.05460945
0.05579799
0.05634253
0.05842515
0.05995241
0.06171373
0.06493150
0.06605049
0.06602354
0.06881741
0.06831390
0.06624217
0.06351610
0.05950443
0.05544529
0.05323849
0.05141382
0.04988524
0.04382250
0.02139102
0.00836076
0.00627502
0.00515454
0.00443725
0.00409770
0.00400600
0.00406061
0.00425859
0.00446519
0.00471949
0.00498556
0.00525869
0.00550695
0.00572308
0.00594052
0.00612077
0.00626583
0.00635572
0.00638736
0.00637357
0.00633066
0.00628055
0.00621256
0.00609934
0.00596726
0.00585218
0.00576914
0.00570772
0.00570623
0.00586893
0.00617487
0.00655254
0.00697321
0.00740266
0.00783709
0.00830781
0.00883853
0.00939769
0.00995491
0.01047980
0.01097990
0.01147047
0.01194000
0.01237603
0.01278354
0.01315864
0.01350183
0.01380920
0.01410146
0.01437106
0.01461091
0.01482716
0.01502488
0.01527304
0.01561131
0.01595986
0.01632627
0.01672953
0.01717504
0.01762894
0.01809815
0.01859213
0.01911029
0.01965006
0.02019729
0.02074531
0.02130721
0.02185693
0.02239128
0.02291417
0.02342570
0.02394327
0.02442561
0.02490533
0.02533455
0.02569942
0.02601439
0.02630835
0.02658210
0.02676062
0.02694727
0.02724707
0.02783837
0.02869432
0.02980840
0.03108879
0.03259111
0.03428280
0.03606460
0.03797688
0.03988521
0.04194390
0.04399966
0.04596591
0.04806672
0.05003022
0.05177439
0.05340401
0.05496612
0.05615153
0.05769983
0.05858508
0.05913996
0.06063946
0.06205252
0.06388964
0.06582860
0.06503797
0.06812479
0.07007000
0.06783688
0.06588363
0.06312195
0.05958204
0.05604822
0.05383684
0.05207335
0.05081216
0.04707173
0.02855879
0.01023187
0.00707284
0.00571688
0.00496768
0.00455234
0.00441603
0.00446174
0.00460460
0.00480302
0.00505577
0.00529203
0.00554925
0.00577800
0.00597773
0.00617612
0.00633801
0.00647289
0.00655574
0.00658256
0.00657267
0.00653133
0.00647080
0.00640998
0.00631156
0.00619409
0.00609489
0.00603679
0.00601467
0.00606436
0.00626369
0.00659077
0.00698154
0.00741092
0.00785060
0.00830310
0.00879154
0.00933944
0.00990512
0.01045610
0.01096739
0.01145153
0.01191614
0.01236473
0.01278338
0.01317052
0.01352490
0.01385055
0.01414208
0.01444049
0.01471375
0.01496213
0.01519748
0.01541682
0.01568715
0.01604377
0.01641656
0.01681170
0.01724266
0.01770710
0.01818579
0.01867341
0.01918184
0.01970836
0.02024692
0.02079550
0.02134088
0.02188883
0.02242287
0.02294371
0.02344624
0.02393726
0.02443622
0.02492172
0.02539776
0.02584331
0.02622189
0.02654846
0.02685045
0.02715471
0.02738192
0.02764096
0.02803052
0.02872365
0.02969227
0.03091337
0.03230748
0.03393300
0.03569044
0.03755613
0.03948389
0.04151351
0.04364926
0.04575807
0.04785454
0.04986619
0.05170876
0.05354077
0.05503811
0.05674579
0.05842946
0.05970934
0.06103967
0.06163227
0.06214715
0.06332239
0.06471330
0.06548633
0.06723316
0.06881944
0.06716958
0.06751220
0.06534316
0.06256026
0.05955893
0.05642337
0.05417387
0.05248306
0.05143852
0.04914302
0.03552847
0.01313182
0.00801278
0.00632562
0.00543730
0.00496934
0.00478924
0.00480412
0.00491616
0.00510584
0.00533708
0.00556173
0.00579612
0.00601186
0.00619797
0.00636927
0.00651380
0.00663737
0.00670879
0.00673989
0.00673049
0.00669532
0.00663893
0.00658094
0.00649927
0.00640136
0.00631713
0.00627996
0.00629093
0.00638697
0.00662287
0.00696674
0.00736383
0.00780045
0.00825153
0.00871773
0.00922280
0.00978039
0.01034254
0.01087492
0.01136557
0.01182626
0.01226610
0.01270037
0.01310039
0.01346523
0.01380847
0.01412311
0.01441700
0.01472578
0.01500735
0.01527072
0.01552726
0.01577667
0.01607791
0.01644980
0.01684827
0.01727655
0.01773539
0.01821837
0.01872807
0.01923660
0.01975660
0.02028291
0.02081283
0.02136186
0.02190034
0.02243441
0.02296322
0.02347393
0.02396098
0.02442686
0.02490858
0.02539884
0.02587069
0.02633888
0.02674383
0.02707723
0.02740013
0.02772726
0.02800232
0.02831969
0.02878810
0.02955926
0.03061005
0.03192323
0.03342490
0.03510680
0.03693148
0.03888346
0.04084237
0.04288637
0.04505802
0.04717769
0.04933192
0.05133959
0.05312159
0.05494320
0.05652249
0.05815021
0.05982820
0.06156661
0.06285478
0.06421350
0.06444766
0.06601143
0.06703605
0.06760116
0.07052564
0.07008614
0.06670911
0.06634681
0.06442993
0.06200461
0.05944249
0.05660844
0.05434121
0.05271942
0.05177519
0.05039758
0.04113735
0.01750353
0.00923134
0.00703340
0.00594117
0.00536537
0.00513626
0.00511654
0.00520273
0.00536624
0.00557325
0.00578887
0.00599222
0.00619715
0.00637405
0.00652871
0.00666336
0.00677104
0.00683906
0.00686304
0.00685615
0.00683270
0.00678556
0.00673031
0.00666429
0.00658680
0.00652352
0.00650475
0.00654448
0.00667932
0.00694739
0.00730210
0.00770254
0.00814721
0.00860781
0.00908686
0.00960631
0.01016673
0.01071874
0.01122914
0.01169510
0.01213282
0.01255382
0.01297242
0.01334600
0.01369403
0.01403608
0.01434920
0.01465796
0.01497622
0.01526806
0.01555171
0.01583053
0.01612288
0.01646086
0.01684610
0.01726700
0.01773151
0.01820685
0.01871731
0.01925770
0.01978456
0.02031777
0.02084217
0.02135726
0.02189649
0.02242836
0.02295645
0.02348064
0.02398495
0.02445762
0.02491281
0.02538171
0.02586991
0.02634546
0.02682914
0.02727101
0.02761777
0.02796181
0.02830561
0.02862115
0.02898111
0.02952049
0.03036543
0.03147726
0.03285609
0.03443502
0.03619983
0.03803683
0.04000295
0.04202998
0.04414260
0.04627761
0.04832875
0.05040733
0.05236314
0.05427518
0.05612618
0.05787403
0.05965115
0.06126845
0.06284686
0.06417882
0.06570409
0.06695726
0.06777820
0.06899726
0.07018412
0.07076751
0.06998022
0.06707957
0.06576049
0.06348692
0.06142378
0.05907406
0.05657240
0.05442594
0.05286270
0.05196621
0.05120006
0.04537514
0.02340851
0.01090486
0.00786503
0.00650128
0.00578702
0.00547956
0.00541832
0.00547285
0.00560246
0.00578352
0.00597872
0.00616553
0.00635141
0.00651372
0.00666012
0.00678092
0.00687731
0.00694138
0.00696502
0.00696343
0.00694727
0.00690841
0.00686256
0.00681267
0.00675374
0.00671299
0.00671619
0.00678431
0.00694859
0.00723661
0.00760071
0.00800851
0.00846042
0.00892657
0.00942035
0.00994806
0.01050477
0.01104334
0.01153335
0.01197707
0.01239520
0.01279983
0.01319381
0.01354408
0.01388534
0.01423227
0.01455666
0.01488106
0.01520184
0.01551223
0.01581769
0.01612826
0.01646838
0.01684710
0.01724832
0.01768456
0.01817362
0.01866252
0.01920481
0.01977469
0.02031409
0.02086951
0.02140091
0.02189214
0.02241125
0.02293521
0.02346966
0.02398652
0.02448055
0.02494239
0.02540066
0.02586841
0.02634620
0.02683222
0.02732845
0.02780121
0.02817219
0.02853944
0.02889534
0.02924137
0.02962817
0.03023019
0.03114538
0.03231148
0.03374054
0.03537799
0.03715094
0.03903292
0.04104006
0.04306957
0.04517779
0.04729224
0.04931255
0.05140487
0.05333058
0.05520235
0.05708831
0.05887981
0.06068822
0.06243602
0.06396474
0.06531222
0.06675612
0.06778654
0.06877455
0.07041543
0.07048693
0.06881509
0.06896966
0.06694700
0.06481757
0.06288571
0.06081032
0.05875744
0.05650762
0.05444980
0.05293760
0.05207560
0.05159212
0.04839149
0.03041245
0.01329174
0.00887817
0.00713313
0.00625022
0.00584314
0.00572168
0.00572863
0.00582300
0.00597103
0.00614853
0.00631337
0.00648228
0.00663534
0.00676584
0.00687694
0.00696502
0.00702276
0.00704743
0.00705118
0.00704227
0.00701590
0.00697857
0.00694454
0.00690548
0.00688816
0.00691694
0.00701268
0.00719763
0.00749404
0.00786920
0.00828706
0.00874492
0.00922150
0.00972257
0.01025203
0.01079796
0.01132298
0.01179372
0.01221814
0.01261866
0.01300954
0.01337625
0.01371628
0.01406096
0.01441406
0.01475663
0.01508816
0.01541151
0.01574169
0.01607652
0.01642691
0.01681688
0.01723859
0.01766034
0.01810400
0.01860913
0.01911415
0.01968235
0.02027759
0.02083138
0.02140902
0.02195403
0.02242883
0.02292006
0.02343990
0.02398462
0.02449968
0.02498156
0.02543644
0.02589427
0.02636367
0.02684374
0.02733466
0.02783481
0.02832047
0.02872682
0.02911694
0.02948682
0.02987220
0.03027416
0.03091899
0.03190130
0.03311797
0.03457880
0.03622563
0.03800455
0.03991540
0.04192437
0.04399110
0.04605108
0.04810353
0.05013800
0.05220204
0.05414639
0.05603629
0.05782403
0.05953657
0.06133299
0.06296990
0.06466024
0.06591441
0.06690442
0.06790196
0.06921324
0.06994644
0.06943545
0.06926866
0.06817680
0.06625211
0.06398588
0.06206590
0.06030237
0.05850222
0.05640404
0.05441654
0.05296420
0.05210666
0.05177183
0.05023016
0.03729064
0.01682427
0.01021836
0.00787298
0.00675239
0.00621274
0.00601399
0.00597251
0.00602613
0.00613943
0.00629055
0.00643952
0.00659063
0.00673501
0.00685796
0.00695980
0.00703854
0.00709002
0.00711424
0.00712375
0.00712317
0.00710697
0.00708141
0.00706118
0.00704362
0.00704953
0.00710670
0.00722797
0.00742579
0.00772760
0.00811035
0.00853905
0.00900439
0.00949493
0.00999457
0.01051891
0.01104936
0.01155797
0.01201229
0.01241921
0.01280693
0.01318458
0.01353430
0.01387547
0.01423328
0.01458944
0.01494214
0.01527886
0.01561206
0.01596398
0.01633244
0.01672885
0.01716713
0.01762780
0.01807835
0.01853734
0.01905005
0.01957432
0.02015791
0.02076759
0.02134756
0.02193758
0.02249068
0.02296369
0.02342893
0.02395031
0.02449501
0.02501866
0.02549921
0.02594653
0.02639834
0.02687106
0.02736059
0.02785070
0.02834708
0.02883085
0.02925705
0.02967661
0.03007606
0.03050415
0.03091948
0.03159303
0.03263007
0.03390271
0.03537266
0.03700917
0.03879748
0.04071811
0.04271403
0.04474832
0.04680324
0.04882322
0.05083768
0.05283599
0.05469853
0.05656810
0.05840595
0.06014561
0.06178579
0.06341836
0.06496617
0.06633164
0.06730169
0.06830746
0.06884451
0.06927583
0.06891238
0.06847808
0.06707217
0.06538062
0.06321516
0.06145710
0.05984891
0.05812185
0.05623304
0.05439813
0.05299144
0.05210061
0.05182156
0.05125637
0.04300816
0.02177787
0.01200044
0.00878361
0.00732405
0.00661304
0.00631074
0.00621339
0.00621918
0.00629197
0.00641198
0.00654596
0.00668347
0.00681900
0.00693202
0.00702541
0.00709689
0.00714609
0.00717183
0.00718534
0.00719302
0.00718630
0.00717360
0.00716640
0.00716921
0.00719889
0.00728305
0.00742598
0.00763588
0.00794263
0.00833109
0.00876807
0.00924272
0.00974123
0.01023767
0.01074915
0.01126244
0.01175108
0.01219099
0.01258612
0.01296707
0.01333380
0.01367996
0.01403255
0.01439996
0.01476044
0.01511685
0.01546445
0.01581904
0.01619587
0.01659768
0.01703875
0.01752225
0.01801491
0.01850300
0.01898832
0.01951075
0.02005049
0.02064494
0.02125841
0.02185678
0.02245385
0.02300636
0.02349761
0.02395373
0.02446265
0.02500021
0.02552971
0.02601257
0.02646022
0.02690218
0.02738339
0.02788246
0.02837336
0.02886437
0.02933916
0.02976527
0.03021798
0.03065205
0.03111506
0.03156569
0.03227577
0.03333947
0.03464292
0.03611172
0.03774253
0.03953862
0.04143054
0.04341444
0.04543184
0.04742867
0.04939811
0.05138992
0.05336381
0.05520369
0.05704765
0.05881666
0.06053384
0.06220629
0.06383108
0.06526225
0.06647460
0.06744946
0.06830914
0.06915483
0.06908366
0.06920013
0.06828420
0.06624446
0.06439834
0.06248876
0.06094852
0.05941900
0.05786976
0.05611929
0.05436006
0.05301044
0.05207876
0.05178203
0.05175617
0.04722252
0.02812659
0.01451296
0.00996003
0.00801057
0.00706463
0.00662923
0.00645830
0.00640861
0.00643894
0.00652572
0.00664120
0.00676496
0.00688795
0.00699480
0.00707968
0.00714330
0.00719121
0.00721898
0.00723826
0.00725448
0.00725745
0.00725623
0.00726474
0.00728393
0.00733737
0.00744614
0.00760811
0.00783110
0.00814240
0.00853752
0.00898048
0.00946202
0.00996262
0.01045334
0.01094796
0.01144277
0.01191134
0.01233449
0.01272651
0.01310700
0.01346736
0.01381986
0.01418284
0.01456021
0.01492846
0.01528940
0.01566212
0.01604679
0.01644854
0.01688281
0.01736566
0.01789375
0.01842362
0.01894380
0.01945032
0.01998883
0.02054427
0.02115094
0.02175986
0.02236767
0.02295823
0.02351827
0.02403324
0.02448285
0.02496464
0.02549949
0.02603624
0.02651838
0.02698490
0.02742006
0.02789502
0.02839736
0.02889610
0.02938669
0.02985409
0.03028284
0.03075771
0.03121766
0.03171128
0.03221575
0.03294806
0.03401741
0.03533727
0.03680941
0.03844857
0.04021896
0.04208584
0.04402691
0.04600426
0.04797198
0.04991323
0.05185408
0.05377605
0.05560207
0.05742561
0.05917595
0.06079728
0.06240733
0.06399629
0.06545781
0.06655486
0.06746931
0.06821688
0.06878016
0.06877448
0.06785366
0.06703945
0.06557953
0.06351285
0.06187344
0.06033307
0.05906700
0.05761138
0.05598498
0.05432721
0.05301754
0.05206189
0.05171488
0.05188595
0.04990255
0.03513938
0.01803075
0.01153235
0.00885828
0.00759081
0.00698673
0.00671841
0.00660755
0.00659020
0.00663835
0.00672663
0.00683668
0.00694855
0.00704599
0.00712374
0.00718021
0.00722526
0.00725767
0.00728314
0.00730684
0.00732133
0.00733166
0.00735461
0.00739188
0.00746645
0.00759640
0.00777488
0.00801070
0.00832776
0.00873086
0.00918102
0.00966436
0.01016104
0.01064396
0.01112221
0.01159675
0.01204406
0.01245663
0.01285228
0.01323166
0.01358953
0.01394829
0.01432264
0.01471588
0.01509440
0.01546952
0.01588073
0.01629968
0.01673107
0.01719259
0.01771802
0.01829117
0.01886714
0.01940818
0.01993236
0.02047769
0.02104573
0.02166132
0.02227954
0.02288619
0.02346928
0.02404433
0.02458636
0.02502314
0.02547322
0.02599870
0.02654712
0.02704607
0.02752651
0.02795527
0.02842114
0.02890802
0.02941705
0.02990789
0.03037008
0.03081396
0.03129911
0.03178230
0.03230175
0.03285079
0.03359850
0.03466278
0.03600167
0.03746609
0.03911330
0.04085487
0.04267975
0.04458140
0.04651511
0.04843814
0.05034964
0.05226663
0.05411043
0.05589580
0.05765639
0.05934839
0.06095176
0.06248098
0.06395602
0.06530353
0.06641973
0.06718427
0.06778977
0.06806745
0.06774198
0.06714588
0.06595433
0.06440470
0.06273247
0.06128804
0.05998438
0.05867429
0.05735169
0.05585899
0.05432587
0.05304395
0.05206895
0.05161931
0.05183344
0.05140269
0.04167744
0.02285212
0.01367567
0.00996504
0.00823682
0.00740355
0.00700602
0.00682148
0.00674853
0.00675227
0.00680849
0.00690285
0.00700131
0.00708775
0.00715860
0.00720986
0.00725026
0.00728823
0.00732038
0.00735170
0.00737838
0.00740134
0.00743806
0.00749489
0.00758832
0.00773378
0.00792761
0.00817481
0.00850068
0.00891327
0.00937164
0.00985461
0.01034075
0.01081449
0.01127989
0.01173031
0.01215795
0.01257058
0.01296716
0.01334379
0.01370432
0.01406957
0.01446190
0.01486830
0.01527017
0.01567713
0.01612785
0.01657769
0.01703289
0.01752302
0.01809401
0.01870998
0.01932360
0.01989260
0.02043896
0.02098118
0.02156479
0.02218982
0.02281647
0.02342144
0.02400824
0.02460415
0.02515671
0.02558723
0.02602115
0.02652603
0.02707425
0.02760233
0.02810276
0.02852631
0.02897561
0.02943969
0.02994231
0.03043635
0.03089228
0.03133647
0.03183185
0.03234810
0.03289010
0.03346473
0.03422870
0.03530102
0.03662409
0.03808852
0.03972903
0.04144760
0.04323641
0.04510007
0.04698587
0.04889035
0.05074002
0.05259166
0.05436180
0.05614797
0.05784683
0.05943464
0.06097567
0.06245175
0.06389667
0.06509133
0.06601915
0.06679413
0.06727462
0.06738977
0.06706922
0.06621913
0.06496114
0.06353293
0.06209905
0.06075472
0.05954604
0.05838547
0.05718788
0.05578264
0.05432014
0.05307450
0.05209611
0.05153350
0.05170139
0.05207844
0.04673367
0.02903386
0.01666210
0.01145270
0.00906086
0.00790518
0.00733782
0.00705893
0.00692229
0.00687730
0.00689533
0.00696506
0.00705057
0.00712386
0.00718625
0.00723297
0.00726843
0.00730956
0.00735064
0.00739074
0.00742866
0.00746541
0.00751567
0.00759353
0.00770379
0.00786154
0.00806888
0.00832763
0.00866561
0.00908830
0.00955441
0.01003194
0.01050657
0.01096701
0.01141925
0.01185082
0.01226852
0.01268164
0.01307299
0.01345124
0.01382000
0.01419256
0.01460476
0.01502903
0.01546724
0.01591425
0.01639500
0.01686877
0.01735205
0.01789174
0.01850190
0.01915679
0.01979969
0.02040096
0.02096960
0.02151448
0.02211619
0.02274993
0.02337067
0.02396750
0.02457453
0.02518279
0.02572477
0.02616460
0.02660685
0.02711198
0.02764098
0.02817485
0.02869288
0.02913628
0.02957131
0.03000810
0.03046849
0.03097717
0.03144205
0.03188626
0.03237089
0.03290862
0.03348384
0.03407404
0.03484641
0.03592674
0.03722992
0.03869591
0.04031693
0.04199706
0.04375233
0.04558776
0.04744552
0.04930500
0.05109763
0.05289348
0.05460608
0.05633576
0.05796989
0.05950851
0.06097411
0.06234602
0.06371467
0.06482427
0.06564270
0.06632112
0.06672448
0.06673731
0.06626800
0.06557504
0.06460026
0.06277797
0.06151192
0.06033137
0.05924014
0.05814585
0.05699136
0.05568883
0.05437009
0.05315114
0.05213853
0.05147597
0.05152996
0.05219967
0.05007104
0.03601112
0.02071710
0.01350699
0.01016359
0.00854783
0.00774678
0.00733854
0.00712275
0.00702061
0.00699449
0.00703025
0.00710069
0.00715964
0.00721153