/*--------------------------------*- C++ -*----------------------------------*\
  =========                 |
  \\      /  F ield         | OpenFOAM: The Open Source CFD Toolbox
   \\    /   O peration     | Website:  https://openfoam.org
    \\  /    A nd           | Version:  7
     \\/     M anipulation  |
\*---------------------------------------------------------------------------*/
FoamFile
{
    version     2.0;
    format      ascii;
    class       volSymmTensorField;
    location    "0";
    object      tauij_LES;
}
// * * * * * * * * * * * * * * * * * * * * * * * * * * * * * * * * * * * * * //

dimensions      [0 2 -2 0 0 0 0];

internalField   nonuniform List<symmTensor>
15600
(
(0.00550347 -0.00006896 0.00000000 0.00000693 0.00000000 0.00336482)
(0.00489243 -0.00004440 0.00000000 -0.00000285 0.00000000 0.00230304)
(-0.00058664 0.00000024 0.00000000 0.00008525 0.00000000 0.00060948)
(0.00012940 -0.00010891 0.00000000 0.00009058 0.00000000 0.00027845)
(0.00025832 -0.00022706 0.00000000 0.00020451 0.00000000 0.00067471)
(0.00011638 -0.00009619 0.00000000 0.00006382 0.00000000 0.00057855)
(0.00004235 -0.00001140 0.00000000 -0.00002582 0.00000000 0.00013871)
(0.00002527 -0.00002164 0.00000000 0.00001211 0.00000000 0.00018453)
(0.00001891 -0.00002074 0.00000000 0.00002264 0.00000000 0.00015671)
(0.00001314 -0.00001965 0.00000000 0.00002960 0.00000000 0.00009685)
(0.00002819 -0.00003528 0.00000000 0.00004468 0.00000000 0.00022341)
(0.00001609 -0.00002958 0.00000000 0.00005751 0.00000000 0.00012748)
(0.00002182 -0.00002847 0.00000000 0.00003750 0.00000000 0.00018155)
(-0.00000415 -0.00000208 0.00000000 0.00002396 0.00000000 0.00006003)
(0.00000548 -0.00000848 0.00000000 0.00001340 0.00000000 0.00012048)
(0.00002124 -0.00002849 0.00000000 0.00003967 0.00000000 0.00024460)
(-0.00000642 -0.00000672 0.00000000 0.00004340 0.00000000 0.00020266)
(0.00000626 -0.00000162 0.00000000 -0.00000784 0.00000000 0.00017182)
(0.00000807 -0.00000987 0.00000000 0.00001225 0.00000000 0.00025671)
(0.00001953 -0.00002675 0.00000000 0.00004034 0.00000000 0.00036269)
(0.00001237 -0.00001482 0.00000000 0.00002357 0.00000000 0.00009916)
(-0.00000124 -0.00001249 0.00000000 0.00004632 0.00000000 0.00017145)
(-0.00000445 -0.00001944 0.00000000 0.00007719 0.00000000 0.00029265)
(0.00002034 -0.00002427 0.00000000 0.00002963 0.00000000 0.00036300)
(0.00002764 -0.00002891 0.00000000 0.00003218 0.00000000 0.00036426)
(-0.00000244 -0.00001105 0.00000000 0.00003933 0.00000000 0.00017546)
(0.00003077 -0.00004162 0.00000000 0.00005724 0.00000000 0.00051345)
(0.00004318 -0.00004620 0.00000000 0.00005199 0.00000000 0.00041803)
(0.00005601 -0.00003435 0.00000000 0.00002108 0.00000000 0.00023396)
(0.00007961 -0.00005328 0.00000000 0.00003573 0.00000000 0.00039653)
(0.00009162 -0.00005623 0.00000000 0.00003515 0.00000000 0.00029916)
(0.00012197 -0.00004927 0.00000000 0.00002280 0.00000000 0.00043786)
(0.00011697 -0.00004965 0.00000000 0.00002172 0.00000000 0.00034317)
(0.00012617 -0.00004267 0.00000000 0.00001516 0.00000000 0.00029035)
(0.00014524 -0.00000067 0.00000000 -0.00000009 0.00000000 0.00019533)
(0.00013068 -0.00000018 0.00000000 -0.00000021 0.00000000 0.00015411)
(0.00014036 -0.00000019 0.00000000 -0.00000021 0.00000000 0.00015360)
(0.00015730 -0.00000013 0.00000000 -0.00000009 0.00000000 0.00016346)
(0.00017002 -0.00000012 0.00000000 -0.00000004 0.00000000 0.00017060)
(0.00017536 -0.00000020 0.00000000 -0.00000026 0.00000000 0.00016977)
(0.00018687 -0.00000023 0.00000000 -0.00000026 0.00000000 0.00017336)
(0.00020595 -0.00000028 0.00000000 -0.00000028 0.00000000 0.00018352)
(0.00022005 -0.00000027 0.00000000 -0.00000034 0.00000000 0.00018851)
(0.00023460 -0.00000023 0.00000000 -0.00000040 0.00000000 0.00019840)
(0.00026098 -0.00000017 0.00000000 -0.00000014 0.00000000 0.00021835)
(0.00027766 -0.00000015 0.00000000 -0.00000014 0.00000000 0.00023103)
(0.00028011 -0.00000031 0.00000000 -0.00000051 0.00000000 0.00023331)
(0.00029827 -0.00000034 0.00000000 -0.00000059 0.00000000 0.00024542)
(0.00032412 -0.00000042 0.00000000 -0.00000072 0.00000000 0.00026003)
(0.00036995 -0.00000022 0.00000000 -0.00000030 0.00000000 0.00028556)
(0.00038840 -0.00000018 0.00000000 -0.00000048 0.00000000 0.00029875)
(0.00041242 -0.00000026 0.00000000 -0.00000061 0.00000000 0.00031620)
(0.00044087 -0.00000026 0.00000000 -0.00000078 0.00000000 0.00033411)
(0.00047226 -0.00000019 0.00000000 -0.00000082 0.00000000 0.00035453)
(0.00049390 -0.00000016 0.00000000 -0.00000093 0.00000000 0.00037125)
(0.00052200 -0.00000009 0.00000000 -0.00000090 0.00000000 0.00039456)
(0.00055300 -0.00000006 0.00000000 -0.00000103 0.00000000 0.00042068)
(0.00058800 0.00000002 0.00000000 -0.00000101 0.00000000 0.00044655)
(0.00062703 0.00000017 0.00000000 -0.00000104 0.00000000 0.00047556)
(0.00065887 0.00000028 0.00000000 -0.00000133 0.00000000 0.00050397)
(0.00069735 0.00000033 0.00000000 -0.00000141 0.00000000 0.00053898)
(0.00074343 0.00000057 0.00000000 -0.00000143 0.00000000 0.00057971)
(0.00077791 0.00000085 0.00000000 -0.00000148 0.00000000 0.00061812)
(0.00082073 0.00000089 0.00000000 -0.00000157 0.00000000 0.00065920)
(0.00087183 0.00000102 0.00000000 -0.00000171 0.00000000 0.00070344)
(0.00092243 0.00000142 0.00000000 -0.00000178 0.00000000 0.00075104)
(0.00098787 0.00000187 0.00000000 -0.00000151 0.00000000 0.00080934)
(0.00103424 0.00000197 0.00000000 -0.00000193 0.00000000 0.00085186)
(0.00110137 0.00000261 0.00000000 -0.00000155 0.00000000 0.00091568)
(0.00113040 0.00000208 0.00000000 -0.00000258 0.00000000 0.00094993)
(0.00121850 0.00000306 0.00000000 -0.00000181 0.00000000 0.00102371)
(0.00130514 0.00000462 0.00000000 -0.00000097 0.00000000 0.00111227)
(0.00130587 0.00000312 0.00000000 -0.00000289 0.00000000 0.00113585)
(0.00136511 0.00000360 0.00000000 -0.00000300 0.00000000 0.00120375)
(0.00150898 0.00000582 0.00000000 -0.00000073 0.00000000 0.00131561)
(0.00151237 0.00000447 0.00000000 -0.00000295 0.00000000 0.00131931)
(0.00166806 0.00000724 0.00000000 -0.00000054 0.00000000 0.00145076)
(0.00169117 0.00000622 0.00000000 -0.00000284 0.00000000 0.00147343)
(0.00179451 0.00000661 0.00000000 -0.00000325 0.00000000 0.00155716)
(0.00201363 0.00000989 0.00000000 -0.00000018 0.00000000 0.00174564)
(0.00212081 0.00000894 0.00000000 -0.00000298 0.00000000 0.00181513)
(0.00232765 0.00000864 0.00000000 -0.00000422 0.00000000 0.00194286)
(0.00267599 0.00001229 0.00000000 -0.00000019 0.00000000 0.00223268)
(0.00280869 0.00001236 0.00000000 -0.00000500 0.00000000 0.00235438)
(0.00271032 0.00002157 0.00000000 -0.00000329 0.00000000 0.00264351)
(0.00175991 0.00005139 0.00000000 -0.00000205 0.00000000 0.00303053)
(0.00044117 0.00005427 0.00000000 -0.00000633 0.00000000 0.00119192)
(-0.00000527 0.00000534 0.00000000 0.00000491 0.00000000 0.00019469)
(0.00000927 0.00001291 0.00000000 0.00000685 0.00000000 0.00056826)
(-0.00000010 -0.00000011 0.00000000 -0.00000013 0.00000000 0.00000074)
(-0.00000604 -0.00000519 0.00000000 -0.00000604 0.00000000 0.00001165)
(-0.00000802 -0.00000716 0.00000000 -0.00000445 0.00000000 -0.00007568)
(-0.00003806 -0.00006615 0.00000000 -0.00010100 0.00000000 -0.00020419)
(-0.00004370 -0.00005900 0.00000000 -0.00007772 0.00000000 -0.00039851)
(-0.00002238 -0.00003452 0.00000000 -0.00006211 0.00000000 -0.00015631)
(-0.00000783 -0.00000755 0.00000000 -0.00000706 0.00000000 -0.00007423)
(-0.00009761 -0.00011649 0.00000000 -0.00014875 0.00000000 -0.00061049)
(-0.00011813 -0.00019429 0.00000000 -0.00033400 0.00000000 -0.00082214)
(-0.00005700 -0.00011854 0.00000000 -0.00023270 0.00000000 -0.00044165)
(-0.00000251 -0.00002593 0.00000000 -0.00007310 0.00000000 -0.00010630)
(0.00002494 0.00002605 0.00000000 0.00002683 0.00000000 -0.00000928)
(-0.00004407 -0.00005712 0.00000000 -0.00007958 0.00000000 -0.00066098)
(-0.00005810 -0.00006517 0.00000000 -0.00010223 0.00000000 -0.00091044)
(-0.00003294 -0.00005940 0.00000000 -0.00012678 0.00000000 -0.00087500)
(-0.00005351 -0.00018796 0.00000000 -0.00050725 0.00000000 -0.00106453)
(-0.00003139 -0.00010373 0.00000000 -0.00026095 0.00000000 -0.00068911)
(-0.00002480 -0.00007387 0.00000000 -0.00019911 0.00000000 -0.00066408)
(-0.00004344 -0.00014124 0.00000000 -0.00036373 0.00000000 -0.00053703)
(-0.00000431 -0.00009619 0.00000000 -0.00031503 0.00000000 -0.00048559)
(-0.00000941 -0.00005021 0.00000000 -0.00015581 0.00000000 -0.00050350)
(-0.00004715 -0.00010519 0.00000000 -0.00024637 0.00000000 -0.00056939)
(0.00000347 -0.00004333 0.00000000 -0.00013428 0.00000000 -0.00013897)
(0.00003225 0.00000811 0.00000000 -0.00001494 0.00000000 -0.00038511)
(-0.00003903 0.00004068 0.00000000 0.00019094 0.00000000 -0.00096421)
(-0.00054844 -0.00052638 0.00000000 -0.00058576 0.00000000 -0.00026809)
(-0.00011379 -0.00002363 0.00000000 -0.00003456 0.00000000 -0.00101299)
(-0.00065042 -0.00068976 0.00000000 -0.00054131 0.00000000 -0.00126947)
(-0.00269651 -0.00084331 0.00000000 -0.00027738 0.00000000 -0.00221647)
(0.00313697 0.00003181 0.00000000 0.00002846 0.00000000 0.00232513)
(0.00466106 -0.00005872 0.00000000 0.00001537 0.00000000 0.00335762)
(0.01433632 -0.00045443 0.00000000 0.00015080 0.00000000 0.00776205)
(0.01280669 -0.00032195 0.00000000 0.00009171 0.00000000 0.00582522)
(0.00298861 -0.00081108 0.00000000 0.00030624 0.00000000 0.00188829)
(0.00071247 -0.00031502 0.00000000 0.00022040 0.00000000 0.00117216)
(0.00067223 -0.00057969 0.00000000 0.00054929 0.00000000 0.00181908)
(0.00023641 -0.00026561 0.00000000 0.00034021 0.00000000 0.00125141)
(0.00018634 -0.00017490 0.00000000 0.00016013 0.00000000 0.00070456)
(0.00003969 -0.00005879 0.00000000 0.00009759 0.00000000 0.00043911)
(0.00004380 -0.00005813 0.00000000 0.00008265 0.00000000 0.00036984)
(0.00003709 -0.00004678 0.00000000 0.00006101 0.00000000 0.00026106)
(0.00004813 -0.00007487 0.00000000 0.00012604 0.00000000 0.00051533)
(0.00004331 -0.00005878 0.00000000 0.00008646 0.00000000 0.00028839)
(0.00005304 -0.00007539 0.00000000 0.00011135 0.00000000 0.00044484)
(0.00002763 -0.00004303 0.00000000 0.00008425 0.00000000 0.00023594)
(0.00006363 -0.00008735 0.00000000 0.00012239 0.00000000 0.00042704)
(0.00008245 -0.00011298 0.00000000 0.00016112 0.00000000 0.00063270)
(0.00006228 -0.00011476 0.00000000 0.00022018 0.00000000 0.00046846)
(0.00008595 -0.00012273 0.00000000 0.00017622 0.00000000 0.00060489)
(0.00010838 -0.00014367 0.00000000 0.00019751 0.00000000 0.00079334)
(0.00003921 -0.00009017 0.00000000 0.00020572 0.00000000 0.00074720)
(0.00008912 -0.00011634 0.00000000 0.00016088 0.00000000 0.00060048)
(0.00012621 -0.00016957 0.00000000 0.00023949 0.00000000 0.00077586)
(0.00014357 -0.00020788 0.00000000 0.00031609 0.00000000 0.00097395)
(0.00014154 -0.00018268 0.00000000 0.00024176 0.00000000 0.00105687)
(0.00015070 -0.00018340 0.00000000 0.00023754 0.00000000 0.00130341)
(0.00013736 -0.00017651 0.00000000 0.00024147 0.00000000 0.00097831)
(0.00020025 -0.00023466 0.00000000 0.00029364 0.00000000 0.00147388)
(0.00021863 -0.00023338 0.00000000 0.00027279 0.00000000 0.00158823)
(0.00030709 -0.00025904 0.00000000 0.00023340 0.00000000 0.00165923)
(0.00031865 -0.00026972 0.00000000 0.00025379 0.00000000 0.00183021)
(0.00043718 -0.00028300 0.00000000 0.00020461 0.00000000 0.00163977)
(0.00046433 -0.00024366 0.00000000 0.00015166 0.00000000 0.00162583)
(0.00049471 -0.00019329 0.00000000 0.00009198 0.00000000 0.00127799)
(0.00054889 -0.00012043 0.00000000 0.00004164 0.00000000 0.00113443)
(0.00060266 -0.00000750 0.00000000 0.00001141 0.00000000 0.00094899)
(0.00065357 0.00000325 0.00000000 0.00001014 0.00000000 0.00082966)
(0.00072052 0.00000286 0.00000000 0.00001063 0.00000000 0.00082297)
(0.00078932 0.00000321 0.00000000 0.00001111 0.00000000 0.00083825)
(0.00085578 0.00000345 0.00000000 0.00001183 0.00000000 0.00086524)
(0.00092283 0.00000323 0.00000000 0.00001231 0.00000000 0.00089180)
(0.00099904 0.00000323 0.00000000 0.00001348 0.00000000 0.00092027)
(0.00108426 0.00000255 0.00000000 0.00001397 0.00000000 0.00095680)
(0.00117733 0.00000378 0.00000000 0.00001570 0.00000000 0.00099523)
(0.00126266 0.00000539 0.00000000 0.00001663 0.00000000 0.00104054)
(0.00135098 0.00000509 0.00000000 0.00001712 0.00000000 0.00109484)
(0.00144964 0.00000608 0.00000000 0.00001800 0.00000000 0.00115832)
(0.00154825 0.00000637 0.00000000 0.00001987 0.00000000 0.00122086)
(0.00166945 0.00000573 0.00000000 0.00002208 0.00000000 0.00128510)
(0.00180944 0.00000540 0.00000000 0.00002318 0.00000000 0.00135032)
(0.00196782 0.00000672 0.00000000 0.00002498 0.00000000 0.00141772)
(0.00211651 0.00000961 0.00000000 0.00002743 0.00000000 0.00149729)
(0.00226189 0.00000960 0.00000000 0.00002835 0.00000000 0.00158828)
(0.00243528 0.00001018 0.00000000 0.00003104 0.00000000 0.00167867)
(0.00261083 0.00001371 0.00000000 0.00003246 0.00000000 0.00177489)
(0.00277418 0.00001716 0.00000000 0.00003433 0.00000000 0.00187600)
(0.00293050 0.00002025 0.00000000 0.00003643 0.00000000 0.00198597)
(0.00308761 0.00002197 0.00000000 0.00003841 0.00000000 0.00210390)
(0.00327064 0.00002356 0.00000000 0.00004091 0.00000000 0.00223249)
(0.00345308 0.00002792 0.00000000 0.00004486 0.00000000 0.00236725)
(0.00362682 0.00003270 0.00000000 0.00004818 0.00000000 0.00252017)
(0.00381027 0.00003574 0.00000000 0.00005171 0.00000000 0.00269161)
(0.00399802 0.00004109 0.00000000 0.00005508 0.00000000 0.00287082)
(0.00418054 0.00004660 0.00000000 0.00005828 0.00000000 0.00305747)
(0.00438610 0.00004805 0.00000000 0.00006210 0.00000000 0.00325502)
(0.00461484 0.00005228 0.00000000 0.00006721 0.00000000 0.00346119)
(0.00483840 0.00005828 0.00000000 0.00007186 0.00000000 0.00367210)
(0.00509020 0.00006033 0.00000000 0.00007494 0.00000000 0.00390431)
(0.00532645 0.00006617 0.00000000 0.00007930 0.00000000 0.00412540)
(0.00554888 0.00007042 0.00000000 0.00008447 0.00000000 0.00436543)
(0.00577480 0.00007320 0.00000000 0.00008966 0.00000000 0.00461584)
(0.00602103 0.00007719 0.00000000 0.00009641 0.00000000 0.00487554)
(0.00628614 0.00008419 0.00000000 0.00009811 0.00000000 0.00516998)
(0.00649212 0.00008539 0.00000000 0.00010620 0.00000000 0.00544742)
(0.00676368 0.00008680 0.00000000 0.00011015 0.00000000 0.00575432)
(0.00708281 0.00008799 0.00000000 0.00011466 0.00000000 0.00603213)
(0.00731233 0.00009091 0.00000000 0.00012525 0.00000000 0.00627929)
(0.00764682 0.00009346 0.00000000 0.00012795 0.00000000 0.00663098)
(0.00794257 0.00009461 0.00000000 0.00013595 0.00000000 0.00699644)
(0.00829976 0.00009075 0.00000000 0.00014642 0.00000000 0.00742530)
(0.00877919 0.00009337 0.00000000 0.00015487 0.00000000 0.00797346)
(0.00923876 0.00009051 0.00000000 0.00017085 0.00000000 0.00857286)
(0.00969964 0.00008774 0.00000000 0.00018916 0.00000000 0.00925524)
(0.01021376 0.00011306 0.00000000 0.00020129 0.00000000 0.01012541)
(0.01007928 0.00018692 0.00000000 0.00022089 0.00000000 0.01094320)
(0.00899481 0.00035711 0.00000000 0.00023153 0.00000000 0.01159719)
(0.00615758 0.00076518 0.00000000 0.00030281 0.00000000 0.01143431)
(0.00375542 0.00121141 0.00000000 0.00049523 0.00000000 0.00779707)
(0.00205233 0.00108871 0.00000000 0.00061805 0.00000000 0.00497613)
(0.00115798 0.00081830 0.00000000 0.00062418 0.00000000 0.00411890)
(0.00067421 0.00050729 0.00000000 0.00040279 0.00000000 0.00274848)
(0.00018629 0.00021060 0.00000000 0.00025360 0.00000000 0.00177737)
(0.00020188 0.00019544 0.00000000 0.00019418 0.00000000 0.00140855)
(-0.00000840 0.00002963 0.00000000 0.00007556 0.00000000 0.00063736)
(0.00002786 -0.00004210 0.00000000 -0.00013606 0.00000000 0.00039151)
(0.00000912 -0.00012367 0.00000000 -0.00030275 0.00000000 -0.00006493)
(0.00005345 0.00006274 0.00000000 0.00007619 0.00000000 0.00043230)
(0.00002431 -0.00006968 0.00000000 -0.00022256 0.00000000 -0.00001153)
(0.00001809 -0.00016267 0.00000000 -0.00044606 0.00000000 -0.00013936)
(-0.00000909 -0.00011497 0.00000000 -0.00026233 0.00000000 0.00019297)
(-0.00002114 -0.00000761 0.00000000 0.00005015 0.00000000 0.00038578)
(-0.00005984 -0.00003313 0.00000000 0.00001114 0.00000000 -0.00021178)
(0.00001285 -0.00003793 0.00000000 -0.00015406 0.00000000 -0.00008327)
(0.00001928 -0.00004340 0.00000000 -0.00019508 0.00000000 -0.00039920)
(-0.00012568 -0.00034345 0.00000000 -0.00079444 0.00000000 -0.00171030)
(0.00000516 -0.00010914 0.00000000 -0.00034883 0.00000000 0.00060831)
(0.00001258 -0.00008022 0.00000000 -0.00024304 0.00000000 0.00052633)
(0.00000387 -0.00015807 0.00000000 -0.00051427 0.00000000 -0.00044370)
(-0.00003829 0.00001042 0.00000000 0.00011092 0.00000000 0.00180112)
(0.00004228 -0.00002935 0.00000000 -0.00018788 0.00000000 0.00037749)
(-0.00002094 -0.00003613 0.00000000 -0.00003603 0.00000000 0.00192568)
(-0.00001581 -0.00006390 0.00000000 -0.00017680 0.00000000 0.00014837)
(-0.00002580 -0.00000378 0.00000000 0.00002448 0.00000000 0.00081961)
(-0.00003597 -0.00000957 0.00000000 0.00003200 0.00000000 -0.00045821)
(-0.00014775 -0.00014901 0.00000000 -0.00020479 0.00000000 0.00107794)
(-0.00000805 0.00022546 0.00000000 0.00042254 0.00000000 0.00469956)
(0.00222159 0.00207343 0.00000000 0.00155901 0.00000000 0.00504119)
(0.00636006 0.00138990 0.00000000 0.00008123 0.00000000 0.00646647)
(0.00533971 0.00060903 0.00000000 0.00003503 0.00000000 0.00280442)
(0.01096776 0.00008814 0.00000000 0.00014832 0.00000000 0.00722099)
(0.01333123 -0.00040375 0.00000000 0.00014157 0.00000000 0.00804732)
(0.02719987 -0.00115361 0.00000000 0.00047421 0.00000000 0.01378401)
(0.02556989 -0.00103930 0.00000000 0.00039452 0.00000000 0.01128591)
(0.01136845 -0.00231841 0.00000000 0.00069918 0.00000000 0.00421630)
(0.00179226 -0.00081848 0.00000000 0.00060531 0.00000000 0.00249513)
(0.00098374 -0.00081458 0.00000000 0.00083295 0.00000000 0.00281254)
(0.00034525 -0.00045824 0.00000000 0.00074521 0.00000000 0.00202239)
(0.00035831 -0.00038628 0.00000000 0.00043119 0.00000000 0.00148168)
(0.00008557 -0.00015982 0.00000000 0.00030694 0.00000000 0.00084776)
(0.00008304 -0.00014030 0.00000000 0.00024850 0.00000000 0.00075766)
(0.00007219 -0.00011122 0.00000000 0.00018019 0.00000000 0.00058043)
(0.00005939 -0.00011947 0.00000000 0.00026124 0.00000000 0.00081540)
(0.00008553 -0.00013743 0.00000000 0.00022887 0.00000000 0.00065017)
(0.00011757 -0.00017628 0.00000000 0.00027423 0.00000000 0.00088868)
(0.00012681 -0.00018535 0.00000000 0.00028388 0.00000000 0.00070452)
(0.00015466 -0.00021751 0.00000000 0.00031480 0.00000000 0.00094059)
(0.00014391 -0.00022480 0.00000000 0.00037616 0.00000000 0.00115490)
(0.00019437 -0.00029140 0.00000000 0.00045563 0.00000000 0.00101699)
(0.00025554 -0.00033984 0.00000000 0.00047086 0.00000000 0.00126398)
(0.00025570 -0.00034421 0.00000000 0.00048857 0.00000000 0.00153567)
(0.00019875 -0.00033170 0.00000000 0.00059468 0.00000000 0.00133347)
(0.00026992 -0.00036474 0.00000000 0.00051884 0.00000000 0.00148538)
(0.00031852 -0.00042131 0.00000000 0.00059441 0.00000000 0.00181656)
(0.00037442 -0.00048724 0.00000000 0.00067729 0.00000000 0.00216424)
(0.00043605 -0.00051773 0.00000000 0.00066009 0.00000000 0.00239788)
(0.00039362 -0.00046789 0.00000000 0.00061967 0.00000000 0.00259368)
(0.00039385 -0.00046378 0.00000000 0.00060131 0.00000000 0.00234271)
(0.00048434 -0.00051939 0.00000000 0.00063493 0.00000000 0.00307724)
(0.00051940 -0.00052145 0.00000000 0.00061402 0.00000000 0.00297998)
(0.00059775 -0.00050786 0.00000000 0.00051932 0.00000000 0.00316059)
(0.00063204 -0.00049304 0.00000000 0.00049233 0.00000000 0.00320645)
(0.00073435 -0.00044162 0.00000000 0.00036299 0.00000000 0.00298890)
(0.00080928 -0.00039374 0.00000000 0.00028907 0.00000000 0.00277518)
(0.00090749 -0.00031125 0.00000000 0.00018153 0.00000000 0.00237343)
(0.00098025 -0.00017325 0.00000000 0.00009556 0.00000000 0.00213880)
(0.00110097 -0.00002021 0.00000000 0.00005556 0.00000000 0.00187652)
(0.00130422 0.00001401 0.00000000 0.00005554 0.00000000 0.00171601)
(0.00147472 0.00001552 0.00000000 0.00005786 0.00000000 0.00168814)
(0.00163637 0.00001653 0.00000000 0.00006110 0.00000000 0.00171016)
(0.00178795 0.00001745 0.00000000 0.00006403 0.00000000 0.00175506)
(0.00194304 0.00001705 0.00000000 0.00006783 0.00000000 0.00180154)
(0.00210760 0.00001674 0.00000000 0.00007074 0.00000000 0.00185748)
(0.00228798 0.00001566 0.00000000 0.00007614 0.00000000 0.00192242)
(0.00248583 0.00001776 0.00000000 0.00008000 0.00000000 0.00200055)
(0.00268492 0.00002177 0.00000000 0.00008526 0.00000000 0.00208571)
(0.00289416 0.00002171 0.00000000 0.00009089 0.00000000 0.00218491)
(0.00311782 0.00002461 0.00000000 0.00009665 0.00000000 0.00229776)
(0.00334273 0.00002539 0.00000000 0.00010295 0.00000000 0.00241637)
(0.00360950 0.00002177 0.00000000 0.00011057 0.00000000 0.00253590)
(0.00391131 0.00002166 0.00000000 0.00011852 0.00000000 0.00265178)
(0.00423862 0.00002468 0.00000000 0.00012665 0.00000000 0.00277258)
(0.00455728 0.00003251 0.00000000 0.00013504 0.00000000 0.00291730)
(0.00487412 0.00003392 0.00000000 0.00014515 0.00000000 0.00307617)
(0.00522307 0.00003435 0.00000000 0.00015289 0.00000000 0.00325043)
(0.00557250 0.00004533 0.00000000 0.00016079 0.00000000 0.00342668)
(0.00589530 0.00005556 0.00000000 0.00016879 0.00000000 0.00361272)
(0.00619596 0.00006465 0.00000000 0.00017857 0.00000000 0.00381424)
(0.00648460 0.00006920 0.00000000 0.00019029 0.00000000 0.00402907)
(0.00679347 0.00007326 0.00000000 0.00020239 0.00000000 0.00426485)
(0.00708573 0.00008577 0.00000000 0.00021849 0.00000000 0.00451195)
(0.00734916 0.00009633 0.00000000 0.00023519 0.00000000 0.00478589)
(0.00761310 0.00010170 0.00000000 0.00025247 0.00000000 0.00508454)
(0.00789593 0.00011085 0.00000000 0.00026811 0.00000000 0.00540123)
(0.00817438 0.00011971 0.00000000 0.00028670 0.00000000 0.00572294)
(0.00847546 0.00011928 0.00000000 0.00030688 0.00000000 0.00606509)
(0.00881715 0.00012458 0.00000000 0.00032646 0.00000000 0.00642893)
(0.00915339 0.00013226 0.00000000 0.00034770 0.00000000 0.00679472)
(0.00948744 0.00013095 0.00000000 0.00036977 0.00000000 0.00716753)
(0.00981533 0.00013807 0.00000000 0.00038862 0.00000000 0.00755001)
(0.01014748 0.00014287 0.00000000 0.00040474 0.00000000 0.00797897)
(0.01045607 0.00014088 0.00000000 0.00042426 0.00000000 0.00842460)
(0.01076988 0.00013916 0.00000000 0.00044819 0.00000000 0.00886845)
(0.01104745 0.00013839 0.00000000 0.00048087 0.00000000 0.00930876)
(0.01138177 0.00013311 0.00000000 0.00050021 0.00000000 0.00982598)
(0.01171319 0.00011870 0.00000000 0.00052950 0.00000000 0.01033578)
(0.01209220 0.00010634 0.00000000 0.00055426 0.00000000 0.01083488)
(0.01246051 0.00010452 0.00000000 0.00057695 0.00000000 0.01137394)
(0.01278458 0.00009135 0.00000000 0.00060970 0.00000000 0.01197437)
(0.01313859 0.00007690 0.00000000 0.00064002 0.00000000 0.01267468)
(0.01351682 0.00005242 0.00000000 0.00068098 0.00000000 0.01346677)
(0.01392328 0.00004152 0.00000000 0.00072657 0.00000000 0.01438845)
(0.01427444 0.00003718 0.00000000 0.00078058 0.00000000 0.01541991)
(0.01449802 0.00005284 0.00000000 0.00083649 0.00000000 0.01656231)
(0.01447951 0.00014512 0.00000000 0.00088971 0.00000000 0.01776339)
(0.01390292 0.00036992 0.00000000 0.00092360 0.00000000 0.01885879)
(0.01236834 0.00080423 0.00000000 0.00093720 0.00000000 0.01930568)
(0.00971943 0.00159786 0.00000000 0.00102318 0.00000000 0.01820651)
(0.00754721 0.00252576 0.00000000 0.00137217 0.00000000 0.01479915)
(0.00575037 0.00289939 0.00000000 0.00181075 0.00000000 0.01215740)
(0.00440293 0.00295445 0.00000000 0.00226327 0.00000000 0.00985908)
(0.00302771 0.00251387 0.00000000 0.00232124 0.00000000 0.00932899)
(0.00195270 0.00204356 0.00000000 0.00228930 0.00000000 0.00652976)
(0.00134901 0.00154705 0.00000000 0.00191027 0.00000000 0.00620116)
(0.00118174 0.00137745 0.00000000 0.00170895 0.00000000 0.00471450)
(0.00049941 0.00073486 0.00000000 0.00114911 0.00000000 0.00449042)
(0.00052126 0.00075983 0.00000000 0.00114873 0.00000000 0.00290084)
(0.00033167 0.00046646 0.00000000 0.00072357 0.00000000 0.00381505)
(0.00037375 0.00058472 0.00000000 0.00102493 0.00000000 0.00468570)
(0.00014758 0.00036182 0.00000000 0.00085735 0.00000000 0.00393681)
(0.00011712 0.00029896 0.00000000 0.00072700 0.00000000 0.00313805)
(0.00026368 0.00037406 0.00000000 0.00061236 0.00000000 0.00236729)
(0.00027527 0.00019097 0.00000000 0.00005119 0.00000000 0.00084458)
(0.00010330 0.00005960 0.00000000 0.00003509 0.00000000 0.00430173)
(0.00025362 0.00019823 0.00000000 0.00016597 0.00000000 0.00412649)
(0.00012155 -0.00014718 0.00000000 -0.00057045 0.00000000 0.00103688)
(-0.00004894 -0.00004056 0.00000000 0.00010866 0.00000000 0.00367342)
(0.00005796 0.00006351 0.00000000 0.00016556 0.00000000 0.00249971)
(0.00001961 -0.00007178 0.00000000 -0.00022073 0.00000000 0.00083461)
(0.00004510 0.00017314 0.00000000 0.00047820 0.00000000 0.00313397)
(-0.00002146 -0.00004619 0.00000000 -0.00002391 0.00000000 0.00080643)
(-0.00001111 0.00002443 0.00000000 0.00020252 0.00000000 0.00245443)
(-0.00008279 -0.00011042 0.00000000 -0.00014818 0.00000000 -0.00012641)
(-0.00005032 0.00003025 0.00000000 0.00019196 0.00000000 0.00073828)
(-0.00007077 -0.00007884 0.00000000 -0.00010104 0.00000000 -0.00167246)
(-0.00021443 -0.00025287 0.00000000 -0.00036607 0.00000000 0.00631564)
(0.00046557 0.00098361 0.00000000 0.00147476 0.00000000 0.00880910)
(0.00474734 0.00378364 0.00000000 0.00295774 0.00000000 0.01470371)
(0.01100476 0.00306604 0.00000000 0.00110010 0.00000000 0.01676450)
(0.02252764 0.00372009 0.00000000 0.00080010 0.00000000 0.01364380)
(0.02554757 0.00018044 0.00000000 0.00045784 0.00000000 0.01607030)
(0.02654774 -0.00098583 0.00000000 0.00044306 0.00000000 0.01475683)
(0.03951005 -0.00187285 0.00000000 0.00098339 0.00000000 0.01962879)
(0.03907467 -0.00198424 0.00000000 0.00091558 0.00000000 0.01713310)
(0.02360360 -0.00367977 0.00000000 0.00117558 0.00000000 0.00794797)
(0.00377332 -0.00141156 0.00000000 0.00103974 0.00000000 0.00387134)
(0.00134099 -0.00104816 0.00000000 0.00119517 0.00000000 0.00407274)
(0.00054971 -0.00070776 0.00000000 0.00118927 0.00000000 0.00282479)
(0.00049431 -0.00056937 0.00000000 0.00074098 0.00000000 0.00224216)
(0.00022192 -0.00035760 0.00000000 0.00060873 0.00000000 0.00133549)
(0.00018557 -0.00029878 0.00000000 0.00050709 0.00000000 0.00125001)
(0.00014850 -0.00023804 0.00000000 0.00039679 0.00000000 0.00104086)
(0.00008679 -0.00019972 0.00000000 0.00049138 0.00000000 0.00105772)
(0.00017569 -0.00028397 0.00000000 0.00047934 0.00000000 0.00115116)
(0.00022088 -0.00032813 0.00000000 0.00051227 0.00000000 0.00137311)
(0.00021761 -0.00033111 0.00000000 0.00052832 0.00000000 0.00120699)
(0.00028183 -0.00039745 0.00000000 0.00058861 0.00000000 0.00151476)
(0.00024415 -0.00041108 0.00000000 0.00074781 0.00000000 0.00167899)
(0.00038319 -0.00054524 0.00000000 0.00081662 0.00000000 0.00179910)
(0.00045940 -0.00060881 0.00000000 0.00086005 0.00000000 0.00214510)
(0.00044246 -0.00062345 0.00000000 0.00095313 0.00000000 0.00246283)
(0.00052917 -0.00074177 0.00000000 0.00111413 0.00000000 0.00236344)
(0.00058924 -0.00075881 0.00000000 0.00105585 0.00000000 0.00256879)
(0.00058744 -0.00076506 0.00000000 0.00109859 0.00000000 0.00290523)
(0.00064771 -0.00082462 0.00000000 0.00117905 0.00000000 0.00334662)
(0.00070172 -0.00082997 0.00000000 0.00112143 0.00000000 0.00363575)
(0.00066540 -0.00078637 0.00000000 0.00109783 0.00000000 0.00393776)
(0.00076722 -0.00083420 0.00000000 0.00106247 0.00000000 0.00382368)
(0.00074731 -0.00076182 0.00000000 0.00098377 0.00000000 0.00427474)
(0.00084822 -0.00076443 0.00000000 0.00090052 0.00000000 0.00434493)
(0.00091584 -0.00070298 0.00000000 0.00075957 0.00000000 0.00440428)
(0.00096230 -0.00064840 0.00000000 0.00067913 0.00000000 0.00429282)
(0.00107663 -0.00056146 0.00000000 0.00051870 0.00000000 0.00417991)
(0.00117799 -0.00047362 0.00000000 0.00040758 0.00000000 0.00380705)
(0.00127906 -0.00035522 0.00000000 0.00027548 0.00000000 0.00339529)
(0.00137521 -0.00018794 0.00000000 0.00017941 0.00000000 0.00301318)
(0.00157596 -0.00003062 0.00000000 0.00014305 0.00000000 0.00270797)
(0.00192616 0.00002945 0.00000000 0.00014819 0.00000000 0.00252069)
(0.00222569 0.00003756 0.00000000 0.00015483 0.00000000 0.00246554)
(0.00249500 0.00003903 0.00000000 0.00016161 0.00000000 0.00248413)
(0.00274657 0.00004076 0.00000000 0.00016920 0.00000000 0.00253565)
(0.00299999 0.00003920 0.00000000 0.00017625 0.00000000 0.00259894)
(0.00326290 0.00003875 0.00000000 0.00018478 0.00000000 0.00267218)
(0.00354550 0.00003637 0.00000000 0.00019617 0.00000000 0.00276419)
(0.00385720 0.00003753 0.00000000 0.00020734 0.00000000 0.00287109)
(0.00418863 0.00004184 0.00000000 0.00022055 0.00000000 0.00299027)
(0.00453303 0.00004174 0.00000000 0.00023374 0.00000000 0.00312500)
(0.00489216 0.00004539 0.00000000 0.00024581 0.00000000 0.00327642)
(0.00526289 0.00004520 0.00000000 0.00026319 0.00000000 0.00343064)
(0.00567655 0.00003680 0.00000000 0.00027984 0.00000000 0.00359358)
(0.00613131 0.00003653 0.00000000 0.00029869 0.00000000 0.00374784)
(0.00660758 0.00004073 0.00000000 0.00031645 0.00000000 0.00391306)
(0.00707156 0.00005187 0.00000000 0.00033542 0.00000000 0.00410342)
(0.00752723 0.00005414 0.00000000 0.00035770 0.00000000 0.00431765)
(0.00800147 0.00005433 0.00000000 0.00037762 0.00000000 0.00454940)
(0.00846205 0.00007138 0.00000000 0.00039758 0.00000000 0.00478772)
(0.00887739 0.00008873 0.00000000 0.00041892 0.00000000 0.00503832)
(0.00924561 0.00010303 0.00000000 0.00044382 0.00000000 0.00531051)
(0.00957410 0.00010736 0.00000000 0.00047250 0.00000000 0.00559566)
(0.00989146 0.00011051 0.00000000 0.00050134 0.00000000 0.00591087)
(0.01017507 0.00012830 0.00000000 0.00053885 0.00000000 0.00624104)
(0.01040761 0.00013777 0.00000000 0.00058037 0.00000000 0.00659261)
(0.01063609 0.00013698 0.00000000 0.00062194 0.00000000 0.00696825)
(0.01089446 0.00013808 0.00000000 0.00066169 0.00000000 0.00736459)
(0.01115565 0.00013764 0.00000000 0.00070538 0.00000000 0.00777155)
(0.01144573 0.00012529 0.00000000 0.00075278 0.00000000 0.00821148)