4 	0.00391112967796265 	-2.08166817117217e-17 	-0.0357917152755429 	2.38523148581544e-05 	0
4 	0.0118766651674913 	-2.42861286636753e-17 	-0.0971702419445649 	-6.91073091998652e-05 	0
4 	0.020134001548576 	-3.12250225675825e-17 	-0.14280773213567 	-0.000260172375200978 	-3.5991461137578e-22
4 	0.028693828342395 	-3.81639164714898e-17 	-0.168520381083395 	-0.000582816185642586 	-3.82769834574793e-21
4 	0.0375672266585909 	-3.81639164714898e-17 	-0.178343533295349 	-0.00100054099741852 	2.09072178859619e-23
4 	0.0467656835403032 	-3.81639164714898e-17 	-0.18046614798655 	-0.00147350975698083 	3.0734379670116e-21
4 	0.0563011068347006 	-3.81639164714898e-17 	-0.179491872415315 	-0.00199009058545025 	6.48804156345974e-23
4 	0.0661858406082648 	-3.46944695195361e-17 	-0.177164951133235 	-0.00254452240636346 	5.78699055634061e-22
4 	0.0764326811267815 	-3.46944695195361e-17 	-0.174126730642642 	-0.00313192542279497 	-1.22252158459322e-22
4 	0.0870548934207257 	-3.46944695195361e-17 	-0.170637443630712 	-0.00374946233478421 	-9.8587608184047e-23
4 	0.0980662284574838 	-3.81639164714898e-17 	-0.166812108481059 	-0.00439593063320187 	3.60999039328674e-22
4 	0.109480940942647 	-3.46944695195361e-17 	-0.162702751597875 	-0.00507098738163131 	-1.8947709023289e-24
4 	0.121313807773416 	-2.77555756156289e-17 	-0.158330639948475 	-0.005774732799722 	-2.85743215042416e-23
4 	0.13358014716801 	-2.77555756156289e-17 	-0.15370032547058 	-0.00650754198427134 	-5.62595124005917e-23
4 	0.146295838495838 	-2.77555756156289e-17 	-0.148806291147928 	-0.00726998953573384 	-5.15876000802986e-23
4 	0.159477342834115 	-2.42861286636753e-17 	-0.143636284571845 	-0.00806280838880587 	-5.12770749997127e-24
4 	0.173141724277517 	-1.73472347597681e-17 	-0.13817304258949 	-0.0088868664835055 	4.36200180076585e-23
4 	0.18730667202848 	-1.73472347597681e-17 	-0.132395176866632 	-0.00974315468212381 	2.98250939280498e-24
4 	0.201990523296728 	-2.42861286636753e-17 	-0.126277592082137 	-0.0106327819211914 	-5.6197637852432e-22
4 	0.217212287037676 	-3.12250225675825e-17 	-0.119791626206028 	-0.0115569751530289 	4.59574390924615e-22
4 	0.232991668560441 	-3.81639164714898e-17 	-0.112905013637293 	-0.0125170826091981 	4.87687890531858e-22
4 	0.249349095037321 	-4.16333634234434e-17 	-0.105581726515489 	-0.013514579404626 	9.84349515945458e-22
4 	0.266305741947753 	-4.16333634234434e-17 	-0.0977817251294922 	-0.014551074690694 	5.89036240670535e-22
4 	0.283883560490999 	-4.16333634234434e-17 	-0.0894606347310888 	-0.015628319574024 	1.06018315849888e-21
4 	0.30210530600303 	-4.5102810375397e-17 	-0.0805693582141793 	-0.0167482148753168 	5.65888281269507e-23
4 	0.320994567414413 	-4.5102810375397e-17 	-0.0710536295235829 	-0.0179128174921179 	1.02690806769179e-21
4 	0.340575797787321 	-3.81639164714898e-17 	-0.0608535100346543 	-0.0191243437165803 	9.62022056146404e-22
4 	0.360874345971201 	-2.77555756156289e-17 	-0.0499028289005866 	-0.0203851677210646 	-1.09692046978619e-21
4 	0.38191648941809 	-2.77555756156289e-17 	-0.0381285683381989 	-0.0216978133181001 	-3.6973647864779e-23
4 	0.403729468200046 	-3.81639164714898e-17 	-0.0254501962179093 	-0.0230649312723592 	4.59139612042544e-23
4 	0.426341520272733 	-4.5102810375397e-17 	-0.0117789516578204 	-0.0244892335013565 	1.20688508936893e-21
4 	0.449781918030829 	-3.81639164714898e-17 	0.00298291421362545 	-0.0259733711575972 	8.39787051882022e-23
4 	0.474081006202548 	-2.77555756156289e-17 	0.0189430526728067 	-0.0275200677941784 	1.28498422011073e-21
4 	0.499270241132363 	-3.12250225675825e-17 	0.0362197763867561 	-0.0291329636778043 	8.71872709342701e-23
4 	0.525382231502763 	-3.81639164714898e-17 	0.0549427273919708 	-0.0308158835944815 	4.52868691813299e-23
4 	0.552450780547767 	-3.81639164714898e-17 	0.0752768796933933 	-0.0325566999401972 	9.93771597921779e-24
4 	0.580510929812849 	-3.46944695195361e-17 	0.0977907198691057 	-0.0343706721255555 	-3.1216221741672e-21
4 	0.60959900451791 	-3.81639164714898e-17 	0.123317243379331 	-0.0362765408356565 	1.03776558977929e-23
4 	0.639752660582032 	-3.12250225675825e-17 	0.152260002275477 	-0.0382636541537029 	3.70783135652176e-21
4 	0.671010933370886 	-2.77555756156289e-17 	0.184615307132498 	-0.0403019822739849 	-3.84382453500587e-21
4 	0.7034142882299 	-3.81639164714898e-17 	0.220173543966623 	-0.0423502623469143 	4.14504950247095e-21
4 	0.737004672868606 	-3.81639164714898e-17 	0.258680550914493 	-0.0443612442767864 	-9.73363008676032e-23
4 	0.771825571663976 	-4.5102810375397e-17 	0.299891053956741 	-0.0462859573077533 	-3.73484540947331e-23
4 	0.807922061953053 	-4.85722573273506e-17 	0.343534431518802 	-0.048076253404757 	-2.46551739503759e-22
4 	0.845340872387742 	-3.81639164714898e-17 	0.389253029353467 	-0.0496867441730443 	2.53137522329468e-22
4 	0.884130443427309 	-3.10081821330854e-17 	0.436563403720412 	-0.0510752860909424 	2.2367330732711e-19
4 	0.924340990046897 	-2.62376925741492e-17 	0.484839361704942 	-0.0522046212234402 	-8.59452267746828e-19
4 	0.966024566743241 	-2.99239799605999e-17 	0.533340124807469 	-0.0530485814635282 	-1.59002848770325e-18
4 	1.00923513492173 	-3.16587034365767e-17 	0.581266001418146 	-0.053584351056707 	6.58727941069733e-23
4 	1.05402863275205 	-3.38271077815477e-17 	0.627788875339414 	-0.0537966471885287 	-8.77376202457078e-21
4 	1.10046304758287 	-3.51281503885303e-17 	0.672102004029128 	-0.0536812810341785 	-2.96012398111852e-22
4 	1.14859849100923 	-3.72965547335014e-17 	0.713493042246953 	-0.0532495834294155 	7.14204360285914e-21
4 	1.19849727668994 	-3.98986399474666e-17 	0.751469371932378 	-0.0525340637702058 	7.28286900559336e-21
4 	1.25022400101563 	-3.90312782094782e-17 	0.785949418370244 	-0.0515843978232839 	1.01323121564258e-21
4 	1.30384562673185 	-3.81639164714898e-17 	0.817407912574094 	-0.0504057872599641 	-1.07491177188863e-20
4 	1.35943156962565 	-3.38271077815477e-17 	0.846353879294418 	-0.0490399740282535 	-1.11646621563934e-20
4 	1.41705378838762 	-3.20923843055709e-17 	0.872924340417254 	-0.0475284489012323 	-5.54874164508462e-22
4 	1.47678687776592 	-3.29597460435593e-17 	0.897238262226721 	-0.0459489873160291 	-2.72472298874582e-24
4 	1.53870816513277 	-3.12250225675825e-17 	0.919568921065242 	-0.0443350622415165 	7.58010044799834e-21
4 	1.60289781058851 	-2.94902990916057e-17 	0.940229946520483 	-0.0426910236717959 	-8.02990070835444e-21
4 	1.66943891073266 	-3.12250225675825e-17 	0.959491613105849 	-0.0410034054447159 	-4.48718418674993e-21
4 	1.73841760623657 	-3.12250225675825e-17 	0.977556506441779 	-0.0392522179528103 	-9.80686429512016e-21
4 	1.80992319335659 	-3.12250225675825e-17 	0.994552790632644 	-0.037419349914649 	1.9193862835402e-20
4 	1.88404823953248 	-3.12250225675825e-17 	1.010525387335 	-0.0354905930304947 	-1.40393894485867e-21
4 	1.96088870322037 	-2.94902990916057e-17 	1.02493177012497 	-0.0335358713528663 	-1.63704522207025e-21
4 	2.02025965173184 	-3.12250225675825e-17 	1.03535915620296 	-0.0319637761335311 	0
4 	2.06006301192217 	-2.77555756156289e-17 	1.04233295190606 	-0.0308119755940102 	0
4 	2.09845978584128 	-2.77555756156289e-17 	1.04819984497021 	-0.0297671919857154 	0
4 	2.13549967996945 	-3.46944695195361e-17 	1.05348451167161 	-0.0287558806710066 	0
4 	2.17123064424048 	-3.46944695195361e-17 	1.05822899258731 	-0.0277763278166017 	0
4 	2.20569893411515 	-3.12250225675825e-17 	1.06247086500541 	-0.0268282964527392 	0
4 	2.23894917046122 	-2.77555756156289e-17 	1.06624356662901 	-0.025911450523762 	0
4 	2.27102439731725 	-3.46944695195361e-17 	1.06957664793224 	-0.0250252389457146 	0
4 	2.30196613761521 	-4.16333634234434e-17 	1.07249599500424 	-0.0241689839458296 	0
4 	2.33181444693391 	-4.16333634234434e-17 	1.07502403124979 	-0.0233419150272501 	0
4 	2.3606079653529 	-4.16333634234434e-17 	1.07717990150799 	-0.0225431859891793 	0
4 	2.3883839674739 	-3.81639164714898e-17 	1.0789796404389 	-0.0217718917370639 	0
4 	2.41517841067461 	-3.12250225675825e-17 	1.08043632621616 	-0.0210270836805974 	0
4 	2.44102598165722 	-3.46944695195361e-17 	1.08156022078497 	-0.0203077827605873 	0
4 	2.46596014135207 	-4.16333634234434e-17 	1.08235889867525 	-0.019612990289164 	0
4 	2.49001316823443 	-4.5102810375397e-17 	1.08283736720342 	-0.0189416969069213 	0
4 	2.51321620011054 	-4.85722573273506e-17 	1.08299818165402 	-0.0182928898990689 	0
4 	2.535599274427 	-4.85722573273506e-17 	1.08284155957045 	-0.0176655590716372 	0
4 	2.55719136715571 	-4.85722573273506e-17 	1.08236549848626 	-0.0170587013495956 	0
4 	2.57802043030465 	-4.85722573273506e-17 	1.08156590116383 	-0.0164713242165646 	0
4 	2.59811342810315 	-4.85722573273506e-17 	1.08043671154077 	-0.0159024480772291 	0
4 	2.61749637190832 	-4.85722573273506e-17 	1.07897006299316 	-0.0153511075943421 	0
4 	2.63619435387806 	-4.85722573273506e-17 	1.0771564381376 	-0.0148163520370853 	0
4 	2.65423157945406 	-4.16333634234434e-17 	1.0749848362517 	-0.0142972446812512 	0
4 	2.67163139869691 	-3.46944695195361e-17 	1.07244294069485 	-0.0137928613285389 	0
4 	2.68841633651388 	-3.46944695195361e-17 	1.06951727486859 	-0.0133022880650229 	0
4 	2.7046081218185 	-3.46944695195361e-17 	1.06619333187792 	-0.0128246184573378 	0
4 	2.72022771565972 	-3.46944695195361e-17 	1.06245566089231 	-0.0123589504846336 	0
4 	2.73529533835694 	-3.46944695195361e-17 	1.05828789300784 	-0.0119043836148966 	0
4 	2.74983049567625 	-3.46944695195361e-17 	1.05367269174391 	-0.0114600165408845 	0
4 	2.76385200408156 	-3.81639164714898e-17 	1.04859161834758 	-0.0110249461761092 	0
4 	2.77737801509343 	-3.81639164714898e-17 	1.04302490949842 	-0.0105982685579437 	0
4 	2.79042603878708 	-3.46944695195361e-17 	1.03695117395692 	-0.0101790822964644 	0
4 	2.80301296646003 	-3.81639164714898e-17 	1.03034702396453 	-0.00976649512578615 	0
4 	2.81515509249872 	-4.16333634234434e-17 	1.02318666544331 	-0.0093596339849751 	0
4 	2.82686813547237 	-4.16333634234434e-17 	1.01544147705225 	-0.00895765908713083 	0
4 	2.83816725848142 	-4.16333634234434e-17 	1.00707961091119 	-0.00855978261134741 	0
4 	2.84906708878691 	-4.5102810375397e-17 	0.998065646204558 	-0.00816528995572969 	0
4 	2.85958173674616 	-4.85722573273506e-17 	0.988360319315855 	-0.00777355083988819 	0
4 	2.86972481407933 	-4.85722573273506e-17 	0.97792033701445 	-0.00738401585656348 	0
4 	2.87950945149043 	-4.85722573273506e-17 	0.966698183922694 	-0.0069963925019924 	0
4 	2.88894831566566 	-4.85722573273506e-17 	0.9546337760003 	-0.00661073167324118 	0
4 	2.89805362567106 	-4.85722573273506e-17 	0.941612461191734 	-0.00622527735123144 	0
4 	2.90683716877067 	-4.85722573273506e-17 	0.927454750949954 	-0.00583769817023602 	0
4 	2.91531031568569 	-5.20417042793042e-17 	0.911991608400074 	-0.00544609415075939 	0
4 	2.92348403531448 	-5.55111512312578e-17 	0.895111529815125 	-0.00505102965982353 	0
4 	2.93136890893229 	-5.89805981832114e-17 	0.876740035441359 	-0.00465421555191021 	0
4 	2.93897514388925 	-5.89805981832114e-17 	0.856813554817494 	-0.00425788686104886 	0
4 	2.94631258682425 	-5.20417042793042e-17 	0.835263588304232 	-0.00386468625780375 	0
4 	2.95339073641193 	-4.85722573273506e-17 	0.812005434866702 	-0.0034774864157311 	0
4 	2.96021875565915 	-4.85722573273506e-17 	0.786927060037168 	-0.00309921424674451 	0
4 	2.96680548376697 	-4.85722573273506e-17 	0.759875594291383 	-0.00273272308331292 	0
4 	2.97315944757337 	-4.85722573273506e-17 	0.730640208964284 	-0.00238071230672222 	0
4 	2.97928887259171 	-4.85722573273506e-17 	0.698930031192959 	-0.00204567792151731 	0
4 	2.98520169365902 	-4.85722573273506e-17 	0.664345305562562 	-0.00172989267587384 	0
4 	2.99090556520806 	-5.55111512312578e-17 	0.626338333705251 	-0.00143540700565655 	-2.15578872767525e-15
4 	2.99640787117633 	-6.24500451351651e-17 	0.584165892829471 	-0.00116402956419668 	-6.3833924488159e-15
4 	3.00171573456492 	-6.24500451351651e-17 	0.536860580469888 	-0.000917617292780489 	7.85275410606904e-15
4 	3.00683602665962 	-6.24500451351651e-17 	0.483137630300008 	-0.000698047539278285 	2.44391683183397e-15
4 	3.01177537592612 	-6.24500451351651e-17 	0.421249626870458 	-0.000505285381645335 	0
4 	3.01654017659085 	-6.24500451351651e-17 	0.35004317034633 	-0.000339766691793973 	0
4 	3.02113659691864 	-6.24500451351651e-17 	0.271349784797133 	-0.000204391653651097 	0
4 	3.02557058719784 	-6.59194920871187e-17 	0.190167260554522 	-0.000103444911458283 	0
4 	3.02984788744324 	-6.93889390390723e-17 	0.11119912533374 	-3.84698152509479e-05 	0
