/*--------------------------------*- C++ -*----------------------------------*\
  =========                 |
  \\      /  F ield         | OpenFOAM: The Open Source CFD Toolbox
   \\    /   O peration     | Website:  https://openfoam.org
    \\  /    A nd           | Version:  7
     \\/     M anipulation  |
\*---------------------------------------------------------------------------*/
FoamFile
{
    version     2.0;
    format      ascii;
    class       volScalarField;
    location    "0";
    object      Cy;
}
// * * * * * * * * * * * * * * * * * * * * * * * * * * * * * * * * * * * * * //

dimensions      [0 1 0 0 0 0 0];

internalField   nonuniform List<scalar> 
15600
(
1.00195548402226
1.00097048511695
0.994974480673114
0.979070260531427
0.950972127584057
0.912370571264765
0.867146412944739
0.818141636643536
0.767094069680985
0.715209749353515
0.663468185710187
0.612402046890405
0.562047320324197
0.512285932453951
0.462987211321425
0.414010077726055
0.365280250291514
0.317009646546053
0.269680035766205
0.22388095556973
0.18032828766564
0.139915877377529
0.103540860326049
0.0719170595165675
0.0456849515621789
0.0254845213240992
0.0119002195667562
0.00537028199124523
0.00391049005465935
0.00391096804452692
0.00391096804452681
0.00391096804452675
0.00391096804452689
0.00391096804452681
0.00391096804452679
0.00391096804452676
0.00391096804452681
0.00391096804452679
0.00391096804452684
0.00391096804452703
0.0039109680445269
0.00391096804452687
0.00391096804452698
0.00391096804452689
0.00391096804452684
0.00391096804452681
0.00391096804452684
0.00391096804452681
0.00391096804452679
0.00391096804452678
0.00391096804452676
0.00391096804452692
0.00391096804452678
0.00391096804452684
0.00391096804452703
0.00391096804452695
0.00391096804452678
0.00391096804452682
0.00391096804452686
0.00391096804452673
0.00391096804452678
0.00391096804452675
0.00391096804452673
0.00391096804452678
0.00391096804452706
0.0039109680445269
0.00391096804452686
0.00391096804452695
0.00391096804452689
0.00391096804452679
0.00391096804452672
0.00391096804452695
0.00391096804452679
0.00391096804452678
0.00391096804452681
0.00391096804452679
0.00391096804452689
0.00391096804452698
0.00391096804452694
0.00391096804452682
0.00391096804452683
0.00391096804452692
0.00391096804452673
0.00391096804452673
0.00391096804452687
0.00391096804452689
0.0039109680445268
0.00391096804452679
0.00391096804452691
0.00391096804452684
0.00391096804452684
0.0039104900546594
0.0053702819912452
0.0119002195667559
0.0254845213240978
0.0456849515621776
0.0719170595165651
0.103540860326049
0.139915877377529
0.180328287665635
0.223880955569727
0.269680035766199
0.317009646546051
0.365280250291513
0.414010077726059
0.462987211321427
0.512285932453946
0.562047320324195
0.6124020468904
0.663468185710186
0.715209749353517
0.767094069680987
0.818141636643534
0.867146412944739
0.912370571264761
0.950972127584056
0.979070260531428
0.994974480673114
1.00097048511695
1.00195548402226
1.00593824571553
1.00495717750839
0.998985099803836
0.983144348394093
0.955158370802623
0.91671091851924
0.871667293882233
0.822858117491676
0.772014275256775
0.720336993102163
0.668801879878578
0.6179394974796
0.567785694813085
0.518222868041786
0.469120865667619
0.420339170659498
0.371803795840093
0.323725808765121
0.276585056412849
0.230968725067159
0.187589841059219
0.147338684564456
0.111108813553723
0.0796112028343793
0.0534837724039662
0.033363952198437
0.0198338598276188
0.0133299814254529
0.0118760153488304
0.0118764914310673
0.0118764914310673
0.0118764914310673
0.0118764914310672
0.0118764914310673
0.0118764914310673
0.0118764914310672
0.0118764914310672
0.0118764914310675
0.0118764914310675
0.0118764914310673
0.0118764914310674
0.0118764914310674
0.0118764914310673
0.0118764914310674
0.0118764914310673
0.0118764914310674
0.0118764914310673
0.0118764914310673
0.0118764914310672
0.0118764914310672
0.0118764914310673
0.0118764914310674
0.0118764914310675
0.0118764914310674
0.0118764914310673
0.0118764914310673
0.0118764914310673
0.0118764914310672
0.0118764914310673
0.0118764914310673
0.0118764914310671
0.0118764914310673
0.0118764914310673
0.0118764914310673
0.0118764914310673
0.0118764914310674
0.0118764914310674
0.0118764914310675
0.0118764914310675
0.0118764914310673
0.0118764914310673
0.0118764914310672
0.0118764914310673
0.0118764914310673
0.0118764914310672
0.0118764914310673
0.0118764914310674
0.0118764914310673
0.0118764914310674
0.0118764914310673
0.0118764914310674
0.0118764914310674
0.0118764914310674
0.0118764914310673
0.0118764914310672
0.0118764914310673
0.0118764914310673
0.0118764914310673
0.0118764914310673
0.0118764914310674
0.0118764914310674
0.0118760153488303
0.0133299814254529
0.0198338598276184
0.0333639521984367
0.0534837724039642
0.0796112028343777
0.111108813553722
0.147338684564452
0.187589841059218
0.230968725067149
0.27658505641285
0.323725808765123
0.371803795840088
0.420339170659497
0.469120865667615
0.518222868041788
0.567785694813081
0.617939497479601
0.66880187987858
0.720336993102164
0.772014275256771
0.822858117491671
0.871667293882236
0.916710918519239
0.955158370802623
0.983144348394092
0.998985099803836
1.00495717750839
1.00593824571553
1.01006690740058
1.00908991388759
1.00314263947328
0.98736768197374
0.959497968384157
0.921210265171936
0.87635378731647
0.827747375959727
0.777114721414057
0.725652061975002
0.674330962303682
0.623679800734414
0.573734282551424
0.524377290863511
0.475479213711727
0.426900116837787
0.378566318051706
0.330688003808881
0.283743028359124
0.238316140501918
0.195117406575702
0.155033410996243
0.118954003034931
0.0875872049849502
0.0615682865929004
0.0415320292937384
0.0280581320934671
0.0215812674818529
0.0201333406964431
0.0201338148011609
0.0201338148011611
0.0201338148011611
0.020133814801161
0.020133814801161
0.020133814801161
0.020133814801161
0.0201338148011611
0.0201338148011612
0.0201338148011611
0.0201338148011611
0.0201338148011609
0.020133814801161
0.020133814801161
0.0201338148011609
0.0201338148011609
0.0201338148011611
0.020133814801161
0.020133814801161
0.020133814801161
0.020133814801161
0.020133814801161
0.020133814801161
0.0201338148011612
0.020133814801161
0.020133814801161
0.0201338148011611
0.0201338148011609
0.020133814801161
0.020133814801161
0.0201338148011609
0.020133814801161
0.020133814801161
0.0201338148011609
0.020133814801161
0.0201338148011609
0.020133814801161
0.0201338148011612
0.0201338148011611
0.0201338148011611
0.020133814801161
0.0201338148011609
0.020133814801161
0.0201338148011609
0.020133814801161
0.020133814801161
0.0201338148011609
0.020133814801161
0.020133814801161
0.0201338148011609
0.020133814801161
0.0201338148011612
0.0201338148011611
0.0201338148011612
0.020133814801161
0.020133814801161
0.020133814801161
0.0201338148011609
0.020133814801161
0.020133814801161
0.0201338148011609
0.020133814801161
0.0201333406964431
0.0215812674818529
0.0280581320934669
0.0415320292937372
0.0615682865928998
0.0875872049849487
0.118954003034927
0.15503341099624
0.195117406575699
0.238316140501918
0.283743028359122
0.330688003808875
0.378566318051709
0.426900116837782
0.475479213711734
0.524377290863505
0.573734282551426
0.623679800734411
0.674330962303677
0.725652061975004
0.777114721414059
0.827747375959726
0.87635378731647
0.921210265171933
0.959497968384157
0.987367681973739
1.00314263947328
1.00908991388759
1.01006690740058
1.01434681380384
1.01337404425619
1.0074524817971
0.991745728574128
0.963996538149154
0.925874435819462
0.881211960073955
0.83281574133413
0.782402010824396
0.731161836496742
0.680062590587675
0.629630387715563
0.579900784250709
0.530757168105933
0.482070486640244
0.433701409726906
0.385576571347621
0.337905244590038
0.291163217964557
0.245932713478663
0.202920729029775
0.163010017877109
0.127086584742856
0.0958553912700719
0.0699489598904577
0.0499993265357189
0.0365836830301941
0.0301348217962638
0.0286931555529161
0.0286936276076656
0.0286936276076656
0.0286936276076657
0.0286936276076656
0.0286936276076656
0.0286936276076656
0.0286936276076656
0.0286936276076656
0.0286936276076656
0.0286936276076656
0.0286936276076656
0.0286936276076656
0.0286936276076654
0.0286936276076656
0.0286936276076657
0.0286936276076654
0.0286936276076655
0.0286936276076657
0.0286936276076655
0.0286936276076657
0.0286936276076656
0.0286936276076656
0.0286936276076655
0.0286936276076656
0.0286936276076657
0.0286936276076656
0.0286936276076655
0.0286936276076657
0.0286936276076656
0.0286936276076655
0.0286936276076656
0.0286936276076655
0.0286936276076656
0.0286936276076656
0.0286936276076656
0.0286936276076657
0.0286936276076655
0.0286936276076656
0.0286936276076657
0.0286936276076655
0.0286936276076656
0.0286936276076656
0.0286936276076655
0.0286936276076657
0.0286936276076656
0.0286936276076655
0.0286936276076656
0.0286936276076656
0.0286936276076654
0.0286936276076656
0.0286936276076656
0.0286936276076655
0.0286936276076657
0.0286936276076656
0.0286936276076656
0.0286936276076656
0.0286936276076656
0.0286936276076656
0.0286936276076656
0.0286936276076656
0.0286936276076657
0.0286936276076655
0.0286931555529161
0.0301348217962638
0.0365836830301938
0.0499993265357183
0.0699489598904566
0.0958553912700699
0.127086584742856
0.163010017877105
0.202920729029775
0.245932713478658
0.291163217964554
0.337905244590036
0.38557657134762
0.433701409726914
0.482070486640233
0.530757168105936
0.579900784250704
0.629630387715564
0.680062590587676
0.731161836496737
0.782402010824393
0.832815741334135
0.881211960073955
0.925874435819462
0.963996538149149
0.991745728574128
1.0074524817971
1.01337404425619
1.01434681380384
1.01878350544337
1.01781511460077
1.01192020605255
0.996284155782084
0.968659903715404
0.930709468429237
0.886248101223661
0.838069774757126
0.787882988029694
0.736873449241664
0.686004184533698
0.635798961703399
0.586293182720939
0.537370758816705
0.488903217171998
0.440751853933568
0.392843630849644
0.345386874191432
0.298855231043473
0.253828304040956
0.211009910218084
0.17127883131979
0.135517086693529
0.104426465236626
0.078636641447907
0.0587768052016373
0.0454215493195422
0.0390017173013674
0.0375665409570624
0.0375670108867395
0.0375670108867395
0.0375670108867394
0.0375670108867394
0.0375670108867393
0.0375670108867394
0.0375670108867395
0.0375670108867394
0.0375670108867394
0.0375670108867395
0.0375670108867393
0.0375670108867394
0.0375670108867395
0.0375670108867395
0.0375670108867394
0.0375670108867395
0.0375670108867393
0.0375670108867394
0.0375670108867395
0.0375670108867394
0.0375670108867394
0.0375670108867395
0.0375670108867395
0.0375670108867394
0.0375670108867394
0.0375670108867393
0.0375670108867394
0.0375670108867394
0.0375670108867395
0.0375670108867395
0.0375670108867393
0.0375670108867392
0.0375670108867395
0.0375670108867394
0.0375670108867394
0.0375670108867394
0.0375670108867395
0.0375670108867393
0.0375670108867393
0.0375670108867395
0.0375670108867394
0.0375670108867393
0.0375670108867394
0.0375670108867393
0.0375670108867393
0.0375670108867394
0.0375670108867394
0.0375670108867394
0.0375670108867394
0.0375670108867394
0.0375670108867393
0.0375670108867393
0.0375670108867393
0.0375670108867395
0.0375670108867395
0.0375670108867394
0.0375670108867394
0.0375670108867395
0.0375670108867393
0.0375670108867394
0.0375670108867394
0.0375670108867396
0.0375665409570625
0.0390017173013674
0.0454215493195419
0.0587768052016361
0.0786366414479053
0.104426465236625
0.135517086693526
0.17127883131979
0.211009910218082
0.253828304040953
0.298855231043471
0.34538687419143
0.392843630849644
0.440751853933563
0.488903217172004
0.537370758816699
0.586293182720941
0.635798961703397
0.686004184533696
0.73687344924167
0.787882988029692
0.838069774757121
0.886248101223658
0.930709468429238
0.968659903715406
0.996284155782083
1.01192020605255
1.01781511460077
1.01878350544337
1.02338272580124
1.0224188740722
1.01655159590102
1.0009888388044
0.973494102036958
0.935721622155799
0.891468730218204
0.843516277720001
0.793564748302315
0.742794294066644
0.692163435750838
0.642193508169973
0.592919753204641
0.544226624596009
0.49598625060419
0.448060576603191
0.400376904128356
0.353142577961145
0.306829025300294
0.262013133435714
0.219395421996586
0.179850555713259
0.144256422574817
0.11331152253274
0.0876425778508706
0.067875828109936
0.0545831719463204
0.0481934325608491
0.0467649838757324
0.0467654516024812
0.046765451602481
0.046765451602481
0.046765451602481
0.0467654516024811
0.0467654516024809
0.046765451602481
0.046765451602481
0.046765451602481
0.046765451602481
0.046765451602481
0.046765451602481
0.046765451602481
0.0467654516024809
0.046765451602481
0.0467654516024811
0.046765451602481
0.0467654516024809
0.046765451602481
0.0467654516024811
0.0467654516024811
0.046765451602481
0.0467654516024811
0.0467654516024811
0.0467654516024809
0.046765451602481
0.046765451602481
0.0467654516024811
0.0467654516024809
0.0467654516024809
0.0467654516024808
0.0467654516024808
0.0467654516024809
0.046765451602481
0.046765451602481
0.046765451602481
0.0467654516024809
0.0467654516024811
0.046765451602481
0.046765451602481
0.046765451602481
0.046765451602481
0.0467654516024811
0.0467654516024808
0.0467654516024809
0.0467654516024809
0.046765451602481
0.046765451602481
0.0467654516024809
0.0467654516024809
0.0467654516024809
0.0467654516024808
0.0467654516024809
0.046765451602481
0.046765451602481
0.046765451602481
0.046765451602481
0.0467654516024809
0.0467654516024811
0.0467654516024811
0.0467654516024811
0.0467654516024812
0.0467649838757322
0.0481934325608492
0.0545831719463201
0.0678758281099351
0.0876425778508697
0.113311522532738
0.144256422574816
0.179850555713256
0.219395421996584
0.262013133435714
0.306829025300288
0.353142577961144
0.400376904128358
0.448060576603187
0.495986250604191
0.544226624596007
0.592919753204639
0.642193508169975
0.69216343575084
0.74279429406664
0.793564748302315
0.843516277719999
0.891468730218205
0.935721622155799
0.973494102036956
1.0009888388044
1.01655159590102
1.0224188740722
1.02338272580124
1.02815042875852
1.02719128242809
1.02135264687513
1.0058658680736
0.978505391219263
0.940917385443432
0.896880605333249
0.849162300867449
0.799454646829702
0.748932035682392
0.698548317610968
0.648822305116404
0.59978907408945
0.551333640679899
0.50332875626301
0.455637039235498
0.40818614338172
0.361182396050737
0.31509492322038
0.270497797345198
0.228088119836979
0.188736287580101
0.153315905874713
0.122522065271519
0.0969784276783762
0.0773081743296823
0.0640804110089858
0.057721866628624
0.0563003920739264
0.0563008575170386
0.0563008575170386
0.0563008575170387
0.0563008575170388
0.0563008575170386
0.0563008575170386
0.0563008575170386
0.0563008575170386
0.0563008575170386
0.0563008575170385
0.0563008575170386
0.0563008575170387
0.0563008575170387
0.0563008575170386
0.0563008575170386
0.0563008575170386
0.0563008575170386
0.0563008575170386
0.0563008575170386
0.0563008575170385
0.0563008575170387
0.0563008575170387
0.0563008575170388
0.0563008575170386
0.0563008575170387
0.0563008575170386
0.0563008575170386
0.0563008575170385
0.0563008575170386
0.0563008575170386
0.0563008575170386
0.0563008575170386
0.0563008575170385
0.0563008575170387
0.0563008575170386
0.0563008575170386
0.0563008575170387
0.0563008575170387
0.0563008575170388
0.0563008575170387
0.0563008575170386
0.0563008575170387
0.0563008575170385
0.0563008575170387
0.0563008575170385
0.0563008575170387
0.0563008575170386
0.0563008575170384
0.0563008575170385
0.0563008575170387
0.0563008575170386
0.0563008575170386
0.0563008575170386
0.0563008575170385
0.0563008575170387
0.0563008575170387
0.0563008575170386
0.0563008575170387
0.0563008575170387
0.0563008575170387
0.0563008575170386
0.0563008575170387
0.0563003920739266
0.0577218666286239
0.0640804110089856
0.0773081743296815
0.096978427678375
0.122522065271517
0.153315905874713
0.188736287580098
0.228088119836973
0.270497797345198
0.315094923220377
0.361182396050738
0.408186143381713
0.455637039235501
0.503328756263006
0.551333640679904
0.599789074089445
0.648822305116401
0.698548317610967
0.748932035682396
0.799454646829699
0.849162300867452
0.896880605333241
0.940917385443431
0.978505391219262
1.0058658680736
1.02135264687513
1.02719128242809
1.02815042875852
1.03309278630272
1.03213851774774
1.02632957414011
1.01092155713217
0.983700258620595
0.946303484425637
0.902490732416027
0.855015153124444
0.80556030823546
0.755294619575305
0.705167095570291
0.655693933788938
0.606910038013102
0.558701007429661
0.510940239373767
0.463491049932901
0.416281458059803
0.369516736412815
0.323663625433092
0.279293279603772
0.237099256879727
0.197947529941579
0.162707264527158
0.132070016920975
0.106656276595225
0.0870860544288383
0.0739255610727637
0.0675993544523803
0.0661851095296286
0.0661855726054382
0.0661855726054383
0.0661855726054384
0.0661855726054384
0.0661855726054384
0.0661855726054385
0.0661855726054384
0.0661855726054383
0.0661855726054383
0.0661855726054384
0.0661855726054384
0.0661855726054385
0.0661855726054384
0.0661855726054383
0.0661855726054383
0.0661855726054384
0.0661855726054384
0.0661855726054384
0.0661855726054383
0.0661855726054383
0.0661855726054384
0.0661855726054383
0.0661855726054382
0.0661855726054384
0.0661855726054383
0.0661855726054384
0.0661855726054383
0.0661855726054383
0.0661855726054384
0.0661855726054384
0.0661855726054384
0.0661855726054384
0.0661855726054384
0.0661855726054385
0.0661855726054383
0.0661855726054382
0.0661855726054384
0.0661855726054384
0.0661855726054384
0.0661855726054383
0.0661855726054383
0.0661855726054384
0.0661855726054383
0.0661855726054383
0.0661855726054384
0.0661855726054384
0.0661855726054384
0.0661855726054381
0.0661855726054383
0.0661855726054384
0.0661855726054384
0.0661855726054384
0.0661855726054383
0.0661855726054383
0.0661855726054384
0.0661855726054384
0.0661855726054383
0.0661855726054384
0.0661855726054384
0.0661855726054384
0.0661855726054383
0.0661855726054384
0.0661851095296287
0.0675993544523803
0.0739255610727635
0.0870860544288378
0.106656276595223
0.132070016920973
0.162707264527155
0.197947529941575
0.237099256879727
0.279293279603765
0.323663625433094
0.369516736412807
0.416281458059807
0.463491049932897
0.510940239373768
0.558701007429655
0.606910038013106
0.655693933788935
0.705167095570294
0.755294619575302
0.805560308235461
0.85501515312444
0.90249073241603
0.946303484425636
0.983700258620595
1.01092155713217
1.02632957414011
1.03213851774774
1.03309278630272
1.03821619651754
1.03726698442989
1.03148882053947
1.0161624508058
0.989085429250269
0.951886891632269
0.908306373954362
0.861082411157427
0.811889636449204
0.761890282292743
0.71202833786903
0.66281728978753
0.614291863375257
0.566338262242052
0.518830553365863
0.47163277609754
0.424673327952081
0.378156388274685
0.332546224564404
0.288410966417123
0.246440498501939
0.207496207208896
0.172442656094387
0.141967737739394
0.116688652997234
0.09722212628111
0.0841313670851786
0.0778386828413837
0.0764319324133085
0.0764323930350844
0.0764323930350842
0.0764323930350843
0.0764323930350842
0.0764323930350842
0.0764323930350844
0.0764323930350842
0.0764323930350842
0.0764323930350842
0.0764323930350844
0.0764323930350843
0.0764323930350843
0.0764323930350843
0.0764323930350842
0.0764323930350843
0.0764323930350842
0.0764323930350844
0.0764323930350842
0.0764323930350842
0.0764323930350842
0.0764323930350842
0.0764323930350843
0.0764323930350841
0.0764323930350843
0.0764323930350843
0.0764323930350843
0.0764323930350842
0.0764323930350843
0.0764323930350842
0.0764323930350843
0.0764323930350841
0.0764323930350842
0.0764323930350842
0.0764323930350842
0.0764323930350843
0.0764323930350842
0.0764323930350843
0.0764323930350842
0.0764323930350842
0.0764323930350841
0.0764323930350842
0.0764323930350844
0.0764323930350842
0.0764323930350843
0.0764323930350842
0.0764323930350844
0.0764323930350843
0.0764323930350844
0.0764323930350842
0.0764323930350842
0.0764323930350843
0.0764323930350842
0.0764323930350843
0.0764323930350842
0.0764323930350842
0.0764323930350841
0.0764323930350842
0.0764323930350843
0.0764323930350841
0.0764323930350843
0.0764323930350842
0.0764323930350842
0.0764319324133086
0.0778386828413836
0.0841313670851784
0.0972221262811093
0.116688652997232
0.141967737739393
0.172442656094384
0.207496207208897
0.246440498501932
0.288410966417122
0.332546224564401
0.378156388274682
0.424673327952077
0.471632776097542
0.518830553365861
0.566338262242052
0.614291863375255
0.662817289787532
0.712028337869028
0.761890282292744
0.811889636449202
0.861082411157427
0.908306373954363
0.951886891632267
0.98908542925027
1.0161624508058
1.03148882053947
1.03726698442989
1.03821619651754
1.04352729186531
1.04258332148319
1.0368370649354
1.02159533367585
0.994667874474498
0.957674835015645
0.914335058477878
0.867371929182068
0.81845082493792
0.768727562105092
0.719140926622999
0.670201594581385
0.621944106271003
0.57425529189585
0.527009912628491
0.480072757593583
0.433372616753985
0.387112536105686
0.341754219596949
0.297862661102428
0.256123937418844
0.217394680620001
0.182534683505465
0.152228040776151
0.127088544229602
0.107729511451825
0.0947110408745976
0.0884531070192064
0.0870541256527825
0.0870545837306148
0.0870545837306149
0.0870545837306148
0.0870545837306149
0.0870545837306149
0.0870545837306147
0.0870545837306148
0.0870545837306146
0.0870545837306149
0.0870545837306147
0.087054583730615
0.0870545837306149
0.0870545837306148
0.0870545837306149
0.0870545837306147
0.0870545837306148
0.0870545837306148
0.087054583730615
0.087054583730615
0.0870545837306146
0.0870545837306149
0.0870545837306148
0.0870545837306149
0.0870545837306148
0.0870545837306148
0.0870545837306148
0.0870545837306149
0.0870545837306148
0.0870545837306149
0.0870545837306146
0.0870545837306149
0.0870545837306147
0.0870545837306148
0.0870545837306148
0.0870545837306148
0.087054583730615
0.0870545837306148
0.0870545837306147
0.0870545837306148
0.0870545837306149
0.0870545837306149
0.0870545837306147
0.0870545837306148
0.0870545837306148
0.0870545837306148
0.0870545837306147
0.0870545837306149
0.0870545837306148
0.0870545837306149
0.0870545837306147
0.0870545837306148
0.0870545837306148
0.0870545837306147
0.0870545837306148
0.0870545837306147
0.0870545837306149
0.0870545837306149
0.0870545837306147
0.0870545837306149
0.0870545837306148
0.0870545837306149
0.0870545837306148
0.0870541256527824
0.0884531070192062
0.0947110408745975
0.107729511451824
0.127088544229601
0.152228040776149
0.182534683505464
0.217394680619996
0.256123937418844
0.297862661102425
0.341754219596947
0.387112536105684
0.433372616753983
0.480072757593583
0.527009912628492
0.574255291895848
0.621944106270999
0.670201594581385
0.719140926622999
0.768727562105091
0.818450824937923
0.867371929182067
0.914335058477874
0.957674835015647
0.994667874474498
1.02159533367585
1.0368370649354
1.04258332148319
1.04352729186531
1.04903294777278
1.04809441112062
1.04238123085478
1.02722723886236
1.00045482104118
0.963674807307293
0.920584590303582
0.873891849130287
0.825252367312134
0.77581531005836
0.726514069321525
0.677856407446316
0.629876672861519
0.582462345350692
0.535488905733672
0.488821920391538
0.442390586130647
0.396396774096081
0.351299530756181
0.307660599368436
0.266162109338578
0.227655764241848
0.192996411371351
0.162864208458667
0.137869413399374
0.118621812184057
0.105678278253142
0.0994563677828087
0.0980654401048714
0.0980658955455564
0.0980658955455563
0.0980658955455562
0.0980658955455564
0.0980658955455561
0.0980658955455562
0.0980658955455562
0.0980658955455563
0.0980658955455561
0.0980658955455562
0.0980658955455563
0.0980658955455563
0.0980658955455562
0.0980658955455564
0.0980658955455563
0.0980658955455563
0.0980658955455562
0.0980658955455563
0.0980658955455562
0.0980658955455563
0.0980658955455562
0.098065895545556
0.0980658955455564
0.0980658955455565
0.0980658955455562
0.0980658955455563
0.0980658955455561
0.0980658955455562
0.0980658955455562
0.0980658955455561
0.0980658955455562
0.0980658955455564
0.0980658955455564
0.0980658955455563
0.0980658955455563
0.0980658955455562
0.0980658955455561
0.0980658955455563
0.0980658955455562
0.098065895545556
0.0980658955455562
0.0980658955455563
0.0980658955455562
0.0980658955455561
0.0980658955455564
0.0980658955455566
0.0980658955455561
0.0980658955455562
0.0980658955455562
0.0980658955455562
0.0980658955455561
0.0980658955455562
0.0980658955455562
0.0980658955455562
0.0980658955455562
0.0980658955455562
0.0980658955455561
0.0980658955455563
0.0980658955455562
0.0980658955455561
0.0980658955455564
0.0980658955455566
0.0980654401048712
0.0994563677828088
0.105678278253142
0.118621812184056
0.137869413399373
0.162864208458665
0.192996411371348
0.227655764241848
0.266162109338573
0.307660599368434
0.351299530756175
0.396396774096082
0.442390586130646
0.488821920391538
0.535488905733671
0.582462345350693
0.629876672861514
0.677856407446319
0.726514069321525
0.77581531005836
0.825252367312132
0.873891849130284
0.920584590303583
0.963674807307292
1.00045482104118
1.02722723886236
1.04238123085478
1.04809441112062
1.04903294777278
1.0547402915315
1.05380738766855
1.04812849545175
1.03306545712861
1.00645376043527
0.969894575717471
0.927063059638453
0.880650611189699
0.832303068320557
0.783162701431657
0.734157310746529
0.685791637839402
0.638099832197921
0.590970047014757
0.544278509143618
0.497891590712541
0.451738910295691
0.406021121166434
0.361194514941808
0.317817465155372
0.276568009190353
0.238292741558947
0.203841382897627
0.17389000978699
0.149045216803796
0.129913129006983
0.117047276746105
0.110862709290188
0.109480130356083
0.109480583063002
0.109480583063002
0.109480583063002
0.109480583063002
0.109480583063002
0.109480583063002
0.109480583063002
0.109480583063002
0.109480583063002
0.109480583063002
0.109480583063002
0.109480583063002
0.109480583063002
0.109480583063002
0.109480583063002
0.109480583063002
0.109480583063002
0.109480583063002
0.109480583063002
0.109480583063002
0.109480583063002
0.109480583063002
0.109480583063002
0.109480583063002
0.109480583063002
0.109480583063002
0.109480583063002
0.109480583063002
0.109480583063002
0.109480583063002
0.109480583063002
0.109480583063002
0.109480583063002
0.109480583063002
0.109480583063002
0.109480583063002
0.109480583063002
0.109480583063002
0.109480583063002
0.109480583063002
0.109480583063002
0.109480583063002
0.109480583063002
0.109480583063002
0.109480583063002
0.109480583063002
0.109480583063002
0.109480583063002
0.109480583063002
0.109480583063002
0.109480583063002
0.109480583063002
0.109480583063002
0.109480583063002
0.109480583063002
0.109480583063002
0.109480583063002
0.109480583063002
0.109480583063002
0.109480583063002
0.109480583063002
0.109480583063002
0.109480130356083
0.110862709290188
0.117047276746105
0.129913129006982
0.149045216803795
0.173890009786989
0.203841382897625
0.238292741558945
0.276568009190352
0.317817465155369
0.361194514941804
0.406021121166435
0.451738910295688
0.49789159071254
0.544278509143617
0.590970047014754
0.638099832197921
0.685791637839402
0.734157310746526
0.783162701431661
0.832303068320551
0.880650611189703
0.927063059638453
0.96989457571747
1.00645376043527
1.03306545712861
1.04812849545175
1.05380738766855
1.0547402915315
1.06065671152418
1.05972964680226
1.05408629879873
1.03911754631941
1.01267245857692
0.976342191989973
0.933778853052088
0.88765696472911
0.839612055247495
0.790779247614359
0.742080545328229
0.694017558226945
0.646624229514849
0.599789410498486
0.553390101420302
0.507293509690691
0.46142969112415
0.415998036526815
0.371451981724564
0.328346407055065
0.287355107947222
0.249319382669509
0.215083637416812
0.185319718158257
0.160630421997096
0.14161807898926
0.128832753970823
0.122686897499609
0.121312973175364
0.121313423048356
0.121313423048356
0.121313423048356
0.121313423048356
0.121313423048356
0.121313423048356
0.121313423048356
0.121313423048356
0.121313423048356
0.121313423048356
0.121313423048356
0.121313423048356
0.121313423048356
0.121313423048356
0.121313423048356
0.121313423048356
0.121313423048356
0.121313423048356
0.121313423048356
0.121313423048356
0.121313423048356
0.121313423048356
0.121313423048356
0.121313423048356
0.121313423048356
0.121313423048356
0.121313423048356
0.121313423048356
0.121313423048356
0.121313423048356
0.121313423048356
0.121313423048356
0.121313423048356
0.121313423048356
0.121313423048356
0.121313423048356
0.121313423048356
0.121313423048356
0.121313423048356
0.121313423048356
0.121313423048356
0.121313423048356
0.121313423048356
0.121313423048356
0.121313423048356
0.121313423048356
0.121313423048356
0.121313423048356
0.121313423048356
0.121313423048356
0.121313423048356
0.121313423048356
0.121313423048356
0.121313423048356
0.121313423048356
0.121313423048356
0.121313423048356
0.121313423048356
0.121313423048356
0.121313423048356
0.121313423048356
0.121313423048356
0.121312973175364
0.122686897499609
0.128832753970822
0.141618078989259
0.160630421997095
0.185319718158257
0.21508363741681
0.249319382669506
0.287355107947218
0.328346407055063
0.371451981724561
0.415998036526813
0.461429691124149
0.507293509690691
0.553390101420303
0.599789410498486
0.646624229514845
0.694017558226943
0.742080545328233
0.790779247614355
0.839612055247493
0.88765696472911
0.933778853052083
0.976342191989973
1.01267245857692
1.03911754631941
1.05408629879873
1.05972964680226
1.06065671152418
1.06678986678902
1.06586885511971
1.06026235351775
1.04539134114496
1.01911896587482
0.983026002825289
0.94074066433296
0.894919979624236
0.847188789727731
0.79867480841834
0.750294029953443
0.702544817382347
0.655460900011045
0.60893185287215
0.562835477955516
0.517039848572576
0.471475473819023
0.426340435805955
0.382085209928991
0.339261055332643
0.298537370065027
0.260749962111619
0.226737728562899
0.19716812984411
0.172640026519093
0.153751814661056
0.141049966688792
0.134944239284295
0.133579286642794
0.13357973357803
0.133579733578031
0.133579733578031
0.13357973357803
0.13357973357803
0.133579733578031