/*--------------------------------*- C++ -*----------------------------------*\
  =========                 |
  \\      /  F ield         | OpenFOAM: The Open Source CFD Toolbox
   \\    /   O peration     | Website:  https://openfoam.org
    \\  /    A nd           | Version:  7
     \\/     M anipulation  |
\*---------------------------------------------------------------------------*/
FoamFile
{
    version     2.0;
    format      ascii;
    class       volScalarField;
    location    "0";
    object      Cz;
}
// * * * * * * * * * * * * * * * * * * * * * * * * * * * * * * * * * * * * * //

dimensions      [0 1 0 0 0 0 0];

internalField   nonuniform List<scalar> 
15600
(
4.5081459984988e-18
2.34983910559452e-18
-2.35713811931165e-18
-2.49389676002149e-18
7.27521337652649e-18
2.55783813983031e-18
0
9.4182099318929e-20
7.06148997599406e-18
-9.18448085274757e-18
0
0
-9.46541944914006e-20
0
0
0
-6.64182539065293e-18
0
0
-2.88820645550185e-18
0
9.54668837255827e-20
0
4.83936162922145e-18
0
0
-2.05892490560455e-16
-2.13444049752487e-16
-2.44682170280384e-18
4.60451952510314e-18
-2.25407299924783e-18
-2.46909330876649e-16
-2.40045155557879e-16
0
0
0
0
0
2.28683999829446e-16
2.35102185344631e-16
9.63735266077505e-20
9.63735266077509e-20
-2.3504465258554e-18
0
-9.63735266077526e-20
0
-2.37796665353036e-16
-2.49284778509549e-16
0
0
-2.44682005246334e-18
-2.44682005246318e-18
-2.31034446355304e-16
-2.33118603231359e-16
-2.25407299924767e-18
0
0
-4.70089305171101e-18
4.70089305171149e-18
4.60451952510351e-18
0
-4.70089305171125e-18
4.6045195251035e-18
0
0
-2.35044652585553e-18
-4.70089305171112e-18
-6.95496605095848e-18
0
-2.25407299924785e-18
0
4.70089305171121e-18
2.30841699302088e-16
4.69109835393216e-16
2.28581268833002e-16
0
0
-2.3504465258554e-18
0
2.28587626302838e-16
2.30602156960761e-16
-2.35044652585543e-18
0
0
0
-4.70089305171143e-18
0
-2.35044652585561e-18
2.25407299924768e-18
-9.63735266077534e-20
0
0
0
-4.61212781425162e-18
9.67211483891016e-20
-2.44082440501655e-18
5.03336359399741e-18
-2.61262547849077e-18
0
-2.95191653941326e-18
5.67888520643317e-18
-6.1362394650752e-18
0
-9.77896393924869e-20
-9.78494518316592e-20
-5.38694550278559e-18
5.5117367177041e-18
0
-9.81936340774788e-20
4.25886807464724e-18
-9.84548299245892e-20
0
-4.86516439941206e-18
-9.89453552502388e-18
-9.82466089187315e-20
-2.29560017283774e-18
-4.80040658971315e-18
0
0
-2.35044652585721e-18
2.27135143091558e-18
-2.36712982879727e-18
0
2.00923733304417e-15
1.9690274401881e-15
4.94125611541821e-18
-9.91977368781877e-18
0
-9.26560036311822e-18
-4.33549931421553e-18
6.15800661756427e-18
-2.13664866134372e-18
5.74925773497706e-18
1.96244672142037e-18
-7.18171842343885e-18
0
-5.11710269776987e-18
-6.26316889809839e-18
-1.91473909733685e-19
2.78538692727704e-18
0
1.91838485179247e-19
-3.83963364502262e-19
5.05312959546267e-18
9.43072683084874e-18
-7.01125800799358e-18
2.04773713133397e-16
2.04627670973641e-16
-1.92758084558426e-19
-1.9275806549343e-19
0
2.30575364107357e-16
2.30131042567755e-16
0
-2.17496689204448e-18
0
0
-4.54269184958223e-18
-2.28207639149816e-16
-2.30637249904385e-16
0
0
2.17496689204441e-18
-4.54269184958258e-18
0
0
2.32750330999385e-16
2.30646634613915e-16
-1.92758065493431e-19
0
0
-1.92758065493422e-19
2.285931552808e-16
2.23805777223744e-16
-4.7354499150757e-18
0
0
0
-2.56048302303135e-18
0
0
-1.92758065493425e-19
4.54269184958232e-18
0
0
2.36772495753796e-18
-2.56048302303149e-18
0
0
1.92758065493421e-19
2.36772495753789e-18
0
-2.25839914192283e-16
-4.60689085652568e-16
-2.25951105073713e-16
2.3677249575379e-18
0
-4.73544991507566e-18
0
-2.2564715612679e-16
-2.30452734782097e-16
6.71765874162639e-18
4.73544991507557e-18
1.92758065493429e-19
0
2.1749668920445e-18
-4.73544991507586e-18
1.92758065493425e-19
1.92758065493434e-19
0
4.73544991507591e-18
0
-4.73007557190023e-18
0
-4.80383648313772e-18
2.26154859130282e-18
-7.39008285805493e-18
2.62017412085725e-18
2.53656607678242e-18
3.0467479020716e-18
0
0
4.55383898534632e-18
3.35046900167958e-18
-3.88408882635125e-19
-1.94268101403961e-19
9.24541332504295e-18
-3.89993546879675e-18
0
0
-4.72509480035349e-18
4.53752977196672e-18
4.8844486176232e-18
4.76926821458085e-18
1.94604343456433e-19
5.19949014973797e-18
1.93643758445745e-19
1.93160075777776e-19
0
2.36772495753569e-18
-2.19504149436054e-18
2.48351099784627e-18
-4.40255275913523e-18
-1.95293238479033e-15
-1.89080090543637e-15
2.67187399717475e-18
-1.90619033766631e-19
0
-2.3772504169941e-18
0
-8.29599912198341e-18
2.25749643227359e-18
-3.76333825860885e-18
0
6.93796542334677e-18
1.76925822432708e-18
-1.7129836449837e-18
0
-2.61620801330209e-18
0
-1.91700703979991e-19
1.9183843726809e-19
-2.14898966337174e-18
2.25221318779543e-18
2.18204727483461e-18
2.32368692054631e-18
0
2.28872313947837e-18
0
0
0
4.39007157008188e-18
-2.29141502099468e-18
0
0
4.58283004198967e-18
0
0
-2.09865654908762e-18
6.87424506298384e-18
0
-2.29141502099459e-18
1.92758471907167e-19
-2.29141502099469e-18
2.0986565490874e-18
-1.92758471907167e-19
0
0
1.92758471907168e-19
0
0
-1.92758471907174e-19
2.29141502099465e-18
0
0
0
1.92758471907173e-19
0
0
0
0
0
-1.9275847190717e-19
0
1.92758471907175e-19
0
-1.92758471907164e-19
-2.29141502099475e-18
0
2.29141502099459e-18
-4.5828300419894e-18
0
6.68148659107693e-18
0
0
-2.29141502099471e-18
0
0
-6.68148659107695e-18
0
0
-4.58283004198957e-18
2.29141502099465e-18
2.09865654908756e-18
0
0
1.92758471907176e-19
0
4.39007157008198e-18
0
1.92758471907167e-19
-2.09865803459728e-18
-2.09602300373188e-18
2.29510451842062e-18
1.93105659489015e-19
0
4.89118720411278e-18
0
0
0
1.9389029831706e-19
1.939887136107e-19
-1.65775417605202e-18
1.71581911989319e-18
0
1.44463416300246e-18
3.41554842087911e-18
-1.94432882784551e-19
-3.75141429783519e-18
4.15190289469246e-18
0
-4.56829580097789e-18
6.97512266563846e-18
9.58475643181799e-18
-2.48477715168196e-18
6.67933246857336e-18
-2.33706050546069e-18
2.29826039113228e-18
-2.29099023346902e-18
0
-9.63853667860801e-20
4.24178130458423e-18
-2.2235307971564e-18
-2.06785844029434e-18
-4.29469549922167e-18
0
-1.90619452431718e-19
0
-3.83402838949948e-18
-3.81253577500099e-19
-4.00513796370462e-18
-2.18992693763655e-18
-1.91007120012184e-19
1.91101908263843e-19
0
1.5214586444544e-18
-3.1256785165024e-18
-1.60271676371667e-18
-5.79784053267494e-18
-2.97367956394845e-18
0
-1.91838387609507e-19
0
1.92124171154899e-19
0
0
6.85549443432822e-18
-2.21521884016493e-18
0
-2.21780207661269e-18
4.24284525979112e-18
-8.48569051958229e-18
0
0
-4.24284525979106e-18
-1.92758893433803e-19
0
-4.05008636635726e-18
-2.21780207661271e-18
0
0
-2.21780207661255e-18
-4.24284525979106e-18
1.92758893433799e-19
1.92758893433809e-19
1.92758893433806e-19
0
1.92758893433808e-19
-2.21780207661256e-18
-2.21780207661244e-18
-4.24284525979107e-18
-2.8716631501602e-16
-2.85743462229032e-16
-2.02504318317877e-18
6.26788844296969e-18
1.92758893433808e-19
0
0
0
0
4.05008636635732e-18
0
2.41056097004649e-18
0
0
0
-4.43560415322487e-18
2.87359073909451e-16
2.86296171384046e-16
-4.43560415322488e-18
0
0
0
0
-8.67844941301638e-18
8.67844941301632e-18
-4.43560415322491e-18
4.24284525979135e-18
2.41056097004638e-18
0
-2.21780207661255e-18
0
0
2.21780207661269e-18
0
0
2.41056097004649e-18
0
0
-2.21780207661257e-18
-2.21780207661258e-18
0
-2.21533622199374e-18
2.22138874083876e-18
0
-1.91211077994519e-18
2.36627206617256e-18
4.90365286757768e-18
0
-2.47364365871479e-18
7.77156343868758e-18
2.90143422345126e-18
-1.41133333326632e-18
-1.46718489539075e-18
4.56437593335867e-18
4.93461514482332e-18
-1.9434068483857e-19
0
0
5.91622597196556e-18
-3.8958323594634e-19
0
4.35674614081714e-18
2.2159651706946e-18
4.80550498706791e-18
0
-6.39721951192239e-18
-2.22433849607449e-18
0
-2.2178020766128e-18
-2.05041730248789e-18
2.14623028579908e-18
-1.9598677049295e-18
0
0
-4.06720611389785e-18
1.90619885803952e-19
-1.90531779845646e-19
4.06240773105521e-18
1.75026848152567e-18
-1.64752067001066e-18
0
0
0
1.71459267186847e-18
0
0
0
-5.41298202922085e-18
-2.68980172583483e-18
-2.57745841638403e-18
-1.91838336139967e-19
-1.9198175054931e-19
-2.09637275137815e-18
-2.03137419387023e-18
-4.35347951219669e-18
-1.95731405796281e-18
2.1443124160524e-18
-2.14679221606578e-18
-2.1467908291486e-18
0
0
0
0
0
0
4.29358165829704e-18
0
-2.14679082914851e-18
-1.92759330643931e-19
4.10082232765314e-18
1.92759330643925e-19
-1.92759330643924e-19
0
0
0
1.95403149850447e-18
0
0
1.92759330643933e-19
0
2.77559479350055e-16
2.77655906215037e-16
0
0
0
0
0
0
0
-1.92759330643934e-19
-1.92759330643928e-19
1.9540314985047e-18
0
6.2476131568017e-18
2.14679082914851e-18
0
-2.77173960688753e-16
-2.76049104997767e-16
1.92759330643926e-19
0
2.14679082914862e-18
-8.39440398595034e-18
2.14679082914845e-18
1.95403149850472e-18
8.20164465530628e-18
0
1.92759330643925e-19
0
0
0
4.10082232765316e-18
0
-1.95403149850467e-18
2.14679082914852e-18
0
0
-1.9540314985046e-18
0
0
1.92759330643924e-19
0
-4.09604126125238e-18
-4.10759237962078e-18
0
1.83812898439752e-18
0
4.55066039686811e-18
-7.21681534838049e-18
-4.77151580850235e-18
-2.30433392161819e-18
-5.2215084208842e-18
0
7.46138876733284e-18
0
-3.04682243422578e-18
-5.15056621145758e-18
1.46554772029059e-18
0
-5.32019056545622e-18
-5.62789897898988e-18
8.31968655997908e-18
6.29867959268801e-18
2.33088745671582e-18
-1.94599305221356e-19
-1.9420279367321e-19
4.18358538130786e-18
-6.07276454372664e-18
-2.14638875933309e-18
4.10082232765833e-18
0
-2.07773951407052e-18
0
1.92465829970778e-18
6.37487367900898e-18
1.90850331464418e-19
0
1.90532389128257e-19
4.10564970429773e-18
0
7.46879301055793e-18
1.87097729520553e-18
4.99163259837683e-18
-7.84226702153524e-18
-6.25720509290143e-18
0
2.91914021638662e-18
-1.91383265418753e-19
2.70895312221652e-18
9.63228194684628e-16
9.85069989577423e-16
0
2.29363351203865e-18
4.23724087614004e-18
0
0
0
0
-2.07829068257837e-18
-1.88552956727256e-18
0
0
2.07828935140284e-18
0
-3.96381891867522e-18
3.9638189186755e-18
-2.0782893514029e-18
0
-1.88552956727232e-18
-3.96381891867546e-18
0
0
1.92759784130337e-19
0
0
-3.77105913454512e-18
-4.15657870280556e-18
3.96381891867545e-18
2.07828935140277e-18
-1.92759784130331e-19
4.15657870280553e-18
1.92759784130331e-19
0
-1.92759784130336e-19
0
1.88552956727256e-18
-2.07828935140276e-18
-6.04210827007798e-18
1.92759784130331e-19
0
2.07828935140292e-18
-2.07828935140266e-18
-1.88552956727257e-18
-2.07828935140289e-18
1.9275978413033e-19
-3.96381891867516e-18
-1.92759784130322e-19
-1.92759784130332e-19
2.07828935140287e-18
0
1.88552956727255e-18
2.07828935140277e-18
4.15657870280598e-18
2.27104913553296e-18
0
-3.96381891867548e-18
0
-2.0782893514029e-18
-4.15657870280557e-18
-1.92759784130332e-19
0
0
-2.07828935140265e-18
0
0
6.04210827007837e-18
1.92759784130332e-19
-1.92759784130329e-19
-3.77105913454503e-18
0
6.04210827007834e-18
-1.92759764708228e-19
2.07602952682513e-18
-3.77743282057614e-18
-1.91472724514968e-18
0
-4.23849771423163e-18
2.2951668178058e-18
-2.19587264559765e-18
-2.68852977451151e-18
-2.40918625560668e-18
2.32349415400394e-18
-2.62424892586746e-18
2.53369180244048e-18
-5.85132588503557e-18
-1.13336824826092e-15
-1.13681323322905e-15
8.38989486134554e-18
8.78947442797826e-18
5.70476383466928e-18
5.80647815858944e-18
0
0
4.11803119034101e-18
0
-1.94202168001375e-19
-1.92465829970762e-18
-2.08423999128955e-18
-1.92838901843496e-19
2.07828935140156e-18
0
-1.92680823915206e-19
-1.92354116536653e-19
1.91857982007482e-19
-3.85287748611956e-18
0
3.96935848919992e-18
-5.85060053571966e-18
-2.07705282395627e-18
1.9062840633295e-19
3.41540256181552e-18
3.23886175008801e-18
-6.55223144177868e-18
0
0
-5.83656886317682e-18
-5.45132050643422e-18
-5.44330458970368e-18
7.47397950318107e-18
-9.72396405334203e-16
-9.10836864769514e-16
0
0
1.92124536185601e-19
2.08343005488296e-18
0
-1.92556090280312e-19
1.81722736954443e-18
0
0
-1.92760254508897e-19
0
0
0
0
1.92760254508898e-19
3.8316576759232e-18
0
0
0
-1.92760254508897e-19
0
0
0
1.92760254508903e-19
0
0
-1.92760254508902e-19
0
2.01220896521604e-18
0
5.84386664113899e-18
-1.92760254508907e-19
1.8194487107072e-18
0
1.92760254508899e-19
-2.01220896521597e-18
-1.92760254508898e-19
1.81944871070713e-18
0
0
1.92760254508905e-19
0
2.01220896521607e-18
0
0
3.83165767592296e-18
-1.92760254508898e-19
0
-1.92760254508898e-19
-3.83165767592313e-18
-3.83165767592302e-18
3.83165767592347e-18
1.92760254508904e-19
-5.84386664113918e-18
-2.01220896521607e-18
-5.65110638662981e-18
-2.01220896521604e-18
-4.02441793043206e-18
0
3.83165767592316e-18
-5.84386664113937e-18
-3.83165767592297e-18
3.83165767592313e-18
7.66331535184631e-18
-1.92760254508895e-19
3.83165767592319e-18
3.6388974214141e-18
0
-1.92760254508898e-19
2.01220896521608e-18
0
0
0
-1.93107692114066e-19
2.08440882494084e-18
-2.33811536627678e-18
1.9351515625303e-19
-4.23617754477169e-18
0
0
4.85500407613204e-18
0
3.88276402529505e-19
-2.92123331334262e-18
1.04794078833257e-15
1.13066670038238e-15
0
-8.29168404808433e-18
-1.70770128090872e-18
-3.60544328617562e-18
1.88650893910335e-18
6.04548002742516e-18
-1.98467924460029e-18
1.94595640686146e-19
-5.97351774886778e-18
5.76413752343286e-18
2.01788201766416e-18
5.84264464817853e-18
-2.01220896521629e-18
0
0
2.14541521638645e-18
5.75791729374726e-18
-2.04921843919165e-18
-5.53329861122088e-18
0
-5.82891465238841e-18
-5.83502609254255e-18
7.13974812493475e-18
0
0
0
0
0
0
-5.26258635338403e-18
7.70160110798587e-18
2.53217825172687e-18
4.86404338974675e-18
-6.61260346948034e-18
0
-1.95586856208484e-18
-1.9212466695473e-19
-2.01701869801906e-18
0
-1.92556528983994e-19
-1.9270238577608e-19
0
0
1.66150969169372e-16
1.72226856893185e-16
0
0
-1.94846412667287e-18
-3.70416751092619e-18
1.94846412667292e-18
3.51140676850662e-18
0
0
-1.92760742419582e-19
-1.75570338425334e-18
5.84539238001862e-18
1.94846412667288e-18
5.65263163759916e-18
3.7041675109262e-18
1.7745623244457e-16
1.74085300964391e-16
-3.70416751092624e-18
0
-1.9276074241958e-19
3.70416751092605e-18
-3.89692825334582e-18
0
-1.94846412667288e-18
1.75570338425329e-18
3.70416751092617e-18
-1.94846412667288e-18
-1.75570338425332e-18
0
1.92760742419578e-19
3.89692825334582e-18
-1.75570338425333e-18
0
0
1.94846412667292e-18
-5.65263163759921e-18
1.94846412667296e-18
-1.9276074241958e-19
0
5.65263163759909e-18
0
5.45987089517946e-18
3.7041675109262e-18
-1.92760742419583e-19
-1.94846412667287e-18
0
1.92760742419583e-19
5.84539238001876e-18
1.9276074241958e-19
-1.94846412667289e-18
-1.9276074241958e-19
5.65263163759911e-18
0
1.92760742419583e-19
0
1.94846412667292e-18
3.51140676850667e-18
0
0
3.70416751092615e-18
-1.94846531367002e-18
-1.92819911533087e-19
0
-3.75873975472586e-18
0
7.91741447411155e-18
-2.1493837965872e-18
0
1.93774737723007e-19
2.04655685987448e-18
2.34070497834035e-18
-1.94066648451652e-19
7.9951898740756e-18
0
-5.84868726930553e-18
3.03850979682484e-18
1.68136053715612e-18
2.92732334872271e-18
3.68101014143661e-18
0
1.81797898874938e-18
-3.75892065368675e-18
-3.82594471742609e-18
2.10264349060781e-18
-1.85794473928458e-18
-1.98504555390828e-18
0
0
2.1412248690937e-18
0
0
1.89131026036408e-18
-5.37670462632493e-18
0
-3.67907271571321e-18
-1.14440561708999e-17
5.43367170232851e-18
1.90545264826165e-19
-5.21309177579433e-18
0
1.69538514393587e-18
0
0
0
0
0
1.91382995165999e-19
4.89689846392996e-18
2.35209619710522e-18
1.91700084966826e-19
-1.91838110802389e-19
2.07879947508315e-18
9.65837722879834e-18
0
0
2.08224469375888e-18
-7.15410471504599e-18
0
1.49750137966946e-16
-1.22694084248689e-17
-1.6309131777276e-16
-1.92761248527372e-19
0
0
0
7.35512801292485e-18
-7.16236676439798e-18
3.58118338219883e-18
-1.58799477046717e-16
-4.71956467938944e-18
1.53188879572123e-16
3.58118338219898e-18
0
0
0
-1.63689348998696e-16
-1.62998314325723e-16
0
-1.6942110668358e-18
1.69421106683569e-18
1.92761248527374e-19
0
0
0
-1.69421106683581e-18
1.88697231536308e-18
0
1.92761248527366e-19
-5.46815569756213e-18
0
-2.07973356389058e-18
0
1.88697231536308e-18
0
1.88697231536308e-18
0
0
0
0
0
3.77394463072634e-18
1.88697231536308e-18
1.88697231536321e-18
3.20601853730028e-16
3.1578946676076e-16
-1.88697231536307e-18
1.6942110668358e-18
-1.51251587785262e-16
-1.55075851887483e-16
3.58118338219901e-18
-3.58118338219881e-18
1.88697231536318e-18
1.92761248527368e-19
0
0
3.58118338219876e-18
0
0
-1.92761248527371e-19
0
5.27539789871241e-18
0
1.69713072563934e-18
1.93108825413085e-19
-3.52137320264093e-18
-3.43941895059252e-18
3.96715055800018e-18
-5.91201076997541e-18
0
0
4.51395215660643e-18
-1.94065140584927e-19
0
1.94192775232278e-19
2.63188420795293e-18
0
5.73316216022225e-18
-3.39802638793152e-18
-5.14788212748455e-18
0
3.50374931837207e-18
3.62244780155189e-18
-1.94798187678556e-19
5.71320078512823e-18
-5.76401448262638e-18
0
0
-5.27415212208066e-18
1.88697231536102e-18
0
5.09606500645321e-18
1.8317421784222e-18
3.52664714659085e-18
0
1.96429654959536e-18
-5.3312367788439e-18
5.23620766144273e-18
0
-5.22104865080196e-18
4.96747424964142e-18
1.64094587553016e-18
-8.67125502124263e-18
2.64291543950999e-18
0
0
0
0
4.35241389119952e-18
2.08341718990375e-18
0
-1.91838049244006e-19
0
1.94460505824339e-18
0
0
-6.93603100144926e-18
0
0
-1.51188291107009e-16
-1.45133134740099e-16
-1.63489215403356e-18
1.8276539275571e-18
1.92761773523358e-19
-1.9276177352336e-19
6.92509216318132e-18
3.26978430806731e-18
1.92761773523357e-19
1.92761773523362e-19
1.58306145043721e-16
-1.19239100572638e-19
-1.49632150146142e-16
-3.46254608159062e-18
1.82765392755692e-18
6.92509216318176e-18
0
0
3.46254608159061e-18
-1.63489215403364e-18
-6.92509216318139e-18
5.09743823562406e-18
3.46254608159067e-18
0
3.46254608159044e-18
-1.63489215403374e-18
3.4625460815906e-18
3.26978430806707e-18
0
0
0
5.29020000914736e-18
-1.82765392755702e-18
0
0
8.75274609073828e-18
0
-3.65530785511421e-18
-3.26978430806709e-18
0
-1.63489215403365e-18
0
0
0
0
-3.09301674377222e-16
-3.15471828721931e-16
0
0
1.5320870680811e-16
3.11208079497923e-16
1.57139350554271e-16
1.82765392755692e-18
3.26978430806748e-18
0
-1.61190405804746e-16
-1.62301558981471e-16
0
0
1.92761773523365e-19
0
-1.82765392755711e-18
0
-1.82576449838238e-18
0
5.17330091021452e-18
-7.18203997122071e-18
-5.45082285617818e-18
0
0
1.9377354617743e-19
0
-1.93980571367989e-19
0
0
2.63768201999784e-18
-2.92566163579034e-18
0
-1.94416702032364e-19
1.25552828112119e-18
4.58594461004014e-18
-6.64782153024374e-18
-5.06433108709902e-18
5.82081298215404e-18
-9.27498468085287e-18
0
-5.76699779844476e-18
-1.93645693468398e-19
-1.8325511497556e-18
0
0
-1.67405864637252e-18
3.53986062010171e-18
-5.13048289213432e-18
1.80051676894897e-18
-5.19121631473832e-18
-7.02961668329522e-18
0
1.2330850450743e-15
1.21315213561966e-15
-1.55452700638943e-18
6.08331447957326e-18
-1.90896645276002e-19
-2.66323941693477e-18
-1.03814664294897e-17
-2.44577544070654e-18
2.35557977981407e-18
2.27208903275982e-18
0
6.67782486054241e-18
-6.41028248723898e-18
3.83991900037218e-18
1.91837985443076e-19
-5.65181372663164e-18
0
-1.8315383228888e-18
6.79251399115786e-18
0
-3.53701944013934e-18
3.34810417017312e-18
0
-1.9276231812583e-19
0
0
0
-3.3481020281871e-18
0
4.92577188321804e-18
-1.92762318125828e-19
0
0
0
0
-1.57766985503057e-18
1.96319449128233e-18
-1.77043217315656e-18
0
1.92762318125823e-19
0
-6.88896637450037e-18
1.92762318125822e-19
-1.77043217315656e-18
0
1.7704321731564e-18
1.77043217315646e-18
-9.85154376643608e-18
1.77043217315658e-18
0
0
1.77043217315664e-18
1.92762318125823e-19
0
3.34810202818697e-18
0
-3.34810202818716e-18
0
-1.77043217315659e-18
1.77043217315654e-18
0
1.57766985503073e-18
1.92762318125824e-19
1.92762318125815e-19
1.92762318125824e-19
-1.92762318125826e-19
0
-1.77043217315649e-18
6.6962040563746e-18
0
0
-1.77043217315663e-18
-1.50771305198493e-16
-1.56829693233564e-16
3.54086434631291e-18
0
1.77043217315645e-18
1.52541737371649e-16
1.5660585114058e-16
0
0
-1.92762318125828e-19
0
-1.77043217315652e-18
3.54086643026233e-18
-5.11306050966866e-18
3.35382153692178e-18
1.93110044771896e-19
-6.94357601803973e-18
-7.15004009136623e-18
-1.94946545483344e-18
3.86062100881833e-18
4.22746483620411e-18
-2.39680834776207e-18
2.29227225553597e-18
-4.37284043962146e-18
-1.94131246405824e-19
0
4.89155088141338e-18
2.54759100609493e-18
5.71530694415939e-18
-3.99808993070686e-18
-1.66777797171777e-18
0
-1.62660353862738e-18
0
-3.42543288950751e-18
1.04527354523335e-17
1.86084623790739e-18
1.93645977148625e-19
0
0
-1.77043217315578e-18
-1.52247009320914e-18
-3.23679607708302e-18
-4.96418715545371e-18
1.74385654914521e-18
3.40594354126254e-18
0
0
-1.22876562866675e-15
-1.12572494932244e-15
6.18211461562865e-18
1.61035686330901e-18
0
-8.08280974720095e-18
5.29348127495318e-18
0
0
8.24061074453702e-16
8.37350771564939e-16
2.02313343477691e-18
-2.12887375210701e-18
7.78996554507045e-18
1.96034719765624e-18
0
-1.63133617926237e-18
1.77402931583896e-18
3.09167127093947e-18
-1.52515013772677e-18
0
1.71523401183603e-18
0
-1.71523297628903e-18
0
0
9.52034632540845e-18
0
0
-1.71523297628888e-18
1.71523297628897e-18
4.76017316270394e-18
0
0
1.92762883081348e-19
3.23770306949655e-18
-6.47540613899343e-18
4.76017316270397e-18
-7.1257846936679e-16
-7.17742858315021e-16
-1.92762883081347e-19
6.47540613899283e-18
1.52247009320753e-18
1.71523297628897e-18
3.23770306949656e-18
0
0
-7.09340766297295e-16
-7.14614477143943e-16
1.71523297628889e-18
-4.76017316270396e-18
0
6.47540613899282e-18
-3.23770306949657e-18
0
1.92762883081342e-19
0
4.76017316270342e-18
-4.76017316270405e-18
4.76017316270394e-18
1.71523297628889e-18
1.71523297628897e-18
7.14100939459998e-16
7.15144795368553e-16
9.52034632540788e-18
-1.9276288308134e-19
0
0
3.23770306949629e-18
3.23770306949629e-18
0
0
0
1.92762883081348e-19
0
1.71523297628898e-18
-1.71523297628887e-18
0
1.71523297628898e-18
0
0
-8.19063911528181e-18
1.92762883081351e-19
6.4754061389931e-18
-1.92762863576557e-19
-4.75488509548238e-18
1.9296842636564e-19
-1.73894632425359e-18
-6.71353994606083e-18
-3.26267235852504e-18
3.58144325940095e-18
1.96215633768974e-18
1.93772266964907e-19
1.93729556502601e-18
-1.93977853447822e-19
-4.21583846153872e-18
6.95938992030461e-18
4.9299279905274e-18
0
-5.29992291605105e-18
-1.94411315897751e-19
2.88827645818125e-18
0
-1.49787077966764e-18
0
1.62066722882809e-18
0
-1.45360633856058e-18
-8.61926849635067e-18
1.74564447232941e-18
1.93165226727853e-19
4.75901130244169e-18
-1.71523297629056e-18
-4.50405417307156e-18
1.66149984270191e-18
0
-4.49202069517696e-18
4.84162936586154e-18
0
0
-2.93264620996185e-18
0
-9.23122082168205e-18
-2.73588074386301e-18
2.7869328680469e-18
-5.13906818724412e-18
0
0
0
-8.33544335694368e-16
-7.63008906580303e-16
0
-1.91578037889841e-19
-7.52635134181028e-18
1.89766580194591e-18
-7.11261875492445e-18
0
-1.92268931910307e-19
0
1.4718272186438e-18
0
3.1312082549107e-18
-1.9276346916604e-19
-1.92763469166042e-19
7.7316339895767e-18
0
1.46922141024887e-18
1.92763469166047e-19
1.46922141024887e-18
0
0
-1.92763469166041e-19
0
3.13120628966389e-18
-1.9276346916604e-19
-1.9276346916604e-19
-1.9276346916604e-19
-1.9276346916604e-19
6.96780180510517e-16
6.88487724739845e-16
2.93844282049787e-18
-1.92763469166042e-19
-1.92763469166039e-19
1.92763469166042e-19
1.46922141024887e-18
-1.92763469166039e-19
-6.26241257932719e-18
6.89241309990107e-16
6.94788226795606e-16
1.46922141024888e-18
1.46922141024887e-18
1.6619848794149e-18
3.13120628966379e-18
0
1.92763469166043e-19
1.46922141024887e-18
-1.92763469166039e-19
-1.92763469166049e-19
-3.13120628966388e-18
1.9276346916604e-19
1.46922141024887e-18
1.92763469166041e-19
-6.86302867169607e-16
-6.91871038753256e-16
1.92763469166041e-19
-1.46922141024887e-18
1.66198487941491e-18
3.13120628966378e-18
0
0
3.13120628966376e-18
1.9276346916604e-19
1.92763469166042e-19
3.13120628966378e-18
6.45517604849399e-18
6.06964911016109e-18
0
0
0
0
7.92439745874285e-18
0
0
0
-6.06965298302542e-18
-1.66034053602691e-18
0
0
-1.71953308204646e-18
-1.93383585851483e-19
-1.93515671005276e-19
-3.4116559023184e-18
1.78573803915269e-18
-2.25584736762069e-18
1.95063089263027e-18
0
-2.11155455307802e-18
0
2.27259750209154e-18
0
-2.47402984457309e-18
-8.17713064347239e-18
1.9463335269288e-19
1.44322071353719e-18
-1.70488605440934e-18
0
0
-1.78344964333788e-18
0
0
0
0
-1.92763469166045e-19
1.51424542395977e-18
-3.2202837321665e-18
-6.07045658232999e-18
0
0
7.84905030488228e-18
3.2565735788434e-18
-1.69514621851037e-18
0
-1.19987315933164e-18
-2.82700297375293e-18
-2.6926659439403e-18
-5.34185718571819e-18
0
-2.38175637355531e-18
0
-2.0355194308787e-18
-2.15052841591488e-18
1.88069153321895e-18
1.91577883360966e-19
0
5.12792294405436e-18
0
-6.26653905287891e-18
1.92269235296921e-19
-1.63195326742145e-18
-4.26116730146342e-18
0
0
3.02847382446488e-18
-1.61061895082577e-18
0
-1.92764077186779e-19
0
-8.89265739620733e-18
0
0
0
-6.05694764892939e-18
6.65239937866513e-16
6.66743140327926e-16
0
0
0
0
1.61061895082573e-18
0
0
1.92764077186772e-19
1.92764077186777e-19
0
4.63909277529027e-18
1.92764077186783e-19
0
-4.25356462091731e-18
1.80338302801267e-18
5.8641835717432e-18
1.22509079645225e-18
5.8641835717432e-18
-1.92764077186778e-19
1.92764077186782e-19
0
-5.8641835717432e-18
-5.86418357174324e-18
6.69493502487411e-16
6.63022121710013e-16
3.02847382446487e-18
0
1.92764077186772e-19
0
-6.05694764892977e-18
0
0
0
-2.8357097472781e-18
3.22123790165156e-18
1.92764077186776e-19
1.92764077186774e-19
-4.6390927752903e-18
6.0569476489297e-18
6.63243790761346e-16
6.64577636931851e-16
0
6.05694764892978e-18
0
-6.64661645634948e-16
-6.52015539873076e-16
-1.61061895082597e-18
1.92764077186777e-19
1.80338302801251e-18
0
1.9276405765008e-19
0
6.06749605343675e-18
-6.14438205578672e-18
1.66601758345411e-18
1.51860337333633e-18
-6.69297418735589e-18
-5.32337820454471e-18
-9.19213131555587e-18
1.99520117218174e-18
0
0
1.94125358420971e-19
0
0
-2.47569336795571e-18
-2.38441557409643e-18
8.08883080321023e-18
-1.9462950521586e-19
-2.97576597508044e-18
5.81938206307619e-18
-3.00921626555637e-18
-3.26073028079423e-18
0
-1.94196275792888e-19
0
4.45747416825027e-18
0
-4.63909277529081e-18
5.66599831188831e-18
3.12119853796415e-18
0
-7.54432956265321e-18
0
-6.09659827339251e-18
-4.62237663750271e-18
2.89928519685663e-18
8.790699365832e-18
2.6793170389152e-18
0
2.41083759965761e-18
-2.29797220100443e-18
0
0
-2.03394322554738e-18
-1.91308042734145e-19
-2.08006339830652e-18
1.91472340230841e-19
0
-1.91699318961386e-19
-1.58703231268152e-18
1.71282356990223e-18
-1.65733277300273e-18
0
2.77838469241741e-18
1.92560094969082e-19
0
-2.92937448352446e-18
-2.54384326687384e-18
5.85874536567727e-18
0
-6.41680971401597e-16
-6.51391706258225e-16
0
1.92764707982492e-19
0
8.98088275649872e-18
2.92937268283875e-18
-6.49890795326239e-16
-6.46492008354506e-16
-1.92764707982484e-19
0
0
0
0
0
1.9276470798249e-19
8.59535334053292e-18
2.92937268283882e-18
5.85874536567783e-18
-5.8587453656774e-18
8.59535334053388e-18
0
0
0
-2.92937268283883e-18
-3.12213739082095e-18
2.92937268283881e-18
2.73660797485623e-18
3.12213739082122e-18
2.92937268283847e-18
0
-1.92764707982493e-19
-6.42066500817566e-16
-6.46806157964517e-16
0
-2.54384326687393e-18
6.41680971401589e-16
6.41493463078049e-16
-2.54384326687395e-18
0
1.92764707982496e-19
0
0
0
-8.59535334053317e-18
0
0
-2.92937268283875e-18
-6.41680971401644e-16
-6.49012391967287e-16
0
-2.92937268283879e-18
2.92937268283903e-18
6.38944363426772e-16
1.29876890198955e-15
6.37515901675988e-16
0
2.92937268283852e-18
1.92764707982494e-19
0
5.85264683102852e-18
-8.61055629821415e-18
0
0
0
0
3.36771086106581e-18
-7.03088549162521e-18
-1.93878830781832e-19
-1.81322481489445e-18
0
-1.94123255998055e-19
7.90874947271607e-16
7.84076274842949e-16
0
0
0
-5.27486521761651e-18
2.67931703891622e-18
1.40159989113843e-18
-2.89928519685533e-18
0
-7.77133868144366e-18
4.71343344957809e-18
-3.17479594380983e-18
0
0
-5.47321594971941e-18
-9.63918354932438e-20
0
-2.64734995190624e-18
1.91858692661602e-19
0
0
-6.92686912481745e-18
1.90539766452635e-19
0
0
0
2.32312551544676e-18
0
2.31032672679955e-18
-2.03513068646383e-18
0
-2.08272908441623e-18
-1.82070788330528e-18
0
7.08231403246494e-18
1.91699174700871e-19
1.72260184451074e-18
0
0
-1.92269876388322e-19
0
1.92560683530651e-19
0
0
0
-1.9276536242557e-19
0
6.27229245298634e-16
6.18000375776874e-16
2.83377457473157e-18
-5.66754914946347e-18
3.02653993715714e-18
-6.0530798743143e-18
5.47478378703791e-18
1.92765362425561e-19
-5.47478378703792e-18
-1.92765362425573e-19
6.13445903149812e-16
6.26633215571567e-16
5.47478378703724e-18
-2.83377457473175e-18
-3.02653993715715e-18
-2.83377457473172e-18
5.66754914946317e-18
1.92765362425558e-19
-5.66754914946348e-18
0
-1.92765362425568e-19
-5.66754914946322e-18
0
0
-1.9276536242556e-19
1.9276536242557e-19
0
5.66754914946367e-18
5.66754914946333e-18
2.83377457473159e-18
1.92765362425565e-19
1.9276536242556e-19
0
2.64100921230595e-18
0
1.92765362425563e-19
-6.24781001448652e-16
-6.21273814619574e-16
0
0
0
1.92765362425561e-19
-2.83377457473173e-18
0
-2.83377457473154e-18
0
-3.02653993715721e-18
-1.92765362425569e-19
0
0
1.92765362425572e-19
-1.9276536242556e-19
0
0
-6.16857973811734e-16
-6.25923403413822e-16
0
1.92765362425564e-19
-1.92765362425564e-19
5.47478717477087e-18
0
0
8.42997578440749e-18
-1.93250998112322e-19
-3.0207802975431e-18
3.12784352721213e-18
0
0
0
-7.57448902716532e-18
0
1.89142111766815e-18
-7.32938974837341e-16
-7.99213790507932e-16
-1.92491123723076e-18
-2.40898718107931e-18
0
-2.64202841651962e-18
-1.94744688033287e-19
8.49109502222194e-18
-1.78630932461085e-18
2.8469979601925e-18
2.84637140943368e-18
5.75547114441527e-18
0
1.93167875761653e-19
0
0
0
0
-5.30183984011724e-18
-5.57313148921747e-18
5.36309091850065e-18
5.86897934062193e-18
0
-2.88150785615084e-18
-5.20280638518841e-18
2.6772428611997e-18
2.54874599218984e-18
0
-1.94314517663662e-18
0
-4.11419785958133e-18
-1.88968587037324e-18
1.9130788809729e-19
-1.91382119890161e-19
0
0
-1.928005320796e-18
-1.91837550790787e-19
0
5.84028747681605e-18
1.92270214965176e-19
-5.55992621502249e-18
-5.29947870173938e-18
1.92707637734984e-19
5.48311478495062e-18
0
-1.92766041423246e-19
0
2.93432178644883e-18