/*--------------------------------*- C++ -*----------------------------------*\
  =========                 |
  \\      /  F ield         | OpenFOAM: The Open Source CFD Toolbox
   \\    /   O peration     | Website:  https://openfoam.org
    \\  /    A nd           | Version:  7
     \\/     M anipulation  |
\*---------------------------------------------------------------------------*/
FoamFile
{
    version     2.0;
    format      ascii;
    class       volScalarField;
    location    "0";
    object      k_LES;
}
// * * * * * * * * * * * * * * * * * * * * * * * * * * * * * * * * * * * * * //

dimensions      [0 2 -2 0 0 0 0];

internalField   nonuniform List<scalar>
15600
(
0.00517000
0.00555809
0.00105157
0.00069294
0.00112051
0.00034419
0.00160496
0.00075110
0.00057746
0.00063983
0.00060892
0.00044388
0.00053455
0.00030232
0.00014790
0.00046556
0.00018250
0.00051713
0.00035379
0.00053436
0.00058030
0.00066677
0.00054222
0.00093338
0.00113202
0.00097128
0.00087533
0.00084510
0.00069029
0.00084337
0.00104310
0.00109886
0.00120025
0.00127197
0.00134168
0.00145841
0.00154374
0.00155873
0.00165157
0.00169069
0.00174715
0.00181825
0.00183381
0.00183753
0.00179722
0.00181244
0.00178595
0.00178336
0.00178068
0.00169222
0.00165267
0.00164328
0.00163368
0.00170623
0.00161474
0.00162848
0.00159344
0.00154872
0.00153946
0.00149374
0.00148620
0.00146100
0.00141486
0.00140175
0.00136902
0.00141783
0.00133347
0.00130180
0.00126809
0.00123041
0.00119685
0.00124425
0.00116500
0.00112831
0.00114048
0.00113201
0.00110981
0.00110803
0.00107263
0.00100256
0.00095447
0.00091184
0.00087672
0.00089182
0.00090931
0.00085476
0.00083716
0.00084865
0.00085515
0.00083604
0.00082314
0.00083624
0.00123993
0.00139164
0.00063833
0.00033466
0.00058604
0.00000900
0.00015996
0.00021825
-0.00026115
-0.00002207
-0.00002283
0.00000350
-0.00010988
-0.00009132
-0.00005123
-0.00022339
-0.00005175
-0.00058571
-0.00031711
-0.00078110
-0.00004608
-0.00001556
-0.00012645
0.00012867
-0.00037180
0.00017631
0.00275224
0.00414667
0.01041398
0.01197500
0.00472946
0.00257260
0.00372269
0.00219205
0.00367435
0.00207202
0.00190995
0.00217071
0.00182725
0.00154893
0.00158186
0.00158624
0.00135336
0.00169867
0.00167156
0.00185443
0.00211302
0.00216361
0.00253488
0.00275456
0.00283397
0.00321081
0.00341822
0.00349192
0.00363101
0.00346700
0.00364205
0.00426394
0.00488855
0.00532189
0.00572056
0.00614390
0.00651284
0.00681604
0.00710970
0.00747303
0.00779396
0.00797771
0.00818466
0.00840836
0.00846580
0.00848463
0.00851429
0.00847592
0.00837563
0.00833009
0.00833363
0.00815700
0.00803675
0.00791843
0.00787323
0.00781623
0.00770838
0.00770796
0.00764695
0.00755183
0.00752655
0.00736927
0.00726358
0.00713448
0.00709247
0.00699944
0.00692281
0.00678604
0.00667309
0.00650372
0.00642470
0.00625451
0.00616619
0.00611353
0.00601312
0.00595678
0.00595860
0.00593479
0.00579805
0.00562501
0.00543384
0.00528953
0.00510617
0.00490036
0.00477029
0.00470697
0.00467235
0.00461470
0.00450988
0.00449667
0.00443097
0.00437773
0.00431187
0.00429931
0.00501484
0.00533558
0.00511072
0.00505800
0.00511045
0.00298117
0.00381937
0.00267083
0.00182631
0.00151631
0.00154900
0.00109993
0.00192089
0.00081337
0.00033662
0.00047856
0.00022446
-0.00051266
-0.00004842
-0.00006571
0.00000016
0.00048676
0.00002928
0.00179424
0.00027448
0.00226701
0.00728410
0.00868496
0.01656074
0.01910827
0.01215217
0.00626924
0.00705947
0.00531591
0.00584442
0.00432159
0.00419471
0.00403570
0.00371932
0.00345887
0.00326289
0.00327821
0.00322769
0.00344477
0.00361209
0.00390238
0.00416215
0.00431303
0.00466488
0.00493935
0.00521076
0.00560230
0.00576309
0.00594820
0.00609547
0.00619126
0.00683743
0.00776257
0.00866547
0.00934798
0.01001527
0.01073779
0.01137428
0.01182528
0.01230389
0.01290246
0.01339241
0.01370588
0.01404639
0.01438301
0.01451465
0.01462662
0.01474093
0.01462299
0.01448616
0.01443057
0.01444374
0.01427778
0.01415513
0.01391763
0.01380758
0.01369128
0.01354961
0.01354629
0.01349728
0.01339989
0.01338064
0.01314836
0.01299295
0.01286367
0.01283406
0.01269575
0.01259602
0.01241077
0.01225235
0.01198251
0.01180828
0.01154746
0.01144883
0.01138824
0.01128726
0.01123762
0.01125257
0.01119537
0.01100134
0.01073055
0.01042461
0.01020196
0.00988628
0.00954040
0.00932217
0.00921947
0.00914054
0.00903532
0.00885666
0.00877812
0.00866267
0.00852498
0.00839310
0.00833994
0.00891262
0.00953525
0.00989035
0.01040029
0.01072316
0.00993212
0.01048310
0.00947731
0.00839190
0.00745128
0.00751487
0.00605329
0.00655965
0.00475769
0.00457812
0.00347107
0.00269926
0.00300718
0.00387482
0.00423486
0.00117283
0.00464466
0.00408445
0.00594114
0.00750641
0.00898583
0.01340757
0.01447263
0.02258163
0.02536604
0.02163763
0.01127129
0.00961850
0.00899810
0.00824322
0.00735780
0.00678278
0.00595970
0.00561098
0.00531823
0.00524149
0.00499875
0.00498107
0.00520489
0.00539876
0.00570230
0.00599714
0.00627311
0.00656847
0.00693512
0.00718682
0.00746672
0.00767342
0.00784909
0.00805081
0.00841847
0.00930474
0.01032785
0.01134654
0.01218890
0.01304040
0.01392421
0.01471212
0.01529617
0.01590416
0.01663324
0.01721803
0.01759218
0.01803006
0.01845394
0.01867990
0.01891025
0.01904873
0.01890671
0.01873962
0.01871071
0.01876831
0.01859347
0.01848953
0.01819621
0.01803865
0.01790788
0.01776227
0.01774303
0.01772688
0.01765130
0.01761152
0.01734374
0.01722620
0.01707955
0.01707185
0.01692505
0.01682509
0.01664565
0.01649394
0.01617648
0.01595191
0.01566590
0.01558514
0.01551636
0.01544087
0.01539814
0.01544439
0.01537628
0.01517904
0.01485227
0.01452964
0.01423620
0.01385519
0.01344930
0.01319152
0.01306161
0.01296345
0.01283735
0.01263343
0.01249208
0.01231061
0.01210716
0.01194227
0.01185589
0.01229925
0.01300975
0.01377767
0.01456937
0.01540593
0.01563558
0.01607113
0.01616175
0.01560183
0.01563390
0.01538917
0.01467566
0.01496915
0.01276235
0.01257693
0.01114146
0.01093703
0.01099539
0.01079170
0.00946022
0.00579133
0.01024683
0.01278312
0.01654051
0.01727244
0.01894363
0.02051184
0.02066572
0.02871610
0.03117042
0.02932774
0.01671331
0.01188556
0.01144487
0.01032049
0.00958284
0.00850397
0.00750141
0.00699627
0.00669819
0.00677980
0.00654721
0.00651277
0.00673243
0.00706161
0.00736395
0.00770531
0.00785939
0.00809337
0.00829940
0.00859919
0.00884266
0.00906931
0.00928352
0.00955560
0.01013116
0.01110248
0.01213902
0.01322182
0.01415744
0.01514861
0.01612246
0.01698756
0.01765380
0.01837700
0.01918745
0.01981927
0.02025503
0.02075357
0.02122327
0.02153331
0.02186462
0.02202549
0.02189099
0.02176493
0.02174932
0.02175718
0.02163982
0.02152740
0.02124669
0.02103935
0.02090156
0.02077596
0.02074537
0.02075080
0.02070809
0.02063160
0.02037622
0.02026081
0.02013751
0.02011530
0.01996881
0.01988534
0.01972274
0.01958307
0.01926518
0.01904662
0.01877035
0.01868263
0.01859192
0.01854518
0.01853254
0.01859414
0.01852298
0.01834264
0.01798222
0.01764290
0.01731914
0.01693453
0.01650683
0.01625077
0.01612022
0.01600405
0.01590899
0.01568594
0.01547797
0.01525671
0.01501689
0.01484615
0.01474029
0.01508756
0.01577410
0.01668736
0.01774066
0.01887266
0.01970426
0.02059582
0.02096129
0.02121723
0.02100988
0.02177081
0.02160602
0.02153101
0.02109377
0.02100962
0.02064855
0.01992755
0.02016167
0.01966441
0.01981905
0.01692005
0.02094807
0.02262126
0.02749169
0.02720244
0.02748458
0.02760646
0.02716322
0.03489058
0.03709304
0.03517380
0.02226141
0.01413809
0.01288175
0.01182811
0.01111115
0.00975661
0.00900579
0.00838865
0.00804502
0.00799573
0.00788155
0.00787642
0.00806210
0.00842527
0.00867916
0.00888730
0.00904769
0.00918970
0.00934424
0.00960766
0.00985474
0.01008688
0.01036540
0.01071513
0.01143600
0.01242794
0.01347537
0.01460356
0.01560266
0.01670299
0.01772885
0.01864175
0.01936986
0.02019716
0.02104763
0.02173001
0.02219815
0.02274373
0.02323634
0.02364287
0.02401759
0.02419536
0.02408176
0.02401641
0.02401375
0.02397979
0.02389263
0.02376237
0.02352147
0.02328532
0.02316197
0.02306513
0.02301602
0.02302156
0.02299694
0.02289932
0.02269018
0.02257132
0.02243305
0.02238167
0.02225107
0.02217180
0.02201214
0.02188617
0.02159959
0.02141496
0.02116671
0.02105725
0.02094231
0.02090200
0.02090446
0.02099168
0.02093136
0.02077073
0.02040432
0.02005470
0.01968187
0.01932169
0.01891108
0.01867979
0.01853671
0.01843204
0.01836829
0.01812756
0.01787808
0.01762040
0.01737310
0.01720895
0.01709804
0.01735675
0.01797727
0.01891389
0.02010385
0.02139224
0.02254028
0.02372522
0.02444107
0.02500102
0.02563179
0.02606842
0.02617310
0.02645795
0.02648611
0.02658150
0.02649255
0.02662846
0.02653945
0.02766810
0.02859556
0.02918322
0.03165450
0.03173616
0.03464965
0.03436717
0.03329036
0.03355087
0.03347779
0.04015953
0.04227007
0.04100052
0.02883014
0.01690830
0.01461800
0.01328624
0.01227456
0.01098403
0.01015281
0.00955808
0.00924975
0.00911572
0.00892572
0.00893290
0.00910970
0.00944761
0.00963869
0.00977938
0.00987809
0.00999459
0.01010305
0.01033113
0.01059462
0.01086343
0.01119439
0.01164163
0.01244974
0.01345650
0.01453523
0.01568851
0.01674648
0.01791763
0.01898186
0.01992645
0.02072233
0.02162300
0.02249118
0.02320514
0.02370530
0.02429170
0.02478748
0.02526036
0.02565967
0.02585331
0.02578491
0.02578485
0.02577622
0.02571006
0.02564435
0.02548537
0.02529820
0.02503762
0.02493907
0.02486287
0.02479473
0.02479909
0.02478675
0.02468321
0.02453560
0.02442609
0.02424524
0.02414725
0.02404276
0.02395741
0.02376596
0.02363759
0.02340206
0.02327664
0.02306282
0.02293208
0.02279620
0.02273850
0.02274656
0.02285015
0.02280832
0.02267248
0.02231995
0.02194940
0.02154495
0.02120893
0.02083194
0.02063545
0.02047411
0.02038137
0.02034433
0.02008260
0.01980999
0.01952573
0.01929320
0.01914221
0.01903037
0.01920307
0.01974902
0.02066283
0.02189142
0.02326818
0.02462750
0.02588992
0.02688511
0.02768234
0.02860043
0.02935736
0.02997054
0.03019255
0.03049014
0.03106939
0.03079651
0.03088807
0.03130446
0.03267490
0.03374855
0.03507457
0.03691038
0.03879813
0.03921808
0.03860737
0.03671738
0.03746219
0.03861341
0.04401334
0.04619561
0.04613583
0.03521724
0.02043960
0.01629236
0.01453017
0.01337410
0.01211948
0.01115478
0.01050492
0.01019844
0.01000283
0.00983377
0.00982793
0.00992511
0.01023490
0.01036357
0.01041263
0.01047268
0.01056954
0.01065936
0.01087311
0.01116035
0.01147114
0.01185888
0.01240531
0.01327354
0.01430674
0.01543174
0.01660213
0.01771679
0.01892138
0.02002567
0.02098141
0.02186358
0.02280640
0.02368018
0.02441306
0.02493588
0.02555848
0.02605416
0.02656238
0.02696762
0.02718493
0.02718020
0.02723862
0.02721367
0.02712890
0.02704804
0.02686356
0.02673295
0.02646232
0.02639594
0.02633577
0.02624087
0.02621884
0.02623752
0.02613661
0.02605907
0.02596136
0.02573500
0.02558003
0.02549363
0.02537880
0.02516138
0.02502739
0.02483871
0.02477164
0.02460241
0.02444684
0.02431240
0.02422499
0.02421945
0.02432464
0.02431241
0.02419347
0.02387155
0.02348464
0.02304996
0.02273667
0.02240604
0.02223394
0.02205493
0.02196595
0.02193576
0.02166451
0.02137080
0.02108242
0.02087542
0.02074088
0.02061862
0.02071681
0.02118584
0.02204668
0.02327858
0.02468552
0.02612018
0.02746533
0.02862642
0.02962938
0.03080364
0.03156470
0.03231496
0.03277248
0.03326099
0.03388560
0.03429475
0.03449620
0.03492369
0.03643723
0.03665315
0.03869706
0.04035739
0.04284196
0.04161989
0.04081049
0.03864076
0.03931909
0.04190941
0.04655913
0.04900714
0.04974012
0.04117275
0.02474016
0.01804571
0.01577317
0.01434053
0.01306095
0.01202082
0.01134550
0.01100571
0.01075971
0.01054845
0.01052503
0.01055974
0.01081415
0.01090459
0.01091130
0.01090968
0.01099958
0.01107927
0.01130022
0.01162084
0.01197626
0.01242021
0.01306801
0.01397625
0.01504852
0.01623338
0.01741657
0.01858695
0.01980311
0.02093899
0.02188890
0.02287008
0.02382853
0.02469994
0.02544600
0.02598731
0.02664480
0.02713865
0.02765838
0.02805521
0.02831499
0.02837263
0.02847645
0.02841924
0.02832107
0.02821439
0.02801648
0.02792832
0.02766302
0.02762501
0.02757104
0.02745565
0.02738156
0.02744236
0.02735552
0.02733254
0.02726146
0.02699736
0.02677738
0.02668704
0.02654288
0.02629656
0.02616734
0.02601267
0.02599455
0.02587822
0.02569906
0.02556531
0.02545885
0.02543077
0.02551891
0.02554062
0.02543276
0.02513836
0.02475046
0.02429138
0.02400095
0.02371606
0.02355809
0.02337567
0.02327518
0.02322576
0.02295442
0.02264979
0.02236646
0.02219323
0.02206458
0.02193920
0.02198003
0.02236751
0.02317786
0.02440252
0.02578235
0.02723580
0.02863729
0.02991260
0.03106091
0.03219558
0.03308559
0.03412737
0.03459687
0.03509388
0.03585232
0.03675462
0.03718744
0.03786647
0.03893663
0.03954872
0.04154285
0.04314087
0.04449798
0.04360488
0.04245475
0.03999846
0.03999368
0.04352791
0.04783996
0.05077994
0.05232479
0.04637027
0.02971634
0.02037652
0.01715747
0.01531385
0.01386990
0.01275875
0.01205656
0.01167302
0.01139458
0.01113502
0.01105137
0.01105086
0.01126198
0.01130233
0.01128375
0.01126019
0.01133499
0.01142540
0.01166317
0.01201575
0.01242061
0.01292172
0.01366301
0.01460032
0.01572626
0.01698465
0.01817351
0.01940103
0.02062524
0.02176977
0.02271231
0.02378885
0.02474385
0.02560370
0.02636049
0.02693923
0.02760638
0.02809811
0.02862392
0.02900188
0.02931221
0.02942528
0.02954855
0.02946087
0.02934746
0.02920814
0.02902199
0.02895529
0.02869761
0.02869316
0.02862525
0.02850173
0.02837008
0.02846246
0.02840678
0.02842726
0.02837551
0.02808564
0.02780333
0.02768989
0.02751956
0.02724546
0.02713609
0.02699417
0.02701963
0.02694622
0.02675271
0.02661752
0.02649990
0.02644910
0.02650276
0.02655501
0.02645401
0.02618345
0.02579647
0.02533530
0.02506303
0.02482437
0.02467201
0.02449993
0.02437215
0.02428483
0.02401930
0.02371198
0.02343581
0.02329790
0.02316695
0.02303894
0.02304129
0.02334802
0.02411950
0.02529911
0.02664176
0.02805120
0.02947014
0.03086688
0.03206712
0.03326745
0.03427937
0.03523587
0.03590806
0.03667288
0.03751526
0.03842930
0.03900947
0.03973339
0.04086617
0.04238104
0.04340108
0.04497989
0.04445060
0.04525832
0.04373787
0.04112847
0.04029452
0.04388781
0.04786221
0.05142742
0.05407084
0.05064729
0.03520170
0.02311067
0.01869899
0.01640966
0.01473319
0.01348595
0.01269149
0.01225957
0.01192284
0.01161433
0.01149908
0.01143773
0.01159566
0.01161296
0.01157727
0.01153726
0.01161082
0.01172620
0.01199128
0.01237327
0.01283336
0.01338986
0.01421121
0.01518362
0.01637639
0.01770779
0.01889826
0.02017990
0.02142062
0.02256047
0.02350493
0.02464555
0.02558237
0.02644230
0.02720189
0.02784206
0.02848110
0.02897090
0.02950308
0.02986269
0.03021254
0.03037401
0.03049516
0.03038052
0.03025857
0.03007221
0.02991295
0.02985339
0.02960598
0.02964285
0.02954593
0.02942368
0.02925080
0.02934284
0.02934342
0.02939828
0.02935284
0.02903934
0.02870775
0.02855407
0.02835284
0.02806875
0.02797355
0.02783551
0.02789779
0.02785877
0.02765981
0.02751066
0.02739334
0.02731953
0.02733953
0.02740694
0.02730902
0.02704838
0.02666924
0.02623201
0.02597410
0.02577731
0.02562292
0.02546753
0.02529929
0.02516658
0.02490871
0.02460670
0.02433997
0.02422740
0.02409324
0.02395649
0.02393842
0.02417248
0.02490923
0.02602757
0.02732285
0.02865941
0.03007542
0.03155693
0.03284835
0.03403257
0.03508066
0.03611334
0.03693464
0.03777149
0.03870948
0.03965644
0.04044287
0.04126216
0.04228251
0.04365357
0.04433213
0.04537649
0.04494125
0.04628679
0.04463535
0.04214565
0.04057933
0.04347668
0.04719121
0.05125842
0.05484415
0.05380132
0.04075689
0.02640092
0.02051083
0.01753553
0.01559593
0.01420181
0.01329150
0.01279408
0.01238987
0.01203791
0.01186634
0.01174972
0.01186069
0.01185792
0.01182079
0.01178411
0.01185825
0.01199800
0.01229633
0.01270920
0.01322416
0.01384585
0.01473193
0.01575620
0.01702210
0.01840290
0.01961040
0.02093510
0.02221044
0.02332887
0.02429055
0.02544905
0.02637877
0.02725109
0.02801296
0.02871100
0.02930864
0.02977964
0.03032145
0.03066884
0.03103145
0.03123355
0.03135524
0.03120278
0.03109376
0.03084872
0.03070941
0.03064395
0.03043027
0.03051379
0.03037602
0.03024985
0.03005977
0.03013397
0.03020481
0.03028374
0.03023589
0.02989790
0.02952167
0.02932861
0.02908287
0.02880583
0.02871480
0.02858154
0.02866240
0.02865797
0.02845442
0.02828191
0.02817692
0.02806717
0.02806991
0.02813656
0.02803322
0.02777497
0.02741804
0.02701923
0.02677794
0.02660748
0.02644159
0.02629687
0.02609335
0.02592092
0.02566932
0.02537295
0.02511716
0.02501643
0.02487654
0.02472603
0.02469862
0.02487690
0.02556833
0.02662425
0.02787222
0.02912629
0.03053383
0.03205523
0.03336855
0.03460069
0.03572825
0.03677128
0.03764645
0.03855467
0.03957602
0.04054043
0.04148359
0.04240040
0.04341694
0.04453570
0.04604749
0.04652322
0.04615121
0.04670087
0.04525019
0.04298279
0.04099935
0.04282502
0.04615286
0.05047352
0.05478985
0.05592993
0.04600393
0.03034177
0.02264117
0.01890354
0.01655831
0.01494194
0.01388603
0.01331339
0.01283035
0.01242858
0.01218935
0.01202129
0.01207740
0.01207320
0.01203705
0.01201655
0.01209056
0.01225544
0.01258541
0.01303348
0.01360432
0.01429728
0.01524444
0.01633179
0.01766960
0.01907545
0.02031543
0.02167803
0.02299591
0.02408669
0.02506936
0.02621313
0.02715154
0.02805159
0.02880618
0.02954801
0.03010705
0.03054258
0.03109802
0.03144222
0.03179956
0.03203177
0.03214716
0.03195836
0.03185900
0.03156356
0.03143699
0.03135074
0.03119574
0.03131766
0.03114298
0.03100557
0.03082321
0.03088362
0.03100569
0.03110565
0.03104464
0.03069116
0.03026515
0.03004407
0.02974612
0.02947346
0.02938788
0.02926368
0.02934042
0.02937104
0.02915463
0.02896295
0.02886931
0.02872245
0.02871763
0.02876636
0.02865682
0.02839309
0.02807797
0.02772018
0.02749493
0.02733630
0.02715745
0.02700875
0.02677975
0.02657606
0.02633781
0.02604527
0.02579575
0.02568904
0.02554853
0.02537732
0.02534530
0.02548992
0.02611758
0.02712063
0.02831827
0.02949072
0.03088162
0.03243503
0.03372472
0.03496964
0.03615531
0.03722508
0.03824053
0.03913570
0.04012772
0.04111487
0.04218595
0.04326658
0.04434630
0.04546085
0.04704372
0.04761969
0.04742501
0.04694085
0.04568913
0.04363367
0.04153946
0.04225865
0.04502871
0.04928188
0.05413911
0.05710358
0.05068741
0.03475906
0.02510939
0.02042429
0.01764556
0.01576590
0.01453650
0.01384961
0.01324928
0.01278952
0.01248578
0.01226847
0.01227252
0.01227593
0.01224312
0.01224466
0.01232652
0.01251252
0.01286630
0.01335987
0.01398842
0.01475292
0.01576540
0.01691701
0.01831620
0.01973401
0.02102273
0.02241699
0.02378064
0.02483779
0.02583954
0.02695368
0.02791591
0.02885367
0.02958916
0.03034808
0.03088638
0.03129362
0.03184670
0.03219821
0.03254587
0.03277873
0.03288553
0.03268997
0.03255604
0.03225404
0.03213403
0.03202007
0.03192653
0.03205755
0.03186017
0.03173215
0.03156970
0.03162396
0.03175957
0.03188193
0.03179825
0.03144288
0.03097123
0.03071504
0.03038270
0.03009567
0.03000977
0.02989147
0.02995469
0.03001524
0.02978281
0.02957869
0.02948680
0.02932128
0.02929962
0.02931936
0.02919536
0.02892784
0.02866825
0.02835235
0.02812730
0.02797700
0.02779228
0.02762798
0.02737784
0.02715053
0.02692999
0.02664892
0.02639710
0.02626213
0.02613532
0.02593345
0.02590317
0.02603219
0.02658826
0.02754179
0.02868037
0.02976905
0.03114201
0.03268582
0.03397463
0.03522160
0.03646261
0.03757093
0.03866650
0.03962621
0.04065486
0.04170424
0.04261044
0.04363227
0.04501139
0.04594018
0.04709349
0.04759914
0.04792616
0.04711439
0.04590042
0.04410751
0.04206971
0.04192689
0.04400974
0.04792526
0.05300239
0.05747813
0.05445541
0.03962788
0.02801394
0.02228419
0.01888578
0.01669424
0.01524436
0.01440326
0.01368141
0.01314508
0.01278278
0.01251735
0.01246486
0.01247207
0.01245233
0.01248034
0.01257982
0.01277493
0.01314900
0.01369235
0.01438559
0.01522649
0.01630507
0.01751028
0.01897499
0.02039796
0.02173807
0.02315960
0.02456751
0.02558781
0.02659800
0.02768511
0.02868179
0.02964866
0.03037485
0.03111554
0.03165550
0.03205365
0.03258825
0.03294845
0.03328317
0.03349210
0.03359043
0.03341716
0.03321599
0.03294194
0.03283445
0.03269877
0.03264091
0.03275086
0.03254683
0.03245883
0.03231139
0.03235308
0.03248262
0.03262440
0.03251179
0.03216261
0.03165853
0.03135005
0.03100777
0.03070868
0.03059600
0.03048417
0.03054391
0.03059090
0.03036140
0.03015187
0.03005021
0.02987112
0.02983435
0.02982651
0.02967002
0.02939995
0.02919816
0.02893666
0.02868480
0.02853529
0.02836073
0.02817807
0.02790733
0.02767299
0.02745290
0.02719660
0.02694932
0.02676651
0.02665022
0.02642535
0.02640232
0.02652288
0.02699986
0.02790602
0.02897550
0.02998829
0.03134618
0.03285121
0.03411715
0.03537366
0.03668833
0.03780716
0.03889824
0.03994813
0.04093202
0.04203352
0.04300748
0.04399228
0.04531688
0.04624748
0.04644990
0.04759335
0.04772059
0.04712124
0.04602524
0.04443629
0.04254286
0.04182886
0.04322925
0.04657219
0.05159370
0.05718129
0.05725273
0.04463938
0.03139495
0.02442742
0.02034350
0.01775782
0.01605034
0.01501271
0.01415241
0.01352295
0.01309701
0.01277849
0.01267260
0.01267634
0.01267071
0.01272608
0.01284711
0.01305257
0.01344274
0.01403832
0.01479783
0.01572255
0.01686884
0.01811381
0.01964676
0.02110049
0.02246374
0.02391323
0.02534844
0.02634266
0.02736089
0.02842302
0.02945297
0.03043293
0.03117065
0.03187745
0.03241635
0.03283286
0.03334645
0.03369121
0.03400870
0.03417816
0.03430100
0.03414709
0.03389764
0.03364429
0.03355630
0.03341644
0.03336020
0.03341582
0.03324021
0.03318352
0.03305161
0.03308276
0.03318858
0.03334440
0.03318474
0.03285286
0.03234853
0.03197549
0.03162757
0.03133603
0.03119721
0.03108360
0.03114409
0.03112743
0.03092331
0.03070152
0.03057439
0.03038088
0.03033606
0.03031239
0.03010378
0.02983024
0.02968508
0.02947363
0.02919540
0.02903758
0.02888119
0.02868106
0.02839774
0.02816419
0.02792570
0.02769819
0.02748025
0.02723704
0.02711519
0.02689364
0.02687263
0.02697821
0.02738043
0.02823389
0.02922974
0.03018640
0.03152298
0.03295024
0.03420244
0.03546074
0.03678964
0.03794083
0.03904201
0.04008124
0.04113010
0.04222438
0.04333673
0.04449112
0.04555561
0.04630565
0.04673184
0.04790960
0.04754641
0.04710445
0.04604838
0.04462412
0.04291672
0.04187558
0.04267302
0.04532978
0.05004791
0.05626883
0.05903347
0.04949785
0.03528309
0.02694332
0.02204191
0.01898745
0.01696476
0.01569431
0.01468444
0.01393604
0.01343928
0.01306675
0.01290901
0.01289583
0.01290569
0.01298408
0.01312932
0.01335623
0.01375843
0.01440833
0.01523455
0.01624138
0.01745129
0.01873942
0.02034111
0.02185647
0.02321945
0.02468425
0.02613783
0.02711982
0.02814383
0.02918638
0.03023689
0.03121789
0.03197241
0.03265890
0.03319155
0.03363781
0.03413125
0.03444319
0.03472032
0.03487484
0.03502942
0.03488917
0.03463103
0.03439013
0.03430896
0.03417810
0.03410475
0.03410113
0.03397309
0.03390567
0.03381263
0.03384353
0.03390008
0.03405165
0.03382846
0.03352721
0.03305183
0.03262821
0.03226651
0.03197848
0.03185082
0.03171884
0.03177029
0.03166210
0.03148893
0.03124251
0.03107185
0.03087995
0.03081755
0.03077783
0.03051950
0.03024915
0.03014133
0.02996999
0.02968334
0.02951234
0.02936970
0.02915798
0.02887179
0.02863311
0.02838506
0.02816039
0.02798594
0.02770050
0.02755079
0.02735667
0.02732633
0.02742064
0.02775799
0.02854244
0.02946911
0.03038327
0.03168929
0.03301135
0.03424440
0.03550893
0.03681786
0.03800285
0.03911987
0.04014679
0.04120581
0.04227294
0.04343260
0.04462790
0.04551709
0.04638181
0.04703384
0.04823590
0.04757561
0.04693959
0.04597886
0.04470137
0.04317405
0.04201527
0.04229721
0.04428148
0.04848238
0.05491034
0.05985092
0.05388288
0.03964463
0.02983848
0.02403089
0.02039556
0.01801121
0.01647420
0.01529294
0.01440422
0.01382812
0.01339459
0.01318289
0.01313841
0.01316919
0.01326637
0.01343509
0.01369214
0.01411060
0.01480325
0.01569784
0.01679195
0.01804883
0.01939215
0.02106884
0.02266040
0.02401854
0.02547875
0.02695389
0.02793678
0.02896028
0.02998876
0.03103581
0.03202571
0.03277732
0.03346489
0.03399959
0.03448498
0.03496416
0.03522237
0.03544396
0.03562816
0.03576930
0.03564437
0.03539727
0.03518351
0.03510470
0.03498991
0.03489368
0.03485444
0.03473725
0.03465414
0.03461535
0.03463192
0.03465475
0.03474414
0.03447977
0.03419630
0.03375945
0.03331722
0.03293687
0.03263620
0.03254773
0.03240220
0.03240441
0.03222193
0.03204694
0.03179112
0.03156626
0.03138604
0.03130279
0.03123843
0.03095181
0.03068532
0.03057905
0.03044250
0.03016677
0.02998153
0.02983385
0.02961911
0.02934252
0.02909330
0.02885236
0.02859891
0.02845595
0.02816605
0.02797734
0.02780613
0.02777442
0.02785958
0.02814116
0.02883045
0.02970831
0.03058961
0.03184080
0.03305537
0.03425897
0.03551904
0.03679537
0.03799139
0.03911345
0.04016300
0.04126763
0.04233581
0.04346654
0.04466329
0.04550473
0.04654818
0.04758243
0.04750597
0.04751569
0.04673717
0.04583411
0.04468954
0.04333171
0.04216011
0.04206185
0.04342576
0.04698821
0.05330071
0.05983795
0.05754651
0.04430275
0.03316076
0.02634738
0.02204328
0.01921865
0.01737384
0.01599173
0.01495133
0.01428025
0.01376940
0.01350067
0.01341524
0.01346965
0.01358013
0.01376743
0.01406139
0.01450692
0.01523737
0.01619340
0.01736818
0.01865973
0.02006860
0.02182213
0.02348334
0.02486011
0.02630748
0.02779666
0.02880254
0.02982159
0.03081393
0.03185327
0.03284924
0.03359580
0.03428534
0.03486697
0.03539485
0.03583495
0.03604480
0.03622596
0.03644614
0.03654785
0.03642089
0.03619116
0.03600391
0.03597025
0.03587302
0.03575031
0.03568727
0.03553018
0.03545731
0.03543210
0.03543098
0.03544770
0.03543424
0.03514729
0.03488263
0.03446345
0.03403448
0.03362217
0.03331769
0.03325900
0.03310541
0.03303302
0.03281803
0.03260621
0.03235212
0.03208746
0.03191091
0.03181215
0.03171127
0.03142350
0.03114396
0.03102101
0.03089988
0.03065358
0.03045713
0.03028275
0.03005203
0.02980090
0.02954725
0.02932108
0.02904127
0.02889427
0.02862848
0.02840415
0.02823818
0.02821760
0.02829239
0.02852202
0.02911458
0.02995414
0.03080638
0.03197312
0.03308788
0.03426870
0.03550345
0.03672643
0.03792411
0.03904243
0.04011757
0.04121248
0.04232515
0.04338505
0.04449686
0.04534108
0.04642155
0.04732851
0.04732202
0.04717138
0.04647400
0.04562804
0.04459252
0.04339133
0.04227353
0.04190309
0.04275568
0.04563979
0.05158650
0.05912350
0.06028453
0.04908118
0.03690633
0.02902669
0.02396048
0.02062464
0.01841439
0.01679477
0.01560372
0.01481043
0.01420677
0.01387718
0.01374487
0.01381262
0.01393670
0.01413754
0.01446719
0.01495373
0.01572538
0.01673397
0.01795641
0.01928050
0.02076976
0.02259861
0.02431398
0.02574426
0.02718386
0.02867689
0.02969240
0.03068355
0.03166079
0.03269827
0.03370038
0.03443581
0.03513437
0.03578539
0.03634635
0.03674634
0.03691448
0.03707627
0.03729638
0.03738918
0.03724426
0.03701290
0.03685416
0.03691602
0.03681589
0.03669378
0.03658125
0.03637558
0.03632478
0.03624936
0.03624727
0.03625079
0.03614032
0.03585463
0.03562551
0.03517872
0.03476918
0.03432359
0.03403391
0.03397672
0.03381928
0.03367079
0.03343154
0.03318137
0.03292878
0.03263719
0.03246163
0.03235904
0.03220618
0.03193075
0.03162174
0.03147309
0.03135072
0.03113188
0.03091419
0.03072202
0.03045574
0.03022574
0.02999965
0.02978670
0.02949693
0.02931564
0.02908039
0.02883147
0.02867096
0.02865701
0.02873752
0.02890433
0.02942808
0.03021162
0.03103279
0.03210129
0.03311123
0.03427403
0.03546994
0.03662611
0.03782004
0.03894090
0.04003073
0.04110717
0.04219551
0.04332159
0.04433210
0.04523057
0.04616325
0.04654721
0.04707100
0.04677786
0.04615993
0.04537048
0.04444138
0.04337000
0.04232550
0.04177344
0.04221809
0.04445909
0.04986041
0.05785476
0.06198589
0.05368119
0.04102468
0.03210974
0.02619311
0.02226493
0.01962682
0.01773728
0.01636664
0.01543030
0.01473618
0.01433109
0.01414803
0.01420324
0.01434251
0.01456497
0.01491799
0.01545749
0.01627173
0.01732454
0.01856662
0.01991476
0.02149966
0.02340737
0.02517503
0.02665610
0.02810877
0.02959304
0.03059012
0.03156322
0.03254081
0.03357904
0.03461825
0.03534037
0.03605104
0.03672025
0.03729749
0.03768357
0.03781892
0.03796582
0.03816229
0.03828599
0.03810977
0.03783416
0.03777133
0.03792352
0.03783241
0.03772208
0.03751373
0.03728264
0.03723025
0.03708985
0.03710487
0.03706178
0.03687967
0.03661679
0.03641618
0.03593401
0.03552774
0.03505630
0.03479594
0.03470394
0.03454943
0.03433432
0.03406439
0.03377960
0.03352641
0.03321582
0.03303759
0.03292769
0.03273677
0.03245702
0.03212327
0.03193574
0.03180785
0.03159650
0.03134726
0.03114816
0.03085566
0.03063172
0.03046286
0.03025407
0.02996046
0.02974454
0.02952321
0.02926216
0.02912301
0.02910430
0.02919261
0.02931097
0.02979096
0.03048770
0.03127818
0.03222624
0.03313870
0.03428001
0.03542402
0.03651599
0.03769693
0.03881431
0.03988912
0.04098283
0.04204697
0.04314581
0.04415607
0.04524850
0.04614608
0.04649710
0.04679318
0.04639564
0.04581538
0.04506911
0.04423154
0.04327686
0.04231268
0.04163546
0.04178544
0.04345443
0.04817730
0.05617748
0.06264883
0.05780080
0.04544618
0.03558507
0.02874778
0.02417952
0.02105046
0.01885752
0.01726518
0.01616256
0.01536482
0.01487370
0.01462869
0.01465980
0.01480671
0.01504909
0.01541872
0.01601077
0.01686660
0.01794758
0.01920451
0.02058285
0.02225128
0.02420805
0.02602604
0.02758598
0.02907150
0.03053641
0.03150073
0.03250427
0.03346916
0.03450862
0.03557999
0.03632493
0.03702009
0.03767371
0.03825303
0.03864650
0.03874071
0.03888352
0.03906485
0.03922884
0.03901852
0.03870332
0.03878790
0.03899673
0.03892027
0.03879038
0.03846164
0.03822845
0.03812031
0.03798510
0.03800003
0.03790476
0.03766875
0.03742543
0.03723130
0.03673105
0.03631720
0.03584756
0.03560385
0.03545180
0.03527829
0.03502133
0.03471742
0.03441280
0.03413357
0.03381814
0.03362625
0.03350546
0.03330452
0.03301237
0.03265939
0.03241732
0.03227136
0.03204965
0.03177823
0.03157833
0.03127422
0.03106953
0.03093695
0.03072527
0.03042225
0.03018726
0.02996655
0.02969885
0.02958169
0.02957491
0.02963812
0.02975405
0.03018385
0.03079409
0.03153555
0.03235144
0.03319883
0.03429857
0.03538277
0.03641483
0.03757533
0.03867244
0.03972705
0.04082200
0.04189989
0.04295324
0.04395794
0.04514477
0.04584921
0.04623419
0.04639675
0.04600446
0.04542913
0.04473962
0.04398490
0.04312698
0.04223909
0.04146826
0.04142176
0.04261355
0.04657879
0.05425154
0.06237791
0.06119028
0.05000431
0.03942967
0.03167208
0.02640393
0.02274006
0.02017733
0.01832318
0.01702705
0.01608450
0.01550741
0.01520286
0.01519049
0.01533792
0.01557689
0.01598247
0.01662457