/*--------------------------------*- C++ -*----------------------------------*\
  =========                 |
  \\      /  F ield         | OpenFOAM: The Open Source CFD Toolbox
   \\    /   O peration     | Website:  https://openfoam.org
    \\  /    A nd           | Version:  7
     \\/     M anipulation  |
\*---------------------------------------------------------------------------*/
FoamFile
{
    version     2.0;
    format      ascii;
    class       volSymmTensorField;
    location    "0";
    object      tauij_LES;
}
// * * * * * * * * * * * * * * * * * * * * * * * * * * * * * * * * * * * * * //

dimensions      [0 2 -2 0 0 0 0];

internalField   nonuniform List<symmTensor>
15600
(
(0.00636864 -0.00010769 0.00000000 0.00005317 0.00000000 0.00391820)
(0.00713819 -0.00010800 0.00000000 0.00005661 0.00000000 0.00392138)
(0.00142263 0.00006187 0.00000000 -0.00002455 0.00000000 0.00070507)
(0.00064269 0.00001800 0.00000000 -0.00005522 0.00000000 0.00079842)
(0.00060078 -0.00026655 0.00000000 0.00014230 0.00000000 0.00149794)
(0.00033555 -0.00016281 0.00000000 0.00009138 0.00000000 0.00026145)
(0.00085725 -0.00068227 0.00000000 0.00054985 0.00000000 0.00180281)
(0.00031050 -0.00023855 0.00000000 0.00018435 0.00000000 0.00100734)
(0.00018361 -0.00025852 0.00000000 0.00033713 0.00000000 0.00063417)
(0.00014044 -0.00023535 0.00000000 0.00032859 0.00000000 0.00081062)
(0.00011695 -0.00018525 0.00000000 0.00025951 0.00000000 0.00084139)
(0.00013315 -0.00012442 0.00000000 0.00012526 0.00000000 0.00062935)
(0.00028692 -0.00020150 0.00000000 0.00013725 0.00000000 0.00064493)
(0.00019786 -0.00009873 0.00000000 0.00003496 0.00000000 0.00037183)
(0.00009612 -0.00005084 0.00000000 0.00002808 0.00000000 0.00017161)
(0.00022875 -0.00016514 0.00000000 0.00011977 0.00000000 0.00058260)
(0.00013037 -0.00004782 0.00000000 0.00000356 0.00000000 0.00023107)
(0.00027981 -0.00019919 0.00000000 0.00014533 0.00000000 0.00060912)
(0.00025631 -0.00013167 0.00000000 0.00006228 0.00000000 0.00038899)
(0.00043908 -0.00023543 0.00000000 0.00012003 0.00000000 0.00050960)
(0.00039295 -0.00021853 0.00000000 0.00012472 0.00000000 0.00064294)
(0.00052666 -0.00026362 0.00000000 0.00013460 0.00000000 0.00067226)
(0.00044867 -0.00021592 0.00000000 0.00010547 0.00000000 0.00053031)
(0.00077159 -0.00021128 0.00000000 0.00006134 0.00000000 0.00103383)
(0.00081953 -0.00025384 0.00000000 0.00008584 0.00000000 0.00135867)
(0.00081211 -0.00019727 0.00000000 0.00006093 0.00000000 0.00106953)
(0.00088483 -0.00005826 0.00000000 0.00000691 0.00000000 0.00085892)
(0.00087229 -0.00000019 0.00000000 0.00000162 0.00000000 0.00081628)
(0.00075336 0.00000062 0.00000000 -0.00000113 0.00000000 0.00062834)
(0.00093595 0.00000147 0.00000000 -0.00000101 0.00000000 0.00075180)
(0.00114965 0.00000323 0.00000000 0.00000054 0.00000000 0.00093602)
(0.00116582 0.00000262 0.00000000 -0.00000170 0.00000000 0.00103361)
(0.00120747 0.00000376 0.00000000 -0.00000119 0.00000000 0.00119423)
(0.00124684 0.00000223 0.00000000 -0.00000188 0.00000000 0.00129898)
(0.00133567 0.00000245 0.00000000 -0.00000213 0.00000000 0.00134982)
(0.00144688 0.00000376 0.00000000 -0.00000022 0.00000000 0.00147016)
(0.00152190 0.00000402 0.00000000 0.00000015 0.00000000 0.00156542)
(0.00151746 0.00000303 0.00000000 -0.00000227 0.00000000 0.00160227)
(0.00160936 0.00000271 0.00000000 -0.00000194 0.00000000 0.00169572)
(0.00163557 0.00000395 0.00000000 -0.00000203 0.00000000 0.00174784)
(0.00167746 0.00000300 0.00000000 -0.00000216 0.00000000 0.00181899)
(0.00172749 0.00000403 0.00000000 -0.00000192 0.00000000 0.00191093)
(0.00170038 0.00000372 0.00000000 -0.00000166 0.00000000 0.00196890)
(0.00166066 0.00000238 0.00000000 -0.00000110 0.00000000 0.00201550)
(0.00165113 0.00000201 0.00000000 -0.00000258 0.00000000 0.00194590)
(0.00164296 0.00000250 0.00000000 -0.00000221 0.00000000 0.00198413)
(0.00160202 0.00000237 0.00000000 -0.00000290 0.00000000 0.00197278)
(0.00157420 0.00000152 0.00000000 -0.00000220 0.00000000 0.00199472)
(0.00160021 0.00000078 0.00000000 -0.00000157 0.00000000 0.00196271)
(0.00152796 0.00000086 0.00000000 -0.00000293 0.00000000 0.00185941)
(0.00151150 0.00000025 0.00000000 -0.00000235 0.00000000 0.00179618)
(0.00153076 0.00000044 0.00000000 -0.00000265 0.00000000 0.00175845)
(0.00154487 0.00000122 0.00000000 -0.00000262 0.00000000 0.00172510)
(0.00158127 0.00000052 0.00000000 0.00000069 0.00000000 0.00183050)
(0.00147698 0.00000029 0.00000000 -0.00000173 0.00000000 0.00175424)
(0.00149254 -0.00000063 0.00000000 -0.00000110 0.00000000 0.00176552)
(0.00145934 -0.00000004 0.00000000 -0.00000159 0.00000000 0.00172913)
(0.00141189 0.00000004 0.00000000 -0.00000220 0.00000000 0.00168774)
(0.00141347 -0.00000035 0.00000000 -0.00000226 0.00000000 0.00166770)
(0.00139438 0.00000035 0.00000000 -0.00000211 0.00000000 0.00159521)
(0.00138209 -0.00000003 0.00000000 -0.00000158 0.00000000 0.00159190)
(0.00134344 -0.00000070 0.00000000 -0.00000113 0.00000000 0.00157969)
(0.00131285 -0.00000062 0.00000000 -0.00000193 0.00000000 0.00151880)
(0.00131420 -0.00000030 0.00000000 -0.00000161 0.00000000 0.00149091)
(0.00129329 -0.00000049 0.00000000 -0.00000200 0.00000000 0.00144674)
(0.00133072 -0.00000196 0.00000000 0.00000073 0.00000000 0.00150421)
(0.00125172 -0.00000083 0.00000000 -0.00000123 0.00000000 0.00141644)
(0.00121348 -0.00000110 0.00000000 -0.00000083 0.00000000 0.00139094)
(0.00116843 -0.00000020 0.00000000 -0.00000187 0.00000000 0.00136961)
(0.00110450 -0.00000048 0.00000000 -0.00000168 0.00000000 0.00135801)
(0.00107699 -0.00000087 0.00000000 -0.00000165 0.00000000 0.00131836)
(0.00112672 -0.00000246 0.00000000 0.00000032 0.00000000 0.00136147)
(0.00107146 -0.00000178 0.00000000 -0.00000102 0.00000000 0.00125956)
(0.00103701 -0.00000040 0.00000000 -0.00000155 0.00000000 0.00122115)
(0.00106090 -0.00000117 0.00000000 -0.00000113 0.00000000 0.00122119)
(0.00106304 -0.00000065 0.00000000 -0.00000127 0.00000000 0.00120225)
(0.00102103 -0.00000080 0.00000000 -0.00000118 0.00000000 0.00119977)
(0.00101786 -0.00000203 0.00000000 0.00000001 0.00000000 0.00119819)
(0.00098207 -0.00000195 0.00000000 0.00000012 0.00000000 0.00116307)
(0.00091179 -0.00000107 0.00000000 -0.00000082 0.00000000 0.00109414)
(0.00086626 -0.00000045 0.00000000 -0.00000110 0.00000000 0.00104377)
(0.00081264 -0.00000060 0.00000000 -0.00000105 0.00000000 0.00101209)
(0.00077425 -0.00000020 0.00000000 -0.00000113 0.00000000 0.00098032)
(0.00079701 -0.00000160 0.00000000 -0.00000044 0.00000000 0.00098707)
(0.00081839 -0.00000165 0.00000000 0.00000006 0.00000000 0.00100017)
(0.00076025 -0.00000007 0.00000000 -0.00000114 0.00000000 0.00095042)
(0.00073089 -0.00000038 0.00000000 -0.00000101 0.00000000 0.00094445)
(0.00074657 -0.00000079 0.00000000 -0.00000075 0.00000000 0.00095148)
(0.00073688 -0.00000099 0.00000000 -0.00000028 0.00000000 0.00097371)
(0.00071127 -0.00000021 0.00000000 -0.00000075 0.00000000 0.00096156)
(0.00067007 -0.00000029 0.00000000 -0.00000072 0.00000000 0.00097693)
(0.00065852 -0.00000051 0.00000000 -0.00000034 0.00000000 0.00101430)
(0.00089726 0.00000217 0.00000000 0.00000178 0.00000000 0.00158081)
(0.00078215 0.00002419 0.00000000 0.00000229 0.00000000 0.00199884)
(0.00031679 0.00007706 0.00000000 0.00002395 0.00000000 0.00093592)
(0.00009927 0.00007027 0.00000000 0.00003857 0.00000000 0.00053147)
(0.00018249 0.00009340 0.00000000 0.00004298 0.00000000 0.00094662)
(0.00000592 0.00000379 0.00000000 0.00000162 0.00000000 0.00001046)
(0.00008091 0.00003688 0.00000000 0.00001588 0.00000000 0.00022311)
(0.00005602 0.00003994 0.00000000 0.00002523 0.00000000 0.00035525)
(-0.00016986 -0.00010799 0.00000000 -0.00007001 0.00000000 -0.00028244)
(-0.00002527 -0.00001259 0.00000000 -0.00000619 0.00000000 -0.00001269)
(-0.00011886 -0.00007133 0.00000000 -0.00004067 0.00000000 0.00011388)
(0.00000783 0.00001762 0.00000000 0.00002238 0.00000000 -0.00002320)
(-0.00012098 -0.00008758 0.00000000 -0.00006595 0.00000000 -0.00003282)
(-0.00000968 -0.00000614 0.00000000 -0.00000262 0.00000000 -0.00017034)
(-0.00002694 -0.00000643 0.00000000 0.00000793 0.00000000 -0.00008345)
(-0.00015783 -0.00011550 0.00000000 -0.00008791 0.00000000 -0.00020105)
(-0.00001941 -0.00001132 0.00000000 -0.00000658 0.00000000 -0.00007751)
(-0.00011759 -0.00012024 0.00000000 -0.00012336 0.00000000 -0.00093047)
(-0.00000261 -0.00002019 0.00000000 -0.00003538 0.00000000 -0.00059623)
(-0.00017672 -0.00018861 0.00000000 -0.00019515 0.00000000 -0.00119032)
(-0.00005330 -0.00003958 0.00000000 -0.00003021 0.00000000 -0.00000865)
(-0.00004300 -0.00004361 0.00000000 -0.00004370 0.00000000 0.00005557)
(-0.00013336 -0.00006365 0.00000000 -0.00003273 0.00000000 -0.00008681)
(0.00006481 0.00003025 0.00000000 0.00001328 0.00000000 0.00017925)
(-0.00061588 -0.00001157 0.00000000 0.00005555 0.00000000 -0.00018326)
(0.00011388 -0.00000421 0.00000000 -0.00000194 0.00000000 0.00024068)
(0.00319807 -0.00001237 0.00000000 0.00000952 0.00000000 0.00229689)
(0.00493435 -0.00005591 0.00000000 0.00002849 0.00000000 0.00333050)
(0.01337509 -0.00032055 0.00000000 0.00018178 0.00000000 0.00727108)
(0.01563141 -0.00040685 0.00000000 0.00026134 0.00000000 0.00805724)
(0.00640419 0.00000784 0.00000000 0.00000486 0.00000000 0.00304988)
(0.00233901 -0.00029251 0.00000000 0.00007520 0.00000000 0.00273098)
(0.00264787 -0.00119345 0.00000000 0.00064260 0.00000000 0.00415491)
(0.00227532 -0.00068725 0.00000000 0.00031601 0.00000000 0.00179276)
(0.00192943 -0.00163671 0.00000000 0.00146227 0.00000000 0.00395701)
(0.00076103 -0.00085890 0.00000000 0.00101564 0.00000000 0.00236736)
(0.00113248 -0.00097565 0.00000000 0.00091745 0.00000000 0.00176996)
(0.00119585 -0.00115843 0.00000000 0.00115420 0.00000000 0.00199137)
(0.00088513 -0.00089978 0.00000000 0.00094219 0.00000000 0.00182717)
(0.00066135 -0.00066685 0.00000000 0.00070497 0.00000000 0.00173154)
(0.00078762 -0.00068885 0.00000000 0.00064216 0.00000000 0.00173394)
(0.00098105 -0.00073727 0.00000000 0.00057113 0.00000000 0.00162030)
(0.00092888 -0.00066597 0.00000000 0.00049186 0.00000000 0.00128598)
(0.00102490 -0.00078683 0.00000000 0.00063657 0.00000000 0.00173587)
(0.00117356 -0.00082742 0.00000000 0.00059741 0.00000000 0.00157216)
(0.00121973 -0.00091299 0.00000000 0.00072414 0.00000000 0.00176498)
(0.00155586 -0.00105590 0.00000000 0.00074157 0.00000000 0.00192861)
(0.00171315 -0.00103241 0.00000000 0.00064645 0.00000000 0.00196761)
(0.00191074 -0.00111105 0.00000000 0.00068205 0.00000000 0.00247698)
(0.00227423 -0.00112222 0.00000000 0.00059606 0.00000000 0.00263883)
(0.00242186 -0.00112538 0.00000000 0.00056247 0.00000000 0.00268361)
(0.00285448 -0.00092425 0.00000000 0.00036476 0.00000000 0.00320238)
(0.00298312 -0.00079917 0.00000000 0.00029360 0.00000000 0.00355972)
(0.00326007 -0.00071978 0.00000000 0.00024184 0.00000000 0.00348192)
(0.00376061 -0.00035300 0.00000000 0.00011087 0.00000000 0.00339054)
(0.00364748 -0.00003070 0.00000000 0.00007148 0.00000000 0.00321504)
(0.00400461 0.00000827 0.00000000 0.00006615 0.00000000 0.00321334)
(0.00469759 0.00001776 0.00000000 0.00007939 0.00000000 0.00375090)
(0.00527143 0.00003552 0.00000000 0.00008948 0.00000000 0.00441618)
(0.00549055 0.00004206 0.00000000 0.00010507 0.00000000 0.00504817)
(0.00564990 0.00004672 0.00000000 0.00011268 0.00000000 0.00567853)
(0.00596422 0.00002501 0.00000000 0.00012141 0.00000000 0.00620218)
(0.00638116 0.00002909 0.00000000 0.00012753 0.00000000 0.00651698)
(0.00664747 0.00003815 0.00000000 0.00013068 0.00000000 0.00685393)
(0.00686239 0.00003053 0.00000000 0.00013804 0.00000000 0.00721897)
(0.00715614 0.00002159 0.00000000 0.00014757 0.00000000 0.00764234)
(0.00743015 0.00001647 0.00000000 0.00015367 0.00000000 0.00800411)
(0.00751831 0.00003120 0.00000000 0.00015627 0.00000000 0.00828084)
(0.00761505 0.00000660 0.00000000 0.00016436 0.00000000 0.00858991)
(0.00772123 0.00001557 0.00000000 0.00017139 0.00000000 0.00892410)
(0.00761158 0.00001566 0.00000000 0.00017177 0.00000000 0.00914826)
(0.00749200 -0.00000184 0.00000000 0.00016918 0.00000000 0.00930809)
(0.00760703 -0.00001070 0.00000000 0.00017314 0.00000000 0.00924840)
(0.00747258 -0.00001213 0.00000000 0.00017680 0.00000000 0.00930246)
(0.00727282 -0.00001733 0.00000000 0.00017874 0.00000000 0.00929970)
(0.00719946 -0.00003455 0.00000000 0.00017045 0.00000000 0.00929027)
(0.00734241 -0.00003561 0.00000000 0.00016279 0.00000000 0.00916206)
(0.00729042 -0.00003813 0.00000000 0.00015799 0.00000000 0.00886559)
(0.00726932 -0.00004651 0.00000000 0.00015355 0.00000000 0.00865063)
(0.00726558 -0.00005246 0.00000000 0.00015983 0.00000000 0.00841145)
(0.00729167 -0.00004480 0.00000000 0.00015562 0.00000000 0.00829917)
(0.00715885 -0.00003852 0.00000000 0.00015305 0.00000000 0.00832056)
(0.00698722 -0.00005634 0.00000000 0.00015091 0.00000000 0.00827862)
(0.00698450 -0.00006135 0.00000000 0.00014604 0.00000000 0.00828539)
(0.00691154 -0.00005921 0.00000000 0.00014475 0.00000000 0.00823762)
(0.00683582 -0.00006691 0.00000000 0.00014442 0.00000000 0.00812342)
(0.00686914 -0.00007536 0.00000000 0.00014104 0.00000000 0.00804291)
(0.00679965 -0.00006587 0.00000000 0.00013923 0.00000000 0.00779966)
(0.00668084 -0.00006502 0.00000000 0.00013382 0.00000000 0.00771250)
(0.00657741 -0.00007563 0.00000000 0.00013060 0.00000000 0.00756094)
(0.00659698 -0.00008201 0.00000000 0.00012555 0.00000000 0.00746240)
(0.00657962 -0.00007945 0.00000000 0.00012253 0.00000000 0.00729674)
(0.00654663 -0.00008377 0.00000000 0.00011982 0.00000000 0.00717918)
(0.00641804 -0.00007627 0.00000000 0.00011741 0.00000000 0.00703663)
(0.00633590 -0.00007822 0.00000000 0.00011434 0.00000000 0.00689594)
(0.00615771 -0.00007786 0.00000000 0.00010886 0.00000000 0.00674087)
(0.00600627 -0.00007240 0.00000000 0.00011132 0.00000000 0.00673180)
(0.00574414 -0.00007953 0.00000000 0.00010770 0.00000000 0.00665719)
(0.00569985 -0.00009098 0.00000000 0.00010434 0.00000000 0.00652818)
(0.00566193 -0.00008341 0.00000000 0.00009595 0.00000000 0.00646919)
(0.00564213 -0.00009188 0.00000000 0.00009250 0.00000000 0.00629162)
(0.00561374 -0.00008519 0.00000000 0.00009299 0.00000000 0.00620683)
(0.00566699 -0.00009024 0.00000000 0.00009102 0.00000000 0.00615918)
(0.00565752 -0.00008637 0.00000000 0.00009124 0.00000000 0.00612083)
(0.00545922 -0.00008373 0.00000000 0.00008815 0.00000000 0.00604873)
(0.00530157 -0.00007952 0.00000000 0.00008128 0.00000000 0.00586717)
(0.00511385 -0.00007871 0.00000000 0.00007888 0.00000000 0.00567496)
(0.00495947 -0.00007977 0.00000000 0.00007743 0.00000000 0.00554216)
(0.00477508 -0.00007206 0.00000000 0.00007560 0.00000000 0.00536167)
(0.00452501 -0.00007252 0.00000000 0.00007158 0.00000000 0.00520414)
(0.00438388 -0.00007204 0.00000000 0.00007094 0.00000000 0.00508575)
(0.00434475 -0.00008026 0.00000000 0.00006890 0.00000000 0.00500030)
(0.00429987 -0.00007128 0.00000000 0.00006526 0.00000000 0.00497956)
(0.00419910 -0.00006761 0.00000000 0.00006800 0.00000000 0.00496230)
(0.00404813 -0.00006807 0.00000000 0.00006591 0.00000000 0.00490572)
(0.00401163 -0.00006831 0.00000000 0.00006442 0.00000000 0.00491729)
(0.00386130 -0.00006156 0.00000000 0.00006334 0.00000000 0.00493729)
(0.00370805 -0.00005517 0.00000000 0.00006420 0.00000000 0.00498322)
(0.00346812 -0.00005483 0.00000000 0.00006211 0.00000000 0.00509351)
(0.00329151 -0.00004964 0.00000000 0.00006143 0.00000000 0.00524567)
(0.00341307 -0.00002772 0.00000000 0.00008638 0.00000000 0.00653023)
(0.00317303 0.00027080 0.00000000 0.00010400 0.00000000 0.00739413)
(0.00313573 0.00063587 0.00000000 0.00019890 0.00000000 0.00688681)
(0.00300914 0.00103292 0.00000000 0.00042489 0.00000000 0.00668197)
(0.00266358 0.00098622 0.00000000 0.00042434 0.00000000 0.00713299)
(0.00173900 0.00083814 0.00000000 0.00042106 0.00000000 0.00380229)
(0.00184686 0.00097950 0.00000000 0.00054262 0.00000000 0.00524926)
(0.00073145 0.00054344 0.00000000 0.00043090 0.00000000 0.00417932)
(0.00054561 0.00035383 0.00000000 0.00023015 0.00000000 0.00287688)
(0.00015869 0.00018429 0.00000000 0.00020762 0.00000000 0.00266632)
(0.00036545 0.00033484 0.00000000 0.00031987 0.00000000 0.00241269)
(0.00014180 0.00011113 0.00000000 0.00009273 0.00000000 0.00196532)
(0.00025663 0.00033228 0.00000000 0.00038039 0.00000000 0.00320475)
(0.00018330 0.00009753 0.00000000 0.00003850 0.00000000 0.00140494)
(-0.00018461 -0.00010679 0.00000000 -0.00005444 0.00000000 0.00091228)
(-0.00004911 0.00001256 0.00000000 0.00005705 0.00000000 0.00094919)
(0.00004561 0.00004593 0.00000000 0.00004621 0.00000000 0.00035711)
(-0.00017769 -0.00021852 0.00000000 -0.00024348 0.00000000 -0.00060416)
(0.00000541 -0.00006726 0.00000000 -0.00011488 0.00000000 0.00001264)
(0.00002027 -0.00005484 0.00000000 -0.00011049 0.00000000 -0.00004121)
(-0.00008002 -0.00003554 0.00000000 -0.00000303 0.00000000 0.00008337)
(-0.00025402 -0.00023934 0.00000000 -0.00021551 0.00000000 0.00144305)
(-0.00041387 -0.00014665 0.00000000 -0.00005340 0.00000000 0.00052583)
(0.00097227 0.00050331 0.00000000 0.00028906 0.00000000 0.00232715)
(-0.00028621 0.00047475 0.00000000 0.00035166 0.00000000 0.00048350)
(0.00284628 0.00015937 0.00000000 0.00001596 0.00000000 0.00167177)
(0.00943433 -0.00001924 0.00000000 0.00004901 0.00000000 0.00508486)
(0.01104025 -0.00015981 0.00000000 0.00009535 0.00000000 0.00623432)
(0.02226064 -0.00065457 0.00000000 0.00039721 0.00000000 0.01046364)
(0.02557631 -0.00090822 0.00000000 0.00062162 0.00000000 0.01201861)
(0.01654895 -0.00052397 0.00000000 0.00024554 0.00000000 0.00750985)
(0.00579578 -0.00150578 0.00000000 0.00070713 0.00000000 0.00603557)
(0.00528036 -0.00236389 0.00000000 0.00140746 0.00000000 0.00743112)
(0.00494599 -0.00181655 0.00000000 0.00105217 0.00000000 0.00463365)
(0.00317481 -0.00259168 0.00000000 0.00249379 0.00000000 0.00602024)
(0.00211449 -0.00212534 0.00000000 0.00235774 0.00000000 0.00417094)
(0.00278052 -0.00214565 0.00000000 0.00182930 0.00000000 0.00377960)
(0.00239732 -0.00208876 0.00000000 0.00193940 0.00000000 0.00373469)
(0.00222880 -0.00196597 0.00000000 0.00183967 0.00000000 0.00337016)
(0.00206558 -0.00182224 0.00000000 0.00170720 0.00000000 0.00314496)
(0.00193409 -0.00165375 0.00000000 0.00152584 0.00000000 0.00306585)
(0.00216755 -0.00166839 0.00000000 0.00137608 0.00000000 0.00301279)
(0.00228154 -0.00169850 0.00000000 0.00133033 0.00000000 0.00284350)
(0.00238557 -0.00181009 0.00000000 0.00146504 0.00000000 0.00303892)
(0.00266540 -0.00196271 0.00000000 0.00152979 0.00000000 0.00302898)
(0.00295018 -0.00212972 0.00000000 0.00164774 0.00000000 0.00320684)
(0.00320207 -0.00219473 0.00000000 0.00162147 0.00000000 0.00350077)
(0.00347731 -0.00214201 0.00000000 0.00143049 0.00000000 0.00371826)
(0.00368700 -0.00211726 0.00000000 0.00136126 0.00000000 0.00428151)
(0.00411423 -0.00203354 0.00000000 0.00116740 0.00000000 0.00459707)
(0.00451097 -0.00198158 0.00000000 0.00104758 0.00000000 0.00486297)
(0.00507689 -0.00167805 0.00000000 0.00079201 0.00000000 0.00533571)
(0.00535661 -0.00139539 0.00000000 0.00061931 0.00000000 0.00555027)
(0.00572385 -0.00107831 0.00000000 0.00048364 0.00000000 0.00568890)
(0.00618387 -0.00059632 0.00000000 0.00035455 0.00000000 0.00565253)
(0.00657579 -0.00007494 0.00000000 0.00029767 0.00000000 0.00550905)
(0.00746845 -0.00001092 0.00000000 0.00031038 0.00000000 0.00589602)
(0.00835493 0.00000903 0.00000000 0.00036906 0.00000000 0.00680114)
(0.00903000 0.00004169 0.00000000 0.00041901 0.00000000 0.00788194)
(0.00934195 0.00004717 0.00000000 0.00046799 0.00000000 0.00888603)
(0.00965081 0.00003712 0.00000000 0.00051016 0.00000000 0.00986958)
(0.01018286 -0.00001379 0.00000000 0.00054864 0.00000000 0.01074408)
(0.01083362 -0.00000683 0.00000000 0.00056751 0.00000000 0.01134743)
(0.01117865 0.00000413 0.00000000 0.00059888 0.00000000 0.01187303)
(0.01152377 -0.00002741 0.00000000 0.00062500 0.00000000 0.01245900)
(0.01204273 -0.00005382 0.00000000 0.00065834 0.00000000 0.01310384)
(0.01239936 -0.00005417 0.00000000 0.00068165 0.00000000 0.01370382)
(0.01252433 -0.00003035 0.00000000 0.00069589 0.00000000 0.01419155)
(0.01262899 -0.00009095 0.00000000 0.00071807 0.00000000 0.01474573)
(0.01278163 -0.00007717 0.00000000 0.00074852 0.00000000 0.01523587)
(0.01268193 -0.00006822 0.00000000 0.00074808 0.00000000 0.01559930)
(0.01264100 -0.00010817 0.00000000 0.00074718 0.00000000 0.01586506)
(0.01283112 -0.00011527 0.00000000 0.00074799 0.00000000 0.01590275)
(0.01259273 -0.00012039 0.00000000 0.00076411 0.00000000 0.01588914)
(0.01230499 -0.00013766 0.00000000 0.00075604 0.00000000 0.01591129)
(0.01229290 -0.00018769 0.00000000 0.00074120 0.00000000 0.01582704)
(0.01252993 -0.00018164 0.00000000 0.00072447 0.00000000 0.01563309)
(0.01262410 -0.00018091 0.00000000 0.00069891 0.00000000 0.01523256)
(0.01264096 -0.00018701 0.00000000 0.00068299 0.00000000 0.01498631)
(0.01258537 -0.00020279 0.00000000 0.00069952 0.00000000 0.01455037)
(0.01257081 -0.00018879 0.00000000 0.00067824 0.00000000 0.01436611)
(0.01237617 -0.00017374 0.00000000 0.00067903 0.00000000 0.01432736)
(0.01214249 -0.00021892 0.00000000 0.00067484 0.00000000 0.01428188)
(0.01210137 -0.00022252 0.00000000 0.00065445 0.00000000 0.01433674)
(0.01202981 -0.00022008 0.00000000 0.00064824 0.00000000 0.01431650)
(0.01201604 -0.00024201 0.00000000 0.00064906 0.00000000 0.01413469)
(0.01210686 -0.00025535 0.00000000 0.00063362 0.00000000 0.01402080)
(0.01199638 -0.00023284 0.00000000 0.00061860 0.00000000 0.01368175)
(0.01184063 -0.00023037 0.00000000 0.00060656 0.00000000 0.01353871)
(0.01183385 -0.00026215 0.00000000 0.00059067 0.00000000 0.01330282)
(0.01191396 -0.00027018 0.00000000 0.00056828 0.00000000 0.01318587)
(0.01192630 -0.00027164 0.00000000 0.00056036 0.00000000 0.01290484)
(0.01190840 -0.00027289 0.00000000 0.00054239 0.00000000 0.01274125)
(0.01179688 -0.00025964 0.00000000 0.00053188 0.00000000 0.01249279)
(0.01170856 -0.00025633 0.00000000 0.00051799 0.00000000 0.01227815)
(0.01143437 -0.00025311 0.00000000 0.00050094 0.00000000 0.01202971)
(0.01112200 -0.00023482 0.00000000 0.00050347 0.00000000 0.01199109)
(0.01074596 -0.00025942 0.00000000 0.00049092 0.00000000 0.01185803)
(0.01073799 -0.00028787 0.00000000 0.00047404 0.00000000 0.01168563)
(0.01070905 -0.00026961 0.00000000 0.00044714 0.00000000 0.01162028)
(0.01070668 -0.00028381 0.00000000 0.00042782 0.00000000 0.01144002)
(0.01073681 -0.00027833 0.00000000 0.00042431 0.00000000 0.01131412)
(0.01083421 -0.00028891 0.00000000 0.00042348 0.00000000 0.01124745)
(0.01077759 -0.00027776 0.00000000 0.00041930 0.00000000 0.01119385)
(0.01052278 -0.00027547 0.00000000 0.00040771 0.00000000 0.01107219)
(0.01029062 -0.00025772 0.00000000 0.00038398 0.00000000 0.01078649)
(0.01001759 -0.00026073 0.00000000 0.00037322 0.00000000 0.01045842)
(0.00978029 -0.00025685 0.00000000 0.00036038 0.00000000 0.01026326)
(0.00945208 -0.00023715 0.00000000 0.00035060 0.00000000 0.00996988)
(0.00906022 -0.00023895 0.00000000 0.00033713 0.00000000 0.00968346)
(0.00882534 -0.00024135 0.00000000 0.00032900 0.00000000 0.00949000)
(0.00874072 -0.00025955 0.00000000 0.00032042 0.00000000 0.00937779)
(0.00860660 -0.00024700 0.00000000 0.00031730 0.00000000 0.00935717)
(0.00840310 -0.00023047 0.00000000 0.00031493 0.00000000 0.00935261)
(0.00814941 -0.00023301 0.00000000 0.00030962 0.00000000 0.00925428)
(0.00797884 -0.00023429 0.00000000 0.00030636 0.00000000 0.00927104)
(0.00769314 -0.00021709 0.00000000 0.00030113 0.00000000 0.00933107)
(0.00731926 -0.00019616 0.00000000 0.00029830 0.00000000 0.00943240)
(0.00683513 -0.00019596 0.00000000 0.00029403 0.00000000 0.00965704)
(0.00639967 -0.00018557 0.00000000 0.00029165 0.00000000 0.00998855)
(0.00603399 -0.00008621 0.00000000 0.00033408 0.00000000 0.01145717)
(0.00592511 0.00044182 0.00000000 0.00037263 0.00000000 0.01277275)
(0.00587945 0.00104616 0.00000000 0.00052332 0.00000000 0.01337793)
(0.00607390 0.00156771 0.00000000 0.00073866 0.00000000 0.01398802)
(0.00583587 0.00200352 0.00000000 0.00099863 0.00000000 0.01461182)
(0.00556701 0.00251716 0.00000000 0.00135176 0.00000000 0.01294548)
(0.00512206 0.00256513 0.00000000 0.00150193 0.00000000 0.01434220)
(0.00420162 0.00284232 0.00000000 0.00211995 0.00000000 0.01263305)
(0.00323631 0.00216074 0.00000000 0.00160344 0.00000000 0.01194405)
(0.00271282 0.00221440 0.00000000 0.00191351 0.00000000 0.01027623)
(0.00292425 0.00214330 0.00000000 0.00165491 0.00000000 0.01045057)
(0.00162804 0.00146067 0.00000000 0.00138525 0.00000000 0.00909329)
(0.00230464 0.00183312 0.00000000 0.00154394 0.00000000 0.00927072)
(0.00114809 0.00093333 0.00000000 0.00081928 0.00000000 0.00754801)
(0.00089637 0.00097859 0.00000000 0.00103513 0.00000000 0.00722474)
(0.00080075 0.00071362 0.00000000 0.00068606 0.00000000 0.00545533)
(0.00076312 0.00050855 0.00000000 0.00035636 0.00000000 0.00427904)
(0.00074132 0.00045740 0.00000000 0.00026544 0.00000000 0.00500759)
(0.00101643 0.00071132 0.00000000 0.00048533 0.00000000 0.00624789)
(0.00142659 0.00096578 0.00000000 0.00061716 0.00000000 0.00642597)
(0.00028012 0.00028640 0.00000000 0.00028239 0.00000000 0.00178315)
(0.00080989 0.00105125 0.00000000 0.00118757 0.00000000 0.00729185)
(0.00207299 0.00089510 0.00000000 0.00040784 0.00000000 0.00568807)
(0.00377233 0.00204722 0.00000000 0.00114638 0.00000000 0.00696357)
(0.00762774 0.00294150 0.00000000 0.00110171 0.00000000 0.00628337)
(0.01227774 0.00080502 0.00000000 0.00010123 0.00000000 0.00559270)
(0.01851802 0.00002490 0.00000000 0.00012782 0.00000000 0.00816929)
(0.01959714 -0.00031963 0.00000000 0.00021345 0.00000000 0.00913467)
(0.03190072 -0.00108593 0.00000000 0.00069565 0.00000000 0.01256689)
(0.03506780 -0.00157802 0.00000000 0.00112515 0.00000000 0.01453912)
(0.02969475 -0.00146879 0.00000000 0.00074847 0.00000000 0.01283205)
(0.01138096 -0.00315655 0.00000000 0.00156960 0.00000000 0.00959202)
(0.00709681 -0.00311387 0.00000000 0.00226466 0.00000000 0.00987553)
(0.00743067 -0.00332831 0.00000000 0.00233080 0.00000000 0.00823472)
(0.00448763 -0.00369375 0.00000000 0.00384127 0.00000000 0.00815754)
(0.00453405 -0.00398610 0.00000000 0.00396746 0.00000000 0.00621410)
(0.00445763 -0.00335821 0.00000000 0.00287499 0.00000000 0.00623294)
(0.00358791 -0.00291574 0.00000000 0.00267212 0.00000000 0.00565938)
(0.00349394 -0.00280888 0.00000000 0.00252134 0.00000000 0.00520666)
(0.00342334 -0.00273206 0.00000000 0.00243297 0.00000000 0.00478015)
(0.00345073 -0.00276970 0.00000000 0.00245563 0.00000000 0.00457661)
(0.00343557 -0.00262609 0.00000000 0.00221512 0.00000000 0.00434681)
(0.00356347 -0.00267636 0.00000000 0.00219399 0.00000000 0.00420468)
(0.00380168 -0.00280109 0.00000000 0.00226538 0.00000000 0.00434273)
(0.00402917 -0.00297672 0.00000000 0.00241643 0.00000000 0.00435191)
(0.00442093 -0.00310674 0.00000000 0.00243410 0.00000000 0.00454956)
(0.00466812 -0.00318447 0.00000000 0.00244985 0.00000000 0.00487632)
(0.00508656 -0.00311574 0.00000000 0.00219920 0.00000000 0.00526045)
(0.00529577 -0.00299264 0.00000000 0.00203791 0.00000000 0.00580327)
(0.00585885 -0.00279083 0.00000000 0.00171311 0.00000000 0.00629828)
(0.00625665 -0.00259866 0.00000000 0.00149924 0.00000000 0.00661775)
(0.00679000 -0.00218696 0.00000000 0.00122418 0.00000000 0.00691924)
(0.00725659 -0.00176743 0.00000000 0.00098669 0.00000000 0.00710356)
(0.00764365 -0.00129728 0.00000000 0.00082702 0.00000000 0.00722751)
(0.00813367 -0.00073204 0.00000000 0.00070949 0.00000000 0.00725847)
(0.00889557 -0.00017740 0.00000000 0.00068084 0.00000000 0.00726053)
(0.00995622 -0.00008091 0.00000000 0.00075279 0.00000000 0.00790046)
(0.01073992 -0.00006237 0.00000000 0.00088538 0.00000000 0.00903041)
(0.01137607 -0.00004140 0.00000000 0.00099142 0.00000000 0.01032560)
(0.01176878 -0.00005027 0.00000000 0.00109307 0.00000000 0.01151594)
(0.01218561 -0.00009261 0.00000000 0.00118692 0.00000000 0.01270826)
(0.01280359 -0.00017247 0.00000000 0.00127499 0.00000000 0.01376984)
(0.01352881 -0.00016773 0.00000000 0.00131649 0.00000000 0.01457893)
(0.01396041 -0.00016191 0.00000000 0.00138149 0.00000000 0.01525044)
(0.01442933 -0.00022744 0.00000000 0.00143519 0.00000000 0.01594380)
(0.01507053 -0.00026905 0.00000000 0.00149964 0.00000000 0.01669631)
(0.01543609 -0.00025264 0.00000000 0.00155084 0.00000000 0.01744912)
(0.01555679 -0.00022954 0.00000000 0.00159414 0.00000000 0.01803342)
(0.01567529 -0.00032212 0.00000000 0.00162696 0.00000000 0.01875787)
(0.01590334 -0.00030464 0.00000000 0.00168320 0.00000000 0.01932134)
(0.01587169 -0.00028455 0.00000000 0.00168923 0.00000000 0.01979888)
(0.01597334 -0.00033858 0.00000000 0.00168897 0.00000000 0.02015820)
(0.01613126 -0.00033080 0.00000000 0.00168809 0.00000000 0.02027812)
(0.01588805 -0.00032896 0.00000000 0.00171817 0.00000000 0.02020721)
(0.01561080 -0.00037475 0.00000000 0.00170508 0.00000000 0.02016335)
(0.01570320 -0.00045059 0.00000000 0.00167873 0.00000000 0.02003949)
(0.01602455 -0.00043267 0.00000000 0.00163377 0.00000000 0.01987830)
(0.01618005 -0.00042059 0.00000000 0.00159463 0.00000000 0.01941225)
(0.01622300 -0.00040292 0.00000000 0.00156355 0.00000000 0.01919252)
(0.01615414 -0.00042922 0.00000000 0.00159464 0.00000000 0.01864362)
(0.01610153 -0.00040943 0.00000000 0.00154521 0.00000000 0.01843056)
(0.01590779 -0.00038257 0.00000000 0.00154689 0.00000000 0.01836108)
(0.01566586 -0.00045054 0.00000000 0.00154449 0.00000000 0.01831418)
(0.01557270 -0.00045669 0.00000000 0.00150656 0.00000000 0.01840680)
(0.01552811 -0.00045109 0.00000000 0.00149063 0.00000000 0.01843501)
(0.01559845 -0.00048551 0.00000000 0.00149803 0.00000000 0.01820612)
(0.01570646 -0.00049077 0.00000000 0.00146231 0.00000000 0.01805426)
(0.01557404 -0.00045639 0.00000000 0.00143192 0.00000000 0.01768153)
(0.01548661 -0.00045400 0.00000000 0.00139812 0.00000000 0.01756767)
(0.01553347 -0.00050440 0.00000000 0.00137059 0.00000000 0.01725503)
(0.01567181 -0.00050671 0.00000000 0.00132160 0.00000000 0.01715030)
(0.01574096 -0.00051318 0.00000000 0.00130395 0.00000000 0.01680520)