/*--------------------------------*- C++ -*----------------------------------*\
  =========                 |
  \\      /  F ield         | OpenFOAM: The Open Source CFD Toolbox
   \\    /   O peration     | Website:  https://openfoam.org
    \\  /    A nd           | Version:  7
     \\/     M anipulation  |
\*---------------------------------------------------------------------------*/
FoamFile
{
    version     2.0;
    format      ascii;
    class       volVectorField;
    location    "0";
    object      U_LES;
}
// * * * * * * * * * * * * * * * * * * * * * * * * * * * * * * * * * * * * * //

dimensions      [0 1 -1 0 0 0 0];

internalField   nonuniform List<vector>
15600
(
(0.02209951 0.00011581 0.00000000)
(0.01815400 -0.00009183 0.00000000)
(0.00563327 -0.00023988 0.00000000)
(-0.00510592 0.00025346 0.00000000)
(-0.00673253 0.00322627 0.00000000)
(-0.00176816 0.00104369 0.00000000)
(-0.00802058 0.00567316 0.00000000)
(-0.00546387 0.00396986 0.00000000)
(-0.00279308 0.00346116 0.00000000)
(-0.00311360 0.00391342 0.00000000)
(-0.00351930 0.00393703 0.00000000)
(-0.00336055 0.00284449 0.00000000)
(-0.00437779 0.00300715 0.00000000)
(-0.00457958 0.00257266 0.00000000)
(-0.00382104 0.00238531 0.00000000)
(-0.00718929 0.00508614 0.00000000)
(-0.00742578 0.00398887 0.00000000)
(-0.00989249 0.00711304 0.00000000)
(-0.01147356 0.00635336 0.00000000)
(-0.01276481 0.00717574 0.00000000)
(-0.01509549 0.00839814 0.00000000)
(-0.01695054 0.00866420 0.00000000)
(-0.01555278 0.00763755 0.00000000)
(-0.01736213 0.00537318 0.00000000)
(-0.01836509 0.00571197 0.00000000)
(-0.01732078 0.00437488 0.00000000)
(-0.01649783 0.00133712 0.00000000)
(-0.01783480 0.00027469 0.00000000)
(-0.01874045 0.00009315 0.00000000)
(-0.02354330 0.00008274 0.00000000)
(-0.02729518 0.00007678 0.00000000)
(-0.03027848 0.00003999 0.00000000)
(-0.03209039 0.00003110 0.00000000)
(-0.03331022 0.00001509 0.00000000)
(-0.03401461 0.00001342 0.00000000)
(-0.03464058 0.00001530 0.00000000)
(-0.03514501 0.00000666 0.00000000)
(-0.03547017 -0.00000181 0.00000000)
(-0.03518844 -0.00000714 0.00000000)
(-0.03482957 -0.00000774 0.00000000)
(-0.03420916 -0.00001111 0.00000000)
(-0.03291930 -0.00003009 0.00000000)
(-0.03117505 -0.00003907 0.00000000)
(-0.02911805 -0.00003820 0.00000000)
(-0.02784760 -0.00001480 0.00000000)
(-0.02667555 -0.00003054 0.00000000)
(-0.02486321 -0.00003721 0.00000000)
(-0.02262889 -0.00004242 0.00000000)
(-0.02044273 -0.00004539 0.00000000)
(-0.01848738 -0.00003020 0.00000000)
(-0.01714942 -0.00002198 0.00000000)
(-0.01592071 -0.00002238 0.00000000)
(-0.01484713 -0.00001749 0.00000000)
(-0.01353628 -0.00002564 0.00000000)
(-0.01261911 -0.00001150 0.00000000)
(-0.01174847 -0.00002214 0.00000000)
(-0.01018027 -0.00003004 0.00000000)
(-0.00876848 -0.00002274 0.00000000)
(-0.00750758 -0.00002534 0.00000000)
(-0.00630852 -0.00002423 0.00000000)
(-0.00456204 -0.00003365 0.00000000)
(-0.00320308 -0.00002040 0.00000000)
(-0.00245404 -0.00001088 0.00000000)
(-0.00173441 -0.00001591 0.00000000)
(-0.00075201 -0.00001844 0.00000000)
(0.00044414 -0.00002022 0.00000000)
(0.00103881 -0.00001261 0.00000000)
(0.00192325 -0.00001216 0.00000000)
(0.00248463 -0.00002077 0.00000000)
(0.00394705 -0.00002617 0.00000000)
(0.00502623 -0.00001345 0.00000000)
(0.00585856 -0.00002144 0.00000000)
(0.00635611 -0.00000341 0.00000000)
(0.00667421 -0.00000614 0.00000000)
(0.00683082 -0.00000236 0.00000000)
(0.00713802 -0.00000785 0.00000000)
(0.00772151 -0.00001170 0.00000000)
(0.00838041 -0.00000988 0.00000000)
(0.00849055 0.00000080 0.00000000)
(0.00844796 0.00000007 0.00000000)
(0.00841273 -0.00000041 0.00000000)
(0.00846527 -0.00000058 0.00000000)
(0.00832954 0.00000271 0.00000000)
(0.00798500 0.00001078 0.00000000)
(0.00752002 0.00001079 0.00000000)
(0.00693047 0.00000761 0.00000000)
(0.00648200 0.00001483 0.00000000)
(0.00541244 0.00002026 0.00000000)
(0.00454008 0.00001978 0.00000000)
(0.00331058 0.00002457 0.00000000)
(0.00190513 0.00003262 0.00000000)
(-0.00003906 0.00004764 0.00000000)
(-0.00347044 0.00007064 0.00000000)
(-0.00353664 -0.00036221 0.00000000)
(-0.00087715 -0.00019395 0.00000000)
(0.00036403 0.00015275 0.00000000)
(0.00023775 -0.00000415 0.00000000)
(0.00015201 0.00007798 0.00000000)
(0.00094304 0.00045321 0.00000000)
(0.00126768 0.00069815 0.00000000)
(0.00087177 0.00035218 0.00000000)
(0.00006962 0.00012127 0.00000000)
(0.00118584 0.00113733 0.00000000)
(-0.00099111 -0.00036302 0.00000000)
(0.00138102 0.00082166 0.00000000)
(-0.00148484 -0.00097553 0.00000000)
(-0.00138824 -0.00048516 0.00000000)
(0.00087672 0.00043419 0.00000000)
(-0.00160016 -0.00091884 0.00000000)
(-0.00847323 -0.00790712 0.00000000)
(-0.00558013 -0.00571784 0.00000000)
(-0.01012568 -0.01124412 0.00000000)
(0.00132636 0.00080744 0.00000000)
(0.00211234 0.00070530 0.00000000)
(-0.00083171 -0.00038975 0.00000000)
(0.00274482 0.00128900 0.00000000)
(-0.00105082 0.00692851 0.00000000)
(0.02096802 0.00141075 0.00000000)
(0.03466632 0.00115326 0.00000000)
(0.02595788 0.00040163 0.00000000)
(0.04716021 0.00018741 0.00000000)
(0.04182610 -0.00036768 0.00000000)
(0.02106402 -0.00081827 0.00000000)
(-0.01022144 0.00115368 0.00000000)
(-0.01641031 0.00692408 0.00000000)
(-0.01153574 0.00490824 0.00000000)
(-0.01467269 0.01076513 0.00000000)
(-0.00995826 0.01017016 0.00000000)
(-0.00898464 0.00824977 0.00000000)
(-0.00836893 0.00855848 0.00000000)
(-0.00769569 0.00820109 0.00000000)
(-0.00778647 0.00788822 0.00000000)
(-0.00955221 0.00848517 0.00000000)
(-0.01194770 0.00896304 0.00000000)
(-0.01421727 0.01016676 0.00000000)
(-0.01714471 0.01399014 0.00000000)
(-0.02195558 0.01582942 0.00000000)
(-0.02394964 0.01944980 0.00000000)
(-0.03014162 0.02131842 0.00000000)
(-0.03349968 0.02127767 0.00000000)
(-0.03716227 0.02279084 0.00000000)
(-0.03998264 0.02103535 0.00000000)
(-0.04160758 0.02030798 0.00000000)
(-0.04264769 0.01514697 0.00000000)
(-0.04188925 0.01218055 0.00000000)
(-0.04205976 0.01018331 0.00000000)
(-0.04351412 0.00533227 0.00000000)
(-0.04603047 0.00186254 0.00000000)
(-0.05569251 0.00104721 0.00000000)
(-0.06765236 0.00084946 0.00000000)
(-0.07701460 0.00065168 0.00000000)
(-0.08324985 0.00042495 0.00000000)
(-0.08773184 0.00029663 0.00000000)
(-0.09031931 0.00014711 0.00000000)
(-0.09144779 0.00012609 0.00000000)
(-0.09303636 0.00012107 0.00000000)
(-0.09386246 0.00003375 0.00000000)
(-0.09343281 -0.00004554 0.00000000)
(-0.09218669 -0.00010034 0.00000000)
(-0.09046085 -0.00011370 0.00000000)
(-0.08820652 -0.00016973 0.00000000)
(-0.08449893 -0.00032814 0.00000000)
(-0.07970908 -0.00040509 0.00000000)
(-0.07467814 -0.00038389 0.00000000)
(-0.07051314 -0.00020932 0.00000000)
(-0.06693950 -0.00034184 0.00000000)
(-0.06166855 -0.00042347 0.00000000)
(-0.05627165 -0.00044162 0.00000000)
(-0.05070609 -0.00046659 0.00000000)
(-0.04551276 -0.00033315 0.00000000)
(-0.04193533 -0.00025695 0.00000000)
(-0.03853314 -0.00024105 0.00000000)
(-0.03546614 -0.00021312 0.00000000)
(-0.03242785 -0.00024769 0.00000000)
(-0.02959129 -0.00013808 0.00000000)
(-0.02699784 -0.00024955 0.00000000)
(-0.02284083 -0.00032391 0.00000000)
(-0.01899765 -0.00025710 0.00000000)
(-0.01558014 -0.00027735 0.00000000)
(-0.01205986 -0.00028181 0.00000000)
(-0.00767815 -0.00035677 0.00000000)
(-0.00412499 -0.00021474 0.00000000)
(-0.00186294 -0.00013765 0.00000000)
(0.00023927 -0.00018222 0.00000000)
(0.00299054 -0.00021444 0.00000000)
(0.00586414 -0.00018817 0.00000000)
(0.00787347 -0.00014984 0.00000000)
(0.01015394 -0.00012906 0.00000000)
(0.01211352 -0.00023587 0.00000000)
(0.01569608 -0.00026916 0.00000000)
(0.01840943 -0.00016227 0.00000000)
(0.02058761 -0.00019022 0.00000000)
(0.02208771 -0.00005557 0.00000000)
(0.02314521 -0.00007605 0.00000000)
(0.02387081 -0.00004460 0.00000000)
(0.02507641 -0.00010466 0.00000000)
(0.02664303 -0.00012165 0.00000000)
(0.02814567 -0.00009484 0.00000000)
(0.02860998 0.00000374 0.00000000)
(0.02866854 0.00000035 0.00000000)
(0.02874828 -0.00001167 0.00000000)
(0.02884053 0.00000609 0.00000000)
(0.02846103 0.00003421 0.00000000)
(0.02749151 0.00010223 0.00000000)
(0.02626246 0.00010228 0.00000000)
(0.02496573 0.00008901 0.00000000)
(0.02356240 0.00016602 0.00000000)
(0.02092313 0.00020441 0.00000000)
(0.01844672 0.00020249 0.00000000)
(0.01538603 0.00026003 0.00000000)
(0.01153521 0.00035383 0.00000000)
(0.00617919 0.00047693 0.00000000)
(0.00069017 0.00057346 0.00000000)
(-0.00038042 -0.00054630 0.00000000)
(0.00098877 0.00010306 0.00000000)
(0.00353489 0.00158299 0.00000000)
(0.00617667 0.00164287 0.00000000)
(0.00824744 0.00390147 0.00000000)
(0.01194629 0.00605414 0.00000000)
(0.01173160 0.00807714 0.00000000)
(0.01234026 0.00732266 0.00000000)
(0.01161101 0.00994964 0.00000000)
(0.01164066 0.01002858 0.00000000)
(0.01273762 0.00948116 0.00000000)
(0.01510709 0.01601116 0.00000000)
(0.01257379 0.00770330 0.00000000)
(0.00964976 0.00809131 0.00000000)
(0.00465690 0.00630844 0.00000000)
(0.00312271 0.00282822 0.00000000)
(0.00896523 0.00116457 0.00000000)
(0.01006058 0.00292210 0.00000000)
(0.00872627 0.00216919 0.00000000)
(-0.00727487 -0.00303181 0.00000000)
(0.02891221 0.01797392 0.00000000)
(0.02188173 0.01398785 0.00000000)
(0.07638008 0.04569673 0.00000000)
(0.04559241 0.03913225 0.00000000)
(0.08470786 0.00726690 0.00000000)
(0.08028035 0.00371182 0.00000000)
(0.05564348 0.00097866 0.00000000)
(0.08328464 0.00038832 0.00000000)
(0.07564171 -0.00077810 0.00000000)
(0.04585904 -0.00170146 0.00000000)
(-0.00740926 0.00289771 0.00000000)
(-0.02689964 0.01085490 0.00000000)
(-0.02295567 0.01077510 0.00000000)
(-0.02123843 0.01543849 0.00000000)
(-0.01618448 0.01734430 0.00000000)
(-0.01652313 0.01345991 0.00000000)
(-0.01538613 0.01369922 0.00000000)
(-0.01452164 0.01352282 0.00000000)
(-0.01471848 0.01382095 0.00000000)
(-0.01631835 0.01483371 0.00000000)
(-0.02011090 0.01629976 0.00000000)
(-0.02510086 0.01937124 0.00000000)
(-0.02934945 0.02394814 0.00000000)
(-0.03625955 0.02816200 0.00000000)
(-0.04169270 0.03249947 0.00000000)
(-0.04754638 0.03514793 0.00000000)
(-0.05301568 0.03498010 0.00000000)
(-0.05641828 0.03515153 0.00000000)
(-0.05984343 0.03254723 0.00000000)
(-0.06265094 0.03036477 0.00000000)
(-0.06498824 0.02446927 0.00000000)
(-0.06449864 0.01936738 0.00000000)
(-0.06521407 0.01455707 0.00000000)
(-0.06738284 0.00896969 0.00000000)
(-0.07409564 0.00383879 0.00000000)
(-0.08923987 0.00266119 0.00000000)
(-0.10478644 0.00210784 0.00000000)
(-0.11633058 0.00155123 0.00000000)
(-0.12400157 0.00101530 0.00000000)
(-0.12920021 0.00069381 0.00000000)
(-0.13203338 0.00032048 0.00000000)
(-0.13300716 0.00025019 0.00000000)
(-0.13374660 0.00022060 0.00000000)
(-0.13381463 -0.00001037 0.00000000)
(-0.13238074 -0.00019773 0.00000000)
(-0.12989451 -0.00032647 0.00000000)
(-0.12661947 -0.00038503 0.00000000)
(-0.12258221 -0.00055434 0.00000000)
(-0.11665272 -0.00089801 0.00000000)
(-0.10987649 -0.00104955 0.00000000)
(-0.10276514 -0.00100066 0.00000000)
(-0.09663104 -0.00066261 0.00000000)
(-0.09084698 -0.00092505 0.00000000)
(-0.08346426 -0.00110644 0.00000000)
(-0.07582850 -0.00112860 0.00000000)
(-0.06792321 -0.00119880 0.00000000)
(-0.06103088 -0.00085543 0.00000000)
(-0.05575833 -0.00071697 0.00000000)
(-0.05078168 -0.00062324 0.00000000)
(-0.04625890 -0.00059774 0.00000000)
(-0.04156812 -0.00067640 0.00000000)
(-0.03748745 -0.00040762 0.00000000)
(-0.03331732 -0.00070347 0.00000000)
(-0.02756300 -0.00085234 0.00000000)
(-0.02210321 -0.00069552 0.00000000)
(-0.01708652 -0.00073553 0.00000000)
(-0.01188408 -0.00075692 0.00000000)
(-0.00578145 -0.00092637 0.00000000)
(-0.00058803 -0.00057307 0.00000000)
(0.00283865 -0.00040654 0.00000000)
(0.00622394 -0.00051127 0.00000000)
(0.01030377 -0.00058149 0.00000000)
(0.01449353 -0.00050812 0.00000000)
(0.01768174 -0.00042447 0.00000000)
(0.02103695 -0.00036338 0.00000000)
(0.02427692 -0.00062195 0.00000000)
(0.02897495 -0.00066965 0.00000000)
(0.03269761 -0.00045170 0.00000000)
(0.03596499 -0.00047929 0.00000000)
(0.03835376 -0.00019853 0.00000000)
(0.04013430 -0.00021394 0.00000000)
(0.04167829 -0.00018033 0.00000000)
(0.04386586 -0.00030964 0.00000000)
(0.04621343 -0.00031911 0.00000000)
(0.04834667 -0.00025428 0.00000000)
(0.04928842 -0.00001075 0.00000000)
(0.04962333 -0.00001663 0.00000000)
(0.05000374 -0.00004592 0.00000000)
(0.05020391 0.00002641 0.00000000)
(0.04970241 0.00009506 0.00000000)
(0.04849832 0.00024555 0.00000000)
(0.04690454 0.00026418 0.00000000)
(0.04513438 0.00024366 0.00000000)
(0.04297519 0.00042716 0.00000000)
(0.03960796 0.00051514 0.00000000)
(0.03610227 0.00054390 0.00000000)
(0.03181888 0.00067740 0.00000000)
(0.02635671 0.00093251 0.00000000)
(0.01883623 0.00124992 0.00000000)
(0.01149169 0.00147252 0.00000000)
(0.00876365 0.00080606 0.00000000)
(0.01019054 0.00158471 0.00000000)
(0.01332479 0.00401747 0.00000000)
(0.01710919 0.00548781 0.00000000)
(0.02165739 0.00979958 0.00000000)
(0.02769181 0.01347117 0.00000000)
(0.03174307 0.02269740 0.00000000)
(0.03610334 0.02521086 0.00000000)
(0.03902736 0.03353190 0.00000000)
(0.04770888 0.03504782 0.00000000)
(0.04221478 0.03955503 0.00000000)
(0.05325279 0.04271551 0.00000000)
(0.04498075 0.03906560 0.00000000)
(0.04484635 0.04678320 0.00000000)
(0.04631833 0.03939218 0.00000000)
(0.05121560 0.03384136 0.00000000)
(0.06020414 0.03934819 0.00000000)
(0.06587274 0.04675652 0.00000000)
(0.07814358 0.05399171 0.00000000)
(0.03259947 0.02900156 0.00000000)
(0.09356148 0.10639642 0.00000000)
(0.12296612 0.06098646 0.00000000)
(0.20287316 0.12146557 0.00000000)
(0.20537462 0.08704158 0.00000000)
(0.19548835 0.02087778 0.00000000)
(0.14576172 0.00807360 0.00000000)
(0.09951843 0.00211405 0.00000000)
(0.13012086 0.00092750 0.00000000)
(0.11789960 -0.00126744 0.00000000)
(0.07982190 -0.00303165 0.00000000)
(0.00443029 0.00366789 0.00000000)
(-0.03212020 0.01354713 0.00000000)
(-0.03249894 0.01747756 0.00000000)
(-0.02812909 0.02200793 0.00000000)
(-0.02464540 0.02421126 0.00000000)
(-0.02437601 0.01915028 0.00000000)
(-0.02209920 0.01809621 0.00000000)
(-0.02139194 0.01794498 0.00000000)
(-0.02203718 0.01888969 0.00000000)
(-0.02460716 0.02126962 0.00000000)
(-0.02835465 0.02364822 0.00000000)
(-0.03465902 0.02797260 0.00000000)
(-0.04124774 0.03320230 0.00000000)
(-0.04864988 0.03902636 0.00000000)
(-0.05583899 0.04309694 0.00000000)
(-0.06239637 0.04722815 0.00000000)
(-0.06911181 0.04712839 0.00000000)
(-0.07319115 0.04667222 0.00000000)
(-0.07806445 0.04270523 0.00000000)
(-0.08111886 0.03912163 0.00000000)
(-0.08357559 0.03221900 0.00000000)
(-0.08450044 0.02540405 0.00000000)
(-0.08588648 0.01877700 0.00000000)
(-0.08940253 0.01210918 0.00000000)
(-0.09939375 0.00640228 0.00000000)
(-0.11722296 0.00464253 0.00000000)
(-0.13393107 0.00360584 0.00000000)
(-0.14570299 0.00256434 0.00000000)
(-0.15348936 0.00168774 0.00000000)
(-0.15834206 0.00110068 0.00000000)
(-0.16064146 0.00046950 0.00000000)
(-0.16096254 0.00030767 0.00000000)
(-0.16089860 0.00023870 0.00000000)
(-0.15974400 -0.00017013 0.00000000)
(-0.15698719 -0.00048679 0.00000000)
(-0.15337126 -0.00069488 0.00000000)
(-0.14857574 -0.00083829 0.00000000)
(-0.14300778 -0.00115393 0.00000000)
(-0.13560480 -0.00168462 0.00000000)
(-0.12757750 -0.00188557 0.00000000)
(-0.11913303 -0.00181143 0.00000000)
(-0.11123963 -0.00136869 0.00000000)
(-0.10385655 -0.00172155 0.00000000)
(-0.09503709 -0.00200621 0.00000000)
(-0.08615071 -0.00201105 0.00000000)
(-0.07712232 -0.00212714 0.00000000)
(-0.06910870 -0.00153356 0.00000000)
(-0.06267083 -0.00136684 0.00000000)
(-0.05650183 -0.00114271 0.00000000)
(-0.05103431 -0.00114255 0.00000000)
(-0.04526387 -0.00125187 0.00000000)
(-0.04028447 -0.00082961 0.00000000)
(-0.03476731 -0.00132829 0.00000000)
(-0.02804437 -0.00153986 0.00000000)
(-0.02159870 -0.00130192 0.00000000)
(-0.01540884 -0.00135833 0.00000000)
(-0.00907542 -0.00140235 0.00000000)
(-0.00205703 -0.00165752 0.00000000)
(0.00423887 -0.00106293 0.00000000)
(0.00858228 -0.00080536 0.00000000)
(0.01302874 -0.00098704 0.00000000)
(0.01805242 -0.00108270 0.00000000)
(0.02307631 -0.00096043 0.00000000)
(0.02725928 -0.00081753 0.00000000)
(0.03143472 -0.00072409 0.00000000)
(0.03570426 -0.00111647 0.00000000)
(0.04091051 -0.00116888 0.00000000)
(0.04525583 -0.00085527 0.00000000)
(0.04923477 -0.00085477 0.00000000)
(0.05242683 -0.00044742 0.00000000)
(0.05479649 -0.00041826 0.00000000)
(0.05721962 -0.00042703 0.00000000)
(0.06023973 -0.00061254 0.00000000)
(0.06319235 -0.00059236 0.00000000)
(0.06581137 -0.00047550 0.00000000)
(0.06728097 -0.00006421 0.00000000)
(0.06799968 -0.00007321 0.00000000)
(0.06873908 -0.00011454 0.00000000)
(0.06921218 0.00004003 0.00000000)
(0.06877381 0.00017222 0.00000000)
(0.06751395 0.00041018 0.00000000)
(0.06580424 0.00046926 0.00000000)
(0.06375512 0.00045564 0.00000000)
(0.06121298 0.00074392 0.00000000)
(0.05766483 0.00090473 0.00000000)
(0.05355314 0.00099285 0.00000000)
(0.04866896 0.00122098 0.00000000)
(0.04243594 0.00167420 0.00000000)
(0.03377528 0.00224809 0.00000000)
(0.02510271 0.00265067 0.00000000)
(0.02092281 0.00258945 0.00000000)
(0.02180508 0.00379987 0.00000000)
(0.02512607 0.00670576 0.00000000)
(0.02951591 0.00994304 0.00000000)
(0.03547684 0.01552140 0.00000000)
(0.04223690 0.02093834 0.00000000)
(0.05107827 0.03199071 0.00000000)
(0.05949349 0.03993617 0.00000000)
(0.07084454 0.05141654 0.00000000)
(0.07945739 0.05607601 0.00000000)
(0.08824683 0.07115565 0.00000000)
(0.09918496 0.07302827 0.00000000)
(0.09834434 0.08534716 0.00000000)
(0.10747054 0.08910182 0.00000000)
(0.10956097 0.08388713 0.00000000)
(0.11898770 0.09024460 0.00000000)
(0.12572603 0.09866070 0.00000000)
(0.13323600 0.10654806 0.00000000)
(0.15352056 0.11108114 0.00000000)
(0.15240812 0.11167805 0.00000000)
(0.17818517 0.18882883 0.00000000)
(0.29796103 0.13478567 0.00000000)
(0.38664243 0.21226239 0.00000000)
(0.41028001 0.13946809 0.00000000)
(0.33742145 0.04200072 0.00000000)
(0.22989720 0.01485508 0.00000000)
(0.15735955 0.00429235 0.00000000)
(0.18443533 0.00179371 0.00000000)
(0.16679388 -0.00170336 0.00000000)
(0.12140641 -0.00448972 0.00000000)
(0.02764877 0.00218603 0.00000000)
(-0.03260717 0.01542324 0.00000000)
(-0.04104556 0.02250409 0.00000000)
(-0.03420139 0.02745173 0.00000000)
(-0.03244011 0.02881158 0.00000000)
(-0.03075490 0.02413786 0.00000000)
(-0.02797354 0.02276257 0.00000000)
(-0.02738069 0.02262886 0.00000000)
(-0.02866239 0.02390547 0.00000000)
(-0.03232807 0.02743040 0.00000000)
(-0.03693783 0.03081683 0.00000000)
(-0.04377400 0.03636653 0.00000000)
(-0.05204853 0.04212638 0.00000000)
(-0.06072229 0.04927772 0.00000000)
(-0.06897333 0.05358974 0.00000000)
(-0.07662672 0.05752692 0.00000000)
(-0.08295545 0.05757359 0.00000000)
(-0.08770014 0.05592160 0.00000000)
(-0.09186829 0.05092784 0.00000000)
(-0.09596342 0.04616727 0.00000000)
(-0.09886974 0.03847466 0.00000000)
(-0.10123191 0.03055807 0.00000000)
(-0.10385256 0.02276879 0.00000000)
(-0.10901298 0.01513734 0.00000000)
(-0.12114140 0.00910353 0.00000000)
(-0.13979740 0.00677474 0.00000000)
(-0.15621703 0.00516003 0.00000000)
(-0.16727238 0.00355872 0.00000000)
(-0.17431708 0.00233373 0.00000000)
(-0.17838444 0.00143598 0.00000000)
(-0.17988001 0.00055443 0.00000000)
(-0.17939884 0.00025910 0.00000000)
(-0.17837332 0.00013655 0.00000000)
(-0.17595189 -0.00046482 0.00000000)
(-0.17208732 -0.00091681 0.00000000)
(-0.16739390 -0.00119927 0.00000000)
(-0.16162005 -0.00146638 0.00000000)
(-0.15473449 -0.00193471 0.00000000)
(-0.14624271 -0.00263644 0.00000000)
(-0.13732572 -0.00285572 0.00000000)
(-0.12806593 -0.00277548 0.00000000)
(-0.11890408 -0.00228813 0.00000000)
(-0.11037237 -0.00267521 0.00000000)
(-0.10072636 -0.00305129 0.00000000)
(-0.09102519 -0.00302871 0.00000000)
(-0.08134386 -0.00315947 0.00000000)
(-0.07284550 -0.00233310 0.00000000)
(-0.06551904 -0.00215385 0.00000000)
(-0.05850284 -0.00179184 0.00000000)
(-0.05230425 -0.00180717 0.00000000)
(-0.04587427 -0.00192084 0.00000000)
(-0.04012253 -0.00141407 0.00000000)
(-0.03362756 -0.00207981 0.00000000)
(-0.02626858 -0.00233116 0.00000000)
(-0.01918809 -0.00204372 0.00000000)
(-0.01213237 -0.00210951 0.00000000)
(-0.00508232 -0.00216142 0.00000000)
(0.00244267 -0.00248852 0.00000000)
(0.00938959 -0.00165889 0.00000000)
(0.01449447 -0.00131318 0.00000000)
(0.01978072 -0.00158087 0.00000000)
(0.02544227 -0.00168000 0.00000000)
(0.03096691 -0.00151308 0.00000000)
(0.03588413 -0.00130955 0.00000000)
(0.04069951 -0.00120834 0.00000000)
(0.04575128 -0.00167771 0.00000000)
(0.05120446 -0.00173268 0.00000000)
(0.05591810 -0.00133730 0.00000000)
(0.06028856 -0.00129525 0.00000000)
(0.06414544 -0.00079510 0.00000000)
(0.06706819 -0.00068734 0.00000000)
(0.07024706 -0.00077821 0.00000000)
(0.07391076 -0.00099390 0.00000000)
(0.07732983 -0.00092488 0.00000000)
(0.08027803 -0.00074625 0.00000000)
(0.08214316 -0.00017758 0.00000000)
(0.08342888 -0.00018213 0.00000000)
(0.08448563 -0.00021602 0.00000000)
(0.08521682 0.00002589 0.00000000)
(0.08499117 0.00025380 0.00000000)
(0.08381351 0.00057918 0.00000000)
(0.08204182 0.00069569 0.00000000)
(0.07991132 0.00070851 0.00000000)
(0.07721675 0.00107662 0.00000000)
(0.07371362 0.00134070 0.00000000)
(0.06939034 0.00150328 0.00000000)
(0.06428342 0.00183175 0.00000000)
(0.05785062 0.00249816 0.00000000)
(0.04879355 0.00337401 0.00000000)
(0.03930032 0.00405575 0.00000000)
(0.03403953 0.00448144 0.00000000)
(0.03432861 0.00618681 0.00000000)
(0.03721858 0.00978314 0.00000000)
(0.04154387 0.01414519 0.00000000)
(0.04840063 0.02056147 0.00000000)
(0.05669930 0.02789108 0.00000000)
(0.06689246 0.03957941 0.00000000)
(0.07891301 0.05064773 0.00000000)
(0.08966217 0.06302526 0.00000000)
(0.10228853 0.07179004 0.00000000)
(0.11725760 0.08765180 0.00000000)
(0.12901256 0.09493762 0.00000000)
(0.14414286 0.11291492 0.00000000)
(0.15608825 0.11928868 0.00000000)
(0.16583094 0.12925526 0.00000000)
(0.17605787 0.13644848 0.00000000)
(0.19098506 0.15437087 0.00000000)
(0.20356403 0.17726848 0.00000000)
(0.24424743 0.18948283 0.00000000)
(0.28284975 0.20189719 0.00000000)
(0.33480860 0.28863635 0.00000000)
(0.44224565 0.21612891 0.00000000)
(0.54589112 0.28014999 0.00000000)
(0.57895188 0.18393792 0.00000000)
(0.47459952 0.06697886 0.00000000)
(0.32537281 0.02413083 0.00000000)
(0.22528677 0.00752056 0.00000000)
(0.24433095 0.00318396 0.00000000)
(0.21988223 -0.00192520 0.00000000)
(0.16856982 -0.00588963 0.00000000)
(0.06047063 -0.00012817 0.00000000)
(-0.02760272 0.01677488 0.00000000)
(-0.04785076 0.02630506 0.00000000)
(-0.04078198 0.03210877 0.00000000)
(-0.03952783 0.03290102 0.00000000)
(-0.03679087 0.02929169 0.00000000)
(-0.03416187 0.02800319 0.00000000)
(-0.03389814 0.02799463 0.00000000)
(-0.03565950 0.02969325 0.00000000)
(-0.03976151 0.03351035 0.00000000)
(-0.04570491 0.03784486 0.00000000)
(-0.05314855 0.04431654 0.00000000)
(-0.06217234 0.05083732 0.00000000)
(-0.07151688 0.05825658 0.00000000)
(-0.08011185 0.06265139 0.00000000)
(-0.08753457 0.06616339 0.00000000)
(-0.09440008 0.06584335 0.00000000)
(-0.09906501 0.06339769 0.00000000)
(-0.10353919 0.05766349 0.00000000)
(-0.10800539 0.05205089 0.00000000)
(-0.11152733 0.04371325 0.00000000)
(-0.11494519 0.03497625 0.00000000)
(-0.11917231 0.02639879 0.00000000)
(-0.12587560 0.01810737 0.00000000)
(-0.13920413 0.01179722 0.00000000)
(-0.15748015 0.00891862 0.00000000)
(-0.17289600 0.00666255 0.00000000)
(-0.18284305 0.00448532 0.00000000)
(-0.18887001 0.00290425 0.00000000)
(-0.19193405 0.00167006 0.00000000)
(-0.19258264 0.00055730 0.00000000)
(-0.19139486 0.00010090 0.00000000)
(-0.18943174 -0.00009839 0.00000000)
(-0.18593370 -0.00089589 0.00000000)
(-0.18105645 -0.00147499 0.00000000)
(-0.17558393 -0.00182466 0.00000000)
(-0.16895592 -0.00225471 0.00000000)
(-0.16100453 -0.00287149 0.00000000)
(-0.15178854 -0.00370974 0.00000000)
(-0.14231459 -0.00392966 0.00000000)
(-0.13243601 -0.00387300 0.00000000)
(-0.12240320 -0.00338417 0.00000000)
(-0.11296105 -0.00376053 0.00000000)
(-0.10276551 -0.00420355 0.00000000)
(-0.09261069 -0.00415427 0.00000000)
(-0.08270544 -0.00423972 0.00000000)
(-0.07396157 -0.00324022 0.00000000)
(-0.06594986 -0.00304494 0.00000000)
(-0.05829151 -0.00256589 0.00000000)
(-0.05154730 -0.00256232 0.00000000)
(-0.04471255 -0.00265315 0.00000000)
(-0.03830465 -0.00213810 0.00000000)
(-0.03107912 -0.00293070 0.00000000)
(-0.02327442 -0.00319774 0.00000000)
(-0.01570969 -0.00289555 0.00000000)
(-0.00806708 -0.00296277 0.00000000)
(-0.00050903 -0.00300442 0.00000000)
(0.00722627 -0.00337980 0.00000000)
(0.01455324 -0.00235550 0.00000000)
(0.02033449 -0.00192049 0.00000000)
(0.02628838 -0.00226879 0.00000000)
(0.03237707 -0.00235469 0.00000000)
(0.03819209 -0.00213890 0.00000000)
(0.04361184 -0.00188536 0.00000000)
(0.04889714 -0.00180318 0.00000000)
(0.05453385 -0.00229535 0.00000000)
(0.06013163 -0.00234977 0.00000000)
(0.06508463 -0.00186699 0.00000000)
(0.06965356 -0.00179476 0.00000000)
(0.07399612 -0.00123024 0.00000000)
(0.07740847 -0.00102633 0.00000000)
(0.08123535 -0.00122215 0.00000000)
(0.08545681 -0.00144198 0.00000000)
(0.08923411 -0.00130084 0.00000000)
(0.09237590 -0.00105623 0.00000000)
(0.09461108 -0.00035382 0.00000000)
(0.09637684 -0.00034803 0.00000000)
(0.09770533 -0.00034167 0.00000000)
(0.09866451 -0.00002304 0.00000000)
(0.09868184 0.00032726 0.00000000)
(0.09761033 0.00074950 0.00000000)
(0.09589716 0.00092870 0.00000000)
(0.09375004 0.00098915 0.00000000)
(0.09107002 0.00141098 0.00000000)
(0.08773098 0.00179454 0.00000000)
(0.08342158 0.00204257 0.00000000)
(0.07829131 0.00247864 0.00000000)
(0.07194840 0.00335317 0.00000000)
(0.06294073 0.00456074 0.00000000)
(0.05308932 0.00559868 0.00000000)
(0.04711830 0.00637273 0.00000000)
(0.04664074 0.00857437 0.00000000)
(0.04878484 0.01280848 0.00000000)
(0.05293403 0.01790184 0.00000000)
(0.06014914 0.02484352 0.00000000)
(0.06901814 0.03357207 0.00000000)
(0.08053624 0.04544063 0.00000000)
(0.09369335 0.05828325 0.00000000)
(0.10725338 0.07265416 0.00000000)
(0.12013377 0.08415359 0.00000000)
(0.13671099 0.10039680 0.00000000)
(0.15077862 0.11088350 0.00000000)
(0.16935240 0.12814536 0.00000000)
(0.18266060 0.13921726 0.00000000)
(0.19668951 0.15283760 0.00000000)
(0.21219443 0.16559582 0.00000000)
(0.22884555 0.18725175 0.00000000)
(0.26357649 0.22565565 0.00000000)
(0.31024261 0.23615579 0.00000000)
(0.38541581 0.27872811 0.00000000)
(0.44614574 0.34811014 0.00000000)
(0.53743932 0.28493908 0.00000000)
(0.63832133 0.30171110 0.00000000)
(0.68350017 0.20539239 0.00000000)
(0.59058566 0.09143219 0.00000000)
(0.42411202 0.03579921 0.00000000)
(0.29964460 0.01197169 0.00000000)
(0.30885919 0.00532851 0.00000000)
(0.27591968 -0.00183585 0.00000000)
(0.21939258 -0.00732402 0.00000000)
(0.10021085 -0.00293204 0.00000000)
(-0.01576083 0.01615422 0.00000000)
(-0.05095527 0.02862299 0.00000000)
(-0.04819793 0.03644223 0.00000000)
(-0.04665518 0.03743298 0.00000000)
(-0.04348012 0.03462805 0.00000000)
(-0.04063039 0.03358619 0.00000000)
(-0.04074734 0.03380943 0.00000000)
(-0.04310606 0.03588783 0.00000000)
(-0.04749104 0.04007345 0.00000000)
(-0.05393276 0.04480301 0.00000000)
(-0.06176083 0.05176282 0.00000000)
(-0.07108530 0.05870990 0.00000000)
(-0.08056375 0.06609016 0.00000000)
(-0.08909038 0.07029543 0.00000000)
(-0.09669303 0.07314057 0.00000000)
(-0.10328587 0.07254276 0.00000000)
(-0.10818307 0.06935094 0.00000000)
(-0.11283191 0.06332002 0.00000000)
(-0.11773939 0.05692225 0.00000000)
(-0.12189167 0.04808667 0.00000000)
(-0.12641250 0.03880875 0.00000000)
(-0.13201366 0.02967709 0.00000000)
(-0.14005776 0.02094672 0.00000000)
(-0.15374323 0.01438884 0.00000000)
(-0.17101971 0.01098758 0.00000000)
(-0.18509226 0.00806355 0.00000000)
(-0.19373157 0.00531141 0.00000000)
(-0.19874842 0.00337485 0.00000000)
(-0.20082960 0.00179644 0.00000000)
(-0.20062415 0.00047478 0.00000000)
(-0.19888373 -0.00015902 0.00000000)
(-0.19603849 -0.00046764 0.00000000)
(-0.19160996 -0.00146582 0.00000000)
(-0.18592880 -0.00214996 0.00000000)
(-0.17973130 -0.00256588 0.00000000)
(-0.17246487 -0.00318347 0.00000000)
(-0.16369755 -0.00394629 0.00000000)
(-0.15399294 -0.00487777 0.00000000)
(-0.14411114 -0.00508835 0.00000000)
(-0.13387158 -0.00508628 0.00000000)
(-0.12327317 -0.00461922 0.00000000)
(-0.11309423 -0.00495684 0.00000000)
(-0.10255231 -0.00544189 0.00000000)
(-0.09213306 -0.00536649 0.00000000)
(-0.08219581 -0.00533540 0.00000000)
(-0.07344377 -0.00424096 0.00000000)
(-0.06489071 -0.00402561 0.00000000)
(-0.05668291 -0.00344677 0.00000000)
(-0.04952175 -0.00339485 0.00000000)
(-0.04237666 -0.00343576 0.00000000)
(-0.03545086 -0.00299628 0.00000000)
(-0.02770794 -0.00386464 0.00000000)
(-0.01961757 -0.00412514 0.00000000)
(-0.01161847 -0.00383429 0.00000000)
(-0.00358737 -0.00389301 0.00000000)
(0.00430750 -0.00391625 0.00000000)
(0.01204463 -0.00430664 0.00000000)
(0.01961312 -0.00314541 0.00000000)
(0.02601902 -0.00262659 0.00000000)
(0.03250329 -0.00303222 0.00000000)
(0.03887019 -0.00309408 0.00000000)
(0.04481931 -0.00281389 0.00000000)
(0.05053333 -0.00253498 0.00000000)
(0.05617010 -0.00249104 0.00000000)
(0.06225270 -0.00296643 0.00000000)
(0.06794732 -0.00301408 0.00000000)
(0.07307862 -0.00242935 0.00000000)
(0.07777121 -0.00234764 0.00000000)
(0.08244012 -0.00173666 0.00000000)
(0.08631962 -0.00144198 0.00000000)
(0.09064932 -0.00174498 0.00000000)
(0.09530932 -0.00195682 0.00000000)
(0.09941672 -0.00170872 0.00000000)
(0.10262333 -0.00139651 0.00000000)
(0.10515084 -0.00059973 0.00000000)
(0.10738814 -0.00057040 0.00000000)
(0.10894474 -0.00048342 0.00000000)
(0.11003446 -0.00010221 0.00000000)
(0.11025688 0.00038252 0.00000000)
(0.10934562 0.00091785 0.00000000)
(0.10773377 0.00115874 0.00000000)
(0.10567234 0.00128040 0.00000000)
(0.10308883 0.00174348 0.00000000)
(0.09994374 0.00224780 0.00000000)
(0.09576613 0.00259561 0.00000000)
(0.09077594 0.00313829 0.00000000)
(0.08459164 0.00421932 0.00000000)
(0.07590519 0.00576088 0.00000000)
(0.06613268 0.00720454 0.00000000)
(0.05972257 0.00828081 0.00000000)
(0.05848366 0.01094179 0.00000000)