/*--------------------------------*- C++ -*----------------------------------*\
  =========                 |
  \\      /  F ield         | OpenFOAM: The Open Source CFD Toolbox
   \\    /   O peration     | Website:  https://openfoam.org
    \\  /    A nd           | Version:  7
     \\/     M anipulation  |
\*---------------------------------------------------------------------------*/
FoamFile
{
    version     2.0;
    format      ascii;
    class       volScalarField;
    location    "20000";
    object      Cy;
}
// * * * * * * * * * * * * * * * * * * * * * * * * * * * * * * * * * * * * * //

dimensions      [0 1 0 0 0 0 0];

internalField   nonuniform List<scalar> 
15600
(
1.0019553158389
1.00067183630324
0.993671708935738
0.977128168442014
0.951810432453228
0.921072740039714
0.887689177309776
0.852922230993679
0.817371380693662
0.78136083271742
0.745099069168911
0.708756015825493
0.672477605672486
0.63635646968945
0.600405222543645
0.564610127215676
0.528956162151544
0.493422984919086
0.457988682492151
0.422629077150482
0.387321521200897
0.352082225643806
0.316983802441759
0.282125134298541
0.247628493690888
0.213651631310052
0.180409817543302
0.148210876329758
0.117470512222175
0.0886860086986197
0.0624898958423135
0.0397648568720588
0.0216867267745821
0.00965570779057123
0.00462353682555943
0.00391063167780391
0.00391063167780412
0.00391063167780386
0.00391063167780407
0.0039106316778041
0.00391063167780397
0.00391063167780425
0.00391063167780397
0.00391063167780428
0.00391063167780392
0.00391063167780404
0.00391063167780399
0.00391063167780381
0.00391063167780417
0.00391063167780378
0.00391063167780399
0.00391063167780407
0.00391063167780402
0.00391063167780407
0.00391063167780418
0.00391063167780418
0.00391063167780386
0.00391063167780412
0.00391063167780386
0.00391063167780396
0.00391063167780394
0.00391063167780383
0.00391063167780412
0.00391063167780386
0.00391063167780429
0.00391063167780397
0.00391063167780409
0.0039106316778041
0.00391063167780413
0.00391063167780401
0.00391063167780381
0.00391063167780418
0.00391063167780386
0.00391063167780402
0.00391063167780396
0.00391063167780386
0.00391063167780429
0.00391063167780397
0.00391063167780425
0.00391063167780389
0.00391063167780407
0.00391063167780408
0.00391063167780396
0.00391063167780396
0.00391063167780401
0.0045993165969467
0.00956938555652269
0.0215319166011853
0.0395557782808693
0.062240005415775
0.0884054929365386
0.117166795545572
0.147890739458513
0.180077300936289
0.213309709183204
0.24728033307288
0.281772792885289
0.316628165785537
0.351724419984106
0.386962894901681
0.422269906135604
0.457628951979406
0.493062331111951
0.528594427429851
0.56424706172045
0.600040756509613
0.635990464590552
0.672109493029266
0.708386587935119
0.744729607483346
0.780992936186193
0.817007787596199
0.852564702070178
0.887340956212151
0.920744017802791
0.95152113291436
0.976910822362359
0.993552761785263
1.00063864808196
1.0019553158389
1.00593806479798
1.00465970704204
0.997687512351066
0.981210000607134
0.955993362557179
0.92537842984001
0.89212817406534
0.85750002847602
0.822091080512095
0.786224245964212
0.750107179678578
0.71390913315636
0.677775461616326
0.641798437797995
0.605990630237279
0.570338356058006
0.534826652712923
0.499435258439862
0.46414234713152
0.428923837220248
0.393757170671099
0.358658490730692
0.323700118226519
0.28898054154748
0.254621545590998
0.220780251722722
0.187671071622519
0.155600601173679
0.1249828882831
0.0963132337971983
0.0702216442834252
0.0475872811822497
0.0295812875449091
0.0175982777962819
0.0125861894342767
0.0118761295959653
0.0118761295959653
0.0118761295959655
0.0118761295959655
0.0118761295959652
0.0118761295959655
0.0118761295959652
0.0118761295959654
0.0118761295959654
0.0118761295959653
0.0118761295959654
0.0118761295959653
0.0118761295959652
0.0118761295959651
0.0118761295959654
0.0118761295959651
0.0118761295959656
0.0118761295959653
0.0118761295959653
0.0118761295959656
0.0118761295959652
0.0118761295959653
0.0118761295959652
0.0118761295959653
0.0118761295959652
0.0118761295959652
0.0118761295959653
0.0118761295959651
0.0118761295959655
0.0118761295959652
0.0118761295959654
0.0118761295959655
0.0118761295959655
0.0118761295959653
0.0118761295959655
0.0118761295959652
0.0118761295959651
0.0118761295959653
0.0118761295959653
0.0118761295959653
0.0118761295959653
0.0118761295959654
0.0118761295959654
0.0118761295959652
0.0118761295959655
0.0118761295959653
0.0118761295959655
0.0118761295959654
0.0118761295959653
0.0118761295959651
0.0125620658683987
0.0175123000393865
0.0294270951115217
0.047379036856757
0.0699727509260252
0.0960338372931292
0.124680383398058
0.155281741577894
0.187339881723145
0.220439693836394
0.254274774117007
0.288629605977198
0.323345900597214
0.358302112759452
0.393399975364544
0.42856609936418
0.463784051979785
0.499076043655138
0.534466361280737
0.569976739131953
0.605627618293652
0.641433892885685
0.677408817498959
0.713541179073155
0.749739192064305
0.785857817407905
0.821728938409722
0.857143926660742
0.891781343236118
0.925051020262763
0.95570521837315
0.980993522218705
0.997569039846332
1.00462665125309
1.00593806479798
1.01006671277717
1.00879366444069
1.00185042585406
0.985441362122502
0.960329525748771
0.92984184940242
0.89672978342049
0.862245522758257
0.826983675175704
0.791265818680791
0.755298750515522
0.719251023148758
0.683267392797796
0.647439760723412
0.611780647612979
0.576276426734621
0.540912196723826
0.505667779454345
0.470521438930093
0.435449193264976
0.400428577372074
0.365475664267879
0.33066247297522
0.296087083114518
0.261870774133202
0.228170015005362
0.195198327232945
0.163261033637527
0.132770464793236
0.104219866299352
0.0782366287774005
0.0556962629033568
0.0377650479617736
0.0258318059455505
0.0208405358377784
0.0201334255543399
0.0201334255543397
0.0201334255543401
0.0201334255543399
0.02013342555434
0.0201334255543396
0.0201334255543399
0.0201334255543398
0.0201334255543397
0.0201334255543397
0.02013342555434
0.0201334255543397
0.0201334255543399
0.0201334255543398
0.0201334255543398
0.0201334255543399
0.0201334255543397
0.0201334255543401
0.0201334255543398
0.0201334255543398
0.0201334255543398
0.0201334255543399
0.0201334255543398
0.0201334255543398
0.0201334255543398
0.0201334255543398
0.0201334255543399
0.0201334255543398
0.0201334255543398
0.0201334255543398
0.0201334255543398
0.0201334255543398
0.0201334255543399
0.02013342555434
0.0201334255543396
0.0201334255543399
0.0201334255543398
0.0201334255543399
0.0201334255543396
0.0201334255543399
0.0201334255543397
0.0201334255543398
0.0201334255543398
0.0201334255543399
0.0201334255543396
0.02013342555434
0.0201334255543399
0.0201334255543399
0.0201334255543399
0.0201334255543399
0.0208165124759048
0.0257461852835958
0.0376114958948268
0.0554888834015404
0.0779887690107303
0.103941630051685
0.132469216088164
0.162943498104964
0.194868512640984
0.227830871334816
0.261525442691249
0.295737604887338
0.330309726356327
0.365120766285993
0.400072865480245
0.435092941069288
0.470164631721795
0.505310056408844
0.540553401454679
0.575916311445125
0.611419143030085
0.647076729492088
0.682902271007254
0.718884596867363
0.754932290975882
0.790900911877941
0.826623037222873
0.861890900327687
0.896384393784309
0.929515800566323
0.960042579242426
0.985225783216352
1.00173244538579
1.00876074593596
1.01006671277717
1.01434660442788
1.01307906002549
1.00616583847576
0.989827730677431
0.964824535412638
0.934468776811346
0.901499962292005
0.867164856974507
0.832055498221757
0.796492077262037
0.760680502272178
0.724788601022145
0.688960508710537
0.653287741388089
0.617782770111618
0.582432026368998
0.547220672235095
0.512128616294847
0.477134215973241
0.442213592724401
0.407344377820112
0.372542571480109
0.337879879861808
0.303453958833454
0.269385563866465
0.23583048763156
0.203001328828328
0.171202090560563
0.140843323159461
0.112416141702421
0.0865452250498246
0.0641022994038563
0.0462486021603096
0.0343669507748809
0.0293972615190111
0.028693208855761
0.0286932088557611
0.0286932088557609
0.028693208855761
0.0286932088557609
0.028693208855761
0.0286932088557608
0.0286932088557611
0.0286932088557609
0.028693208855761
0.0286932088557608
0.0286932088557611
0.0286932088557609
0.0286932088557611
0.0286932088557609
0.0286932088557609
0.0286932088557611
0.0286932088557609
0.0286932088557611
0.0286932088557609
0.0286932088557611
0.0286932088557609
0.0286932088557609
0.0286932088557613
0.0286932088557609
0.0286932088557608
0.0286932088557611
0.0286932088557611
0.0286932088557607
0.0286932088557611
0.0286932088557611
0.0286932088557609
0.0286932088557611
0.0286932088557609
0.0286932088557611
0.0286932088557609
0.028693208855761
0.0286932088557609
0.0286932088557611
0.0286932088557609
0.028693208855761
0.0286932088557609
0.028693208855761
0.0286932088557608
0.0286932088557611
0.0286932088557609
0.0286932088557611
0.0286932088557609
0.0286932088557611
0.0286932088557609
0.0293733420321577
0.0342817002877682
0.0460957139148559
0.0638958164028453
0.0862984367330585
0.112139108211197
0.140543376648622
0.170885927592753
0.202672939923805
0.235492809982736
0.269041725208725
0.30310599133613
0.337528658141142
0.372189207704454
0.406990203685508
0.441858880613985
0.476778951217118
0.511772439636686
0.546863427939505
0.582073467727611
0.617422828111409
0.652926279292084
0.688596965018978
0.72442375851544
0.760315626789073
0.796128747961461
0.831696419520133
0.86681176811999
0.901156066638656
0.934144138558886
0.964538830457138
0.989613084209598
1.00604836807197
1.01304628383465
1.01434660442788
1.01878328018729
1.01752144136047
1.01063933665985
0.994374784624376
0.969484210568696
0.93926520181806
0.906444885812064
0.872264399293986
0.837313115196649
0.801909787176879
0.766259401729772
0.730529035315822
0.69486217928646
0.659349950239988
0.624004767753289
0.588813123686631
0.553760245894544
0.518826132861785
0.483989238866121
0.449225792495036
0.414513524915036
0.379868360888903
0.34536168224239
0.311090705558316
0.27717564312668
0.243771586526088
0.211090177833079
0.179434052066849
0.149211914100739
0.120912670458931
0.0951581889164064
0.0728162725962673
0.055042932362442
0.0432147612653535
0.0382674433924151
0.0375665603745785
0.0375665603745783
0.0375665603745784
0.0375665603745784
0.0375665603745784
0.0375665603745782
0.0375665603745784
0.0375665603745785
0.0375665603745785
0.0375665603745782
0.0375665603745784
0.0375665603745784
0.0375665603745784
0.0375665603745782
0.0375665603745785
0.0375665603745785
0.0375665603745785
0.0375665603745784
0.0375665603745784
0.0375665603745782
0.0375665603745784
0.0375665603745784
0.0375665603745784
0.0375665603745782
0.0375665603745783
0.0375665603745783
0.0375665603745782
0.0375665603745784
0.0375665603745786
0.0375665603745782
0.0375665603745784
0.0375665603745784
0.0375665603745784
0.0375665603745783
0.0375665603745784
0.0375665603745783
0.0375665603745784
0.0375665603745782
0.0375665603745783
0.0375665603745784
0.0375665603745782
0.0375665603745784
0.0375665603745784
0.0375665603745784
0.0375665603745782
0.0375665603745783
0.0375665603745784
0.0375665603745784
0.0375665603745785
0.0375665603745783
0.0382436315860974
0.043129894512018
0.0548907322524867
0.0726107189333122
0.094912511295286
0.120636883780815
0.148913317483787
0.179119311941887
0.210763266841477
0.243435428602678
0.276833351937772
0.310744304133309
0.345012041281878
0.379516587522503
0.414160944870925
0.448872676888597
0.48363557306781
0.518471559241048
0.553404609391036
0.588456178720297
0.623646445580841
0.658990114765344
0.694500271509479
0.730165834607504
0.765896168336165
0.801548093169722
0.836955652866475
0.871912900191866
0.906102538864819
0.938942025817214
0.969199792644338
0.994161104758572
1.01052239500925
1.01748881269749
1.01878328018729
1.02338248345017
1.02212655922843
1.01527671149431
0.999088410329767
0.974314583405214
0.944237333594595
0.911570955321861
0.877550751164341
0.84276333215469
0.807525961725859
0.772042670876592
0.736479757168502
0.700980044436178
0.665634235052762
0.630454695195894
0.595427979330953
0.560539383519151
0.525768999451312
0.491095381815985
0.456494870266634
0.421945299530424
0.387462516156059
0.353117565750991
0.31900720950963
0.285251096630812
0.252003591903185
0.219475345719355
0.187967574873562
0.157887071177157
0.129720451712212
0.104086670206557
0.0818494630237092
0.0641594230930494
0.0523866911450434
0.0474625641424775
0.0467649669003473
0.0467649669003477
0.0467649669003473
0.0467649669003475
0.0467649669003473
0.0467649669003476
0.0467649669003473
0.0467649669003475
0.0467649669003473
0.0467649669003476
0.0467649669003473
0.0467649669003473
0.0467649669003475
0.0467649669003475
0.0467649669003476
0.0467649669003476
0.0467649669003473
0.0467649669003475
0.0467649669003473
0.0467649669003477
0.0467649669003473
0.0467649669003475
0.0467649669003475
0.0467649669003472
0.0467649669003473
0.0467649669003473
0.0467649669003472
0.0467649669003475
0.0467649669003473
0.0467649669003476
0.0467649669003473
0.0467649669003475
0.0467649669003473
0.0467649669003477
0.0467649669003473
0.0467649669003475
0.0467649669003473
0.0467649669003476
0.0467649669003472
0.0467649669003474
0.0467649669003475
0.0467649669003474
0.0467649669003472
0.0467649669003473
0.0467649669003475
0.0467649669003471
0.0467649669003474
0.0467649669003472
0.0467649669003475
0.0467649669003475
0.0474388639616401
0.0523022221809923
0.0640079363229991
0.0816448727386585
0.103842143964151
0.129445957517504
0.15758987390087
0.187654309711155
0.219149966779226
0.251669009376119
0.28491040959858
0.318662431526772
0.352769563458974
0.387112391460871
0.421594371973783
0.456143409649714
0.490743373551148
0.525416087593489
0.560185413707799
0.595072707155834
0.630098052193571
0.66527608579165
0.700619832507685
0.736118258408185
0.77168113973164
0.807165962920548
0.842407545408699
0.877200900048655
0.911230213808324
0.943915673405695
0.974031499658225
0.998875732481671
1.0151603179705
1.0220940834983
1.02338248345017
1.02815016800345
1.02690037507504
1.02008396620775
1.00397470979412
0.979321907087827
0.949391608771688
0.916884806658056
0.883030755856968
0.84841320446818
0.81334787111953
0.778037796256591
0.742648469937787
0.707322023938887
0.672148731084903
0.637140902162227
0.602285156557145
0.567566861054573
0.532966203979574
0.498461844120487
0.464030236273931
0.429649322528443
0.395334868361026
0.361157570838421
0.327213719072975
0.293622378532439
0.260537160575149
0.228167687563201
0.196813706086854
0.166880024814557
0.138850887535203
0.113342227197004
0.0912135644624564
0.07360987591686
0.0618946137153159
0.0569945270874874
0.0563003360069105
0.0563003360069102
0.0563003360069103
0.0563003360069101
0.0563003360069104
0.0563003360069105
0.0563003360069105
0.0563003360069101
0.0563003360069103
0.0563003360069103
0.0563003360069106
0.0563003360069104
0.0563003360069101
0.0563003360069104
0.0563003360069105
0.0563003360069102
0.0563003360069104
0.0563003360069105
0.0563003360069105
0.0563003360069102
0.0563003360069103
0.0563003360069103
0.0563003360069102
0.0563003360069103
0.0563003360069102
0.0563003360069105
0.0563003360069104
0.0563003360069103
0.0563003360069103
0.0563003360069104
0.0563003360069105
0.0563003360069104
0.0563003360069106
0.0563003360069102
0.0563003360069106
0.0563003360069103
0.0563003360069104
0.0563003360069101
0.0563003360069104
0.0563003360069105
0.0563003360069104
0.05630033600691
0.0563003360069103
0.0563003360069105
0.0563003360069104
0.0563003360069103
0.0563003360069101
0.0563003360069104
0.0563003360069105
0.0563003360069105
0.0569709426216132
0.0618105571108082
0.0734591286141131
0.0910099728417816
0.113098894506348
0.138577733166933
0.16658427813681
0.196501969915778
0.227843896796216
0.260204211154699
0.293283354421347
0.326870624003702
0.360811267244636
0.394986452733358
0.429300107995544
0.463680491274652
0.498111554110689
0.532615014761518
0.567214618993271
0.601931618455187
0.636785999846486
0.671792329812852
0.706963569988677
0.742288735478929
0.777678029723571
0.812989629619272
0.848059154688279
0.882682613094849
0.916545729383484
0.949071519916691
0.979040206391459
1.00376307067725
1.01996814089436
1.02686805788083
1.02815016800345
1.03309250573305
1.03184906872568
1.02506732394052
1.00904000855129
0.984512663854637
0.954734699771155
0.92239331874276
0.888711507325325
0.854270045960236
0.819383051889379
0.784252538660441
0.749043159172034
0.713896327694578
0.678901871611013
0.644072044249002
0.609393532317715
0.574851775936131
0.540427063618181
0.506098162076818
0.471841645478929
0.437635567214812
0.403495608728056
0.369492105770492
0.335720858066412
0.302300325955554
0.269383339748489
0.237178456097312
0.205983897503108
0.176202416842953
0.148315797690842
0.122936841574142
0.100920699059392
0.0834065247151483
0.0717508372201892
0.0668756715877263
0.0661850114661092
0.0661850114661089
0.0661850114661091
0.0661850114661092
0.0661850114661092
0.0661850114661091
0.0661850114661092
0.0661850114661089
0.0661850114661091
0.0661850114661092
0.066185011466109
0.0661850114661092
0.0661850114661091
0.0661850114661091
0.066185011466109
0.0661850114661089
0.0661850114661091
0.066185011466109
0.0661850114661092
0.0661850114661092
0.0661850114661091
0.0661850114661089
0.0661850114661092
0.0661850114661092
0.0661850114661092
0.0661850114661088
0.0661850114661093
0.0661850114661093
0.0661850114661091
0.0661850114661088
0.0661850114661092
0.0661850114661091
0.0661850114661092
0.0661850114661091
0.0661850114661089
0.0661850114661093
0.0661850114661092
0.0661850114661089
0.0661850114661092
0.0661850114661091
0.0661850114661092
0.0661850114661091
0.0661850114661089
0.0661850114661092
0.066185011466109
0.0661850114661092
0.0661850114661092
0.0661850114661091
0.0661850114661088
0.0661850114661092
0.0668522070761339
0.0716672080790815
0.0832565439638832
0.10071814268183
0.122694746152774
0.14804403222602
0.175908173899039
0.205673746331125
0.236856311680925
0.269052083258923
0.301963025682743
0.335379507560812
0.369147563103772
0.403148964776755
0.437288128459628
0.471493678946454
0.505749653268098
0.540077660146969
0.574501324919654
0.609041791815981
0.643718946390084
0.678547282366847
0.71353969612888
0.748685253652687
0.783894601387469
0.819026632072633
0.853917796776916
0.888365135495105
0.922055966666203
0.954416239805507
0.984232396872385
1.00882944622459
1.02495208765721
1.03181691587576
1.03309250573305
1.03821589461304
1.03697904638482
1.03023323580033
1.01429086385705
0.98989357340785
0.960273523443515
0.928103622488184
0.894600359387756
0.860341438372121
0.825639316643483
0.790694943171589
0.755672102947494
0.720711466351773
0.685902398838882
0.651257094131868
0.616762308754155
0.582403558865979
0.5481612368559
0.514014221327151
0.479939210199432
0.445914372250054
0.41195530181959
0.378131960102415
0.344539639493943
0.311296173024174
0.278553581325476
0.246519316278594
0.215490020434091
0.185866315567523
0.158127434933183
0.132882933944463
0.110983433023948
0.0935620515220067
0.0819681207786517
0.0771187890180349
0.0764317892260765
0.0764317892260767
0.0764317892260766
0.0764317892260766
0.0764317892260764
0.0764317892260767
0.0764317892260766
0.0764317892260768
0.0764317892260766
0.0764317892260766
0.0764317892260764
0.0764317892260766
0.0764317892260766
0.0764317892260765
0.0764317892260766
0.0764317892260768
0.0764317892260765
0.0764317892260764
0.0764317892260766
0.0764317892260766
0.0764317892260766
0.0764317892260765
0.0764317892260766
0.0764317892260766
0.0764317892260765
0.0764317892260765
0.0764317892260766
0.0764317892260766
0.0764317892260765
0.0764317892260764
0.0764317892260766
0.0764317892260768
0.0764317892260765
0.0764317892260765
0.0764317892260766
0.0764317892260764
0.0764317892260766
0.0764317892260768
0.0764317892260766
0.0764317892260767
0.0764317892260764
0.0764317892260766
0.0764317892260768
0.0764317892260766
0.0764317892260766
0.0764317892260764
0.0764317892260766
0.0764317892260766
0.0764317892260767
0.0764317892260765
0.0770954488553682
0.0818849347579321
0.0934128653982018
0.110781949807811
0.132642121110979
0.157857109246295
0.185573631438921
0.215181512320428
0.246198878521322
0.278224079782533
0.310960659738334
0.344200097460512
0.377789242871271
0.411610494447105
0.44556877432546
0.479593087285358
0.513667558971571
0.547813684550519
0.582054964507929
0.616412431707088
0.650905866836357
0.685549688007705
0.720356723936587
0.755316093373999
0.79033890217541
0.825284785247246
0.859991055746907
0.894255823359953
0.92776805880136
0.959956752030561
0.989614792659036
1.01408141777425
1.0301186101298
1.03694706390041
1.03821589461304
1.04352696698739
1.04229694892851
1.03558838921303
1.01973407317775
0.995471601612854
0.966015250022024
0.934023110027477
0.900704935246672
0.866635241177409
0.832124764179531
0.797373349580302
0.762543882584128
0.727776262324581
0.693159375226483
0.658705353180877
0.62440102510958
0.590231986021719
0.556178736002222
0.522220269656316
0.488333413200235
0.454496455033726
0.42072489921297
0.387088318646821
0.353681479802825
0.32062156540592
0.288059756729628
0.256202360389411
0.225344381075222
0.195884231391709
0.168298500869013
0.143193379913165
0.121414792894853
0.104089602940682
0.0925596909005489
0.0877371393254229
0.0870539339747819
0.0870539339747819
0.087053933974782
0.087053933974782
0.0870539339747821
0.0870539339747821
0.087053933974782
0.087053933974782
0.0870539339747818
0.087053933974782
0.0870539339747822
0.0870539339747821
0.0870539339747819
0.087053933974782
0.087053933974782
0.087053933974782
0.087053933974782
0.0870539339747822
0.087053933974782
0.0870539339747818
0.087053933974782
0.087053933974782
0.087053933974782
0.0870539339747819
0.0870539339747819
0.087053933974782
0.0870539339747819
0.0870539339747821
0.087053933974782
0.0870539339747821
0.087053933974782
0.087053933974782
0.087053933974782
0.0870539339747817
0.087053933974782
0.0870539339747823
0.0870539339747819
0.0870539339747818
0.087053933974782
0.087053933974782
0.0870539339747823
0.087053933974782
0.0870539339747818
0.087053933974782
0.087053933974782
0.0870539339747821
0.0870539339747818
0.087053933974782
0.087053933974782
0.087053933974782
0.087713928067346
0.0924769642305868
0.103941240548418
0.12121442214706
0.142953896645841
0.168029667697834
0.195593163177345
0.225037576205697
0.255883691808904
0.287732074420788
0.320287904569024
0.353343812491234
0.386747493722927
0.420381995699376
0.454152765375767
0.48798920144293
0.521875521396389
0.555833102678285
0.589885316339475
0.624053079784282
0.658356064977311
0.692808611625611
0.727423478272202
0.762189838417936
0.797019274332995
0.831772190385834
0.866286793488212
0.900362302267945
0.933689400236491
0.96570022901027
0.995194361540597
1.01952578423844
1.03547439652901
1.04226514305145
1.04352696698739
1.04903259815513
1.04780966050054
1.04113971657926
1.0253766829898
1.00125396951591
0.971967312404712
0.940159444283706
0.907033137356436
0.873159601755625
0.838847789968291
0.804296403179196
0.769667393753949
0.735099861213345
0.700682195213515
0.666426463501462
0.632319570077765
0.598347191712246
0.564489940148977
0.530726930258322
0.497035121263873
0.463392925578973
0.429815753678203
0.39637277595348
0.363158213663188
0.330288575388373
0.297914172274309
0.266240123692036
0.235559736436823
0.206269133012634
0.178842162400533
0.153881526751741
0.132228282402717
0.115002807161219
0.103539258607413
0.098744468193146
0.0980651963102617
0.0980651963102616
0.0980651963102617
0.0980651963102614
0.098065196310262
0.0980651963102617
0.0980651963102616
0.0980651963102617
0.0980651963102621
0.0980651963102616
0.0980651963102616
0.0980651963102618
0.0980651963102618
0.0980651963102616
0.0980651963102616
0.0980651963102617
0.0980651963102619
0.0980651963102619
0.0980651963102614
0.0980651963102619
0.0980651963102617
0.0980651963102617
0.0980651963102617
0.0980651963102616
0.0980651963102614
0.0980651963102621
0.0980651963102619
0.0980651963102617
0.0980651963102617
0.0980651963102617
0.0980651963102617
0.0980651963102616
0.0980651963102617
0.0980651963102618
0.0980651963102614
0.0980651963102616
0.0980651963102616
0.0980651963102617
0.0980651963102619
0.0980651963102619
0.0980651963102616
0.0980651963102616
0.0980651963102617
0.0980651963102616
0.0980651963102616
0.0980651963102616
0.0980651963102619
0.0980651963102614
0.0980651963102616
0.0980651963102616
0.0987213905622418
0.103457008112948
0.11485529867031
0.132029064869639
0.15364342174928
0.178574876414365
0.205979739902758
0.235254697201742
0.265923289095995
0.297588375841985
0.329956834860422
0.362822489750027
0.396033912658286
0.429474823768295
0.463051214094138
0.496692890675919
0.530384166214628
0.564146296106528
0.598002517215037
0.631973627242386
0.666079185429068
0.700333450181624
0.734749107271986
0.769315387001549
0.803944365698222
0.838497245493707
0.872813159885243
0.906692477136646
0.939827656293846
0.971654105907771
1.00097832655759
1.02516959359248
1.04102638007548
1.0477780377014
1.04903259815513
1.05473991526988
1.05352431742344
1.04689440424812
1.03122599790157
1.0072481626923
0.978137415776447
0.946520568889351
0.913593157652722
0.879922965938565
0.845817097021092
0.811473065954227
0.777051857996283
0.742691743643635
0.708480597382723
0.674430420416521
0.640528194604559
0.606759681497232
0.573105608606776
0.53954521548886
0.506055599258535
0.47261530089536
0.439239633875081
0.405997351319479
0.372982109289083
0.340309717507753
0.308129585094353
0.276645600656595
0.246149310859005
0.217034464209815
0.189772068770362
0.164961210676114
0.14343789995031
0.126315791601447
0.114921037180388
0.110155024833461
0.109479830539755
0.109479830539755
0.109479830539755
0.109479830539755
0.109479830539755
0.109479830539755
0.109479830539755
0.109479830539755
0.109479830539755
0.109479830539755
0.109479830539755
0.109479830539755
0.109479830539755
0.109479830539755
0.109479830539755
0.109479830539755
0.109479830539755
0.109479830539755
0.109479830539755
0.109479830539755
0.109479830539755
0.109479830539755
0.109479830539755
0.109479830539755
0.109479830539755
0.109479830539755
0.109479830539755
0.109479830539755
0.109479830539755
0.109479830539755
0.109479830539755
0.109479830539755
0.109479830539755
0.109479830539755
0.109479830539755
0.109479830539755
0.109479830539755
0.109479830539755
0.109479830539755
0.109479830539755
0.109479830539755
0.109479830539755
0.109479830539755
0.109479830539755
0.109479830539755
0.109479830539755
0.109479830539755
0.109479830539755
0.109479830539755
0.109479830539755
0.110132085725349
0.114839280302287
0.126169168286442
0.143239877870449
0.164724534420646
0.189506386640755
0.216746807562593
0.245846101933882
0.276330667226644
0.30780574362218
0.339979967634628
0.372648399966784
0.40566052151392
0.438900749868684
0.472275640051093
0.505715422417395
0.539204508350813
0.572764026721291
0.606417075277452
0.640184327619926
0.674085226117212
0.708133944872219
0.742343094190351
0.776701963302472
0.811123140895658
0.845468656209645
0.8795786033665
0.913254542455097
0.946190773092936
0.977826090256004
1.00697417535261
1.03102015199862
1.04678174796844
1.05349288440992
1.05473991526988
1.06065630656539
1.05944831743598
1.05285990181967
1.03728959010949
1.01346194093678
0.984533547583477
0.953114718469172
0.920393488156572
0.88693408894293
0.853041707155413
0.818912628185596
0.784706834654857
0.750561737538932
0.716564677066704
0.682727585405734
0.649037525158251
0.615480345787209
0.582036894833675
0.548686541121626
0.515406524721331
0.482175519898594
0.449008739588746
0.415974504349284
0.383165884320819
0.350697964750147
0.318719219661318
0.287432261783513
0.257126813131547
0.228194161248901
0.201102369230948
0.176446774757708
0.155058156733122
0.138043201194109
0.126719760558213
0.121983580432076
0.121312613130772
0.121312613130772
0.121312613130772
0.121312613130772
0.121312613130772
0.121312613130772
0.121312613130772
0.121312613130772
0.121312613130772
0.121312613130772
0.121312613130772
0.121312613130773
0.121312613130772
0.121312613130772
0.121312613130772
0.121312613130772
0.121312613130772
0.121312613130772
0.121312613130772
0.121312613130772
0.121312613130772
0.121312613130772
0.121312613130772
0.121312613130772
0.121312613130772
0.121312613130772
0.121312613130772
0.121312613130772
0.121312613130772
0.121312613130772
0.121312613130772
0.121312613130772
0.121312613130772
0.121312613130772
0.121312613130772
0.121312613130772
0.121312613130772
0.121312613130772
0.121312613130772
0.121312613130772
0.121312613130772
0.121312613130772
0.121312613130772
0.121312613130772
0.121312613130772
0.121312613130772
0.121312613130772
0.121312613130772
0.121312613130772
0.121312613130772
0.121960784921758
0.126638515376023
0.137897495474724
0.154861373891741
0.176211579580064
0.200838349705013
0.227908304669799
0.256825501560807
0.287119299162157
0.318397404763555
0.350370278454668
0.382834263389807
0.415639782526835
0.448671976434307
0.48183798481713
0.515068476863274
0.548347966241587
0.581697450650434
0.61513988361503
0.648695810072876
0.682384551219475
0.716220193739513
0.750215269675949
0.784359129399441
0.81856489294078
0.852695447074816
0.886591881840472
0.920056992891302
0.952786987836587
0.984224171935278
1.01318966986345
1.0370850332641
1.05274795068921
1.05941708116156
1.06065630656539
1.06678943091899
1.06558932926886
1.05904393178801
1.0435753092004
1.01990334830918
0.991163987873344
0.959950429299753
0.927442931966901
0.894202046703445
0.860530972673113
0.826624720473648
0.792642233252152
0.758720030842881
0.724944899416532
0.691328699518893
0.657858577486081
0.624520473941867
0.591295360874095
0.558162741126894
0.525100002975795
0.49208595886646
0.459135717523376
0.426317151084822
0.393722722289128
0.361466765346241
0.329696784903782
0.298614071042228
0.268506454240948
0.239762670922959
0.212847731361249
0.188353087490597
0.167104095523684
0.150200217343833
0.138950702409066
0.134245447268173
0.13357886183797
0.13357886183797
0.13357886183797
0.13357886183797
0.13357886183797
0.13357886183797
0.13357886183797
0.13357886183797