/*--------------------------------*- C++ -*----------------------------------*\
  =========                 |
  \\      /  F ield         | OpenFOAM: The Open Source CFD Toolbox
   \\    /   O peration     | Website:  https://openfoam.org
    \\  /    A nd           | Version:  7
     \\/     M anipulation  |
\*---------------------------------------------------------------------------*/
FoamFile
{
    version     2.0;
    format      ascii;
    class       volTensorField;
    location    "20000";
    object      gradU;
}
// * * * * * * * * * * * * * * * * * * * * * * * * * * * * * * * * * * * * * //

dimensions      [0 0 -1 0 0 0 0];

internalField   nonuniform List<tensor> 
15600
(
(0.0277004405553375 -0.0262208483663083 6.55755448078438e-20 17.1780631766393 -0.0354546383253927 8.97059787389654e-22 -6.67684732638026e-21 2.3518732663902e-22 -5.61666408057884e-40)
(0.910130138579537 -0.108833278925141 8.19208282312646e-20 18.0350849399216 -0.951560443036454 7.71684829903633e-19 -7.26815055805979e-18 3.83242030234956e-19 -3.10323685640518e-37)
(2.09813836023388 -0.494179194585438 -1.586700272244e-19 9.41126995534772 -2.04974996348419 -3.10203756219396e-19 0 0 0)
(-1.76598889014371 1.13514290184486 -4.54042275853773e-20 -2.35795169450765 1.57453933113869 -1.4055537847815e-20 -4.64143735413408e-21 3.22354294943898e-21 3.40453791664076e-43)
(-4.41500387397204 4.10248451767134 3.34572592059998e-17 -4.69959166919792 4.27739007850191 3.98604297494976e-17 5.38126702891223e-21 -3.73736497265183e-21 -3.94720993555636e-43)
(-3.6311059805085 4.22370480375153 1.71375259683831e-17 -3.09778293085707 3.54432000145802 1.39445162952237e-17 -1.56810340762756e-17 1.7934534223915e-17 7.0304887267031e-35)
(-2.54278031676291 3.42802827916828 -8.97571778606977e-19 -1.87005971320876 2.49598484860682 2.06915590020321e-20 5.69685455281915e-22 -7.73314575746646e-22 2.08222425648782e-38)
(-1.98200832004388 2.92337365110249 9.39857737181955e-17 -1.32128245930472 1.93775189281378 5.76240129934105e-17 -7.77229070518419e-18 1.13980965454444e-17 3.38474502449521e-34)
(-1.51043822894292 2.36696520527083 5.97057011465498e-17 -0.949808693995557 1.4819288506232 2.92385688652813e-17 -4.29588115203104e-22 6.29349101094154e-22 1.54039451142374e-39)
(-1.16305679539161 1.89326209017322 -1.02958074517514e-16 -0.704355763274115 1.14313495675562 -5.79906555420475e-17 4.4270081522717e-18 -7.18529711070605e-18 3.64740971712598e-34)
(-0.919828971646238 1.53311120884366 -6.09312888024606e-18 -0.545361012801981 0.907401578374963 2.66456508816667e-19 -3.47136671639802e-18 5.77627315515104e-18 5.49500042150343e-37)
(-0.775917650305377 1.30273011343953 -1.62359024772675e-19 -0.457102439325588 0.76728990345119 -8.68431531270338e-20 0 0 0)
(-0.692343601066607 1.15182429658024 -8.38834782362412e-17 -0.41198866506494 0.685958561813401 -4.49213156755539e-17 2.59892749885016e-18 -4.32687326986848e-18 2.85569384482635e-34)
(-0.640957776388263 1.05058074726235 -1.28222930371691e-16 -0.387609948634664 0.63601898444712 -7.74122288263107e-17 -2.40875373420644e-21 3.86662361242088e-21 -3.76346051457115e-37)
(-0.609407385652558 0.985034290118547 7.30466458726939e-18 -0.374163083373331 0.605492336714204 -4.56191920799326e-19 2.29616165055992e-21 -3.68588649387825e-21 3.58754553619892e-37)
(-0.59204707338228 0.944269419678528 8.40340268422439e-18 -0.368597487802029 0.588593524448817 -5.99054009717271e-19 0 0 0)
(-0.581332869513484 0.915566871059072 -1.62658958342768e-17 -0.366581866518128 0.578020211204518 -1.67710780068747e-17 2.20852059204473e-18 -3.48189700928668e-18 9.64325508640174e-35)
(-0.571433753036194 0.889714101693526 -3.2148663064981e-17 -0.364500870724499 0.568131413983171 -1.50499561591471e-17 0 0 0)
(-0.557022026155669 0.858171992665397 -8.83724239152453e-18 -0.358991295154632 0.553576280637662 3.64001386526649e-19 -4.24064970613385e-21 6.42788130843914e-21 5.83539106446188e-41)
(-0.531532595872026 0.811022845303488 7.83104658551903e-17 -0.345866061299438 0.528062456100003 5.08472438861181e-17 4.10253962919003e-21 -6.2185371645901e-21 -5.64534322633358e-41)
(-0.487674232915763 0.736756900634829 -3.0025051625375e-19 -0.320460537108542 0.484377793383727 -1.15981311974221e-19 7.03037160045563e-21 -1.05337151577776e-20 2.21121728840979e-40)
(-0.42106405893221 0.62590958267097 9.52596634164124e-18 -0.28145636545405 0.418668667812516 -1.28569830399718e-18 -6.80406602672495e-21 1.01946379954635e-20 -2.14003886064868e-40)
(-0.332733947043723 0.481035388836246 -2.42931174455818e-17 -0.229354779179998 0.331901223399312 -1.66399829346978e-17 1.32684080455545e-18 -1.92002998388297e-18 9.42132025988736e-35)
(-0.224694321416608 0.310314752695435 4.32746517193751e-19 -0.163465137396402 0.226056832189941 -4.09371548994309e-19 -3.960666525295e-21 5.89049220069826e-21 1.52389193180451e-36)
(-0.101539210051088 0.127075979592933 7.34767946461393e-17 -0.083767464265642 0.105542599162633 3.44473003053719e-17 -3.62342302726553e-23 -4.13909516308128e-22 -4.85471534197685e-36)
(0.0284001078646761 -0.0496372723024696 -5.73380719102722e-17 0.00818784660104298 -0.0216778290268487 -3.5510126110581e-17 -5.32465802705503e-20 1.27680394515909e-19 1.99914982183888e-34)
(0.152636378040087 -0.196500931754304 -3.07587829123231e-17 0.10859981967606 -0.143592260249963 4.10952236463848e-18 0 0 0)
(0.255524879747137 -0.290605754204 3.18575493796368e-17 0.211249633625665 -0.245052142561068 1.75336678491996e-17 1.04227139760004e-18 -1.20472843998736e-18 9.1385565556774e-35)
(0.322923428937948 -0.320940828691058 -7.35425133031622e-17 0.30779051423261 -0.312291580925035 -8.5535641083345e-17 -1.42600509048238e-18 1.44193328526314e-18 3.83079090427272e-34)
(0.346625810965827 -0.293370182354425 -1.14576085398201e-17 0.388065485160073 -0.336851258651216 3.66178843974782e-19 6.90006438655675e-21 -5.83388715696354e-21 1.50624053314913e-36)
(0.324675632374941 -0.223895822773391 -1.46729076488671e-15 0.442653638524484 -0.316361573676468 2.51958992344434e-16 0 0 0)
(0.265724046594017 -0.138392728420162 3.36189186360863e-16 0.469105412485354 -0.259386971942898 4.0329812085125e-15 2.32882425278293e-16 -1.28638621494998e-16 2.11292266803389e-30)
(0.184733084841851 -0.0617860876915651 2.66802510333921e-15 0.471660606800587 -0.179983570988265 3.1458016419022e-15 2.40619332154392e-16 -9.15324005157319e-17 1.49099315502452e-30)
(0.0988005331522384 -0.0117518783835662 1.66291941019449e-15 0.470961712003117 -0.0961463502106307 -1.67224690433053e-16 6.5802199147314e-21 -7.24900782229597e-22 1.45618977985014e-36)
(0.016907904453814 0.00413933252884605 -1.1348771424072e-17 0.478933385883332 -0.0158713634228578 -2.23416692016336e-18 -6.54641207091052e-21 7.21176388098576e-22 -1.44870817022483e-36)
(-0.000248952140082894 0.000747155958163324 5.38316235189918e-19 0.472378068460506 0.000756272351215674 4.39011033264248e-19 -6.61679991444891e-21 -1.09617143018244e-23 4.79084465909794e-43)
(-0.00150935902990493 -3.30011583787639e-05 -8.98796910860466e-20 0.451618505660312 0.00209510294946242 -1.91271795243917e-18 6.61679991446974e-21 1.09617143019203e-23 -4.79084553748764e-43)
(-0.00270136582406533 -4.2251938448121e-05 1.94556110463189e-15 0.41777264932868 0.00300004631070655 -1.75446155500897e-16 3.81611537063255e-32 2.73957915247101e-34 6.54666050812401e-50)
(-0.00459258272357315 -1.91087385180192e-05 2.00953424901887e-15 0.36700159953341 0.00505323239662268 -5.50527613244048e-15 -1.999064737577e-16 -2.78290704515829e-18 3.12927093004549e-30)
(-0.00719692888344354 -4.24800784935385e-06 -1.94547122140112e-15 0.288659356710943 0.00762455123456318 -4.32962853023763e-15 -1.60477965278138e-16 -4.19861058086308e-18 2.29346146298011e-30)
(-0.0102276624390939 2.00753054862369e-05 -2.00953424901869e-15 0.179471995348896 0.0108017612673177 1.64689827541813e-16 0 0 0)
(-0.0136318006521448 4.44412632241469e-05 -8.96526364197637e-20 0.0347667518427064 0.0143630570633218 7.2670153083115e-19 0 0 0)
(-0.0171631165009591 6.90887624081138e-05 4.22209498461809e-22 -0.146553936248395 0.0181434327681571 -1.91787835523623e-18 -1.10159092132682e-21 1.56985700375429e-23 -1.20778901690746e-38)
(-0.0205954165272961 8.81573676688208e-05 1.78533872921306e-19 -0.363675644076299 0.021855316140854 6.93202635096297e-19 -2.7877170084866e-21 1.19326449624393e-23 2.41656639220712e-38)
(-0.0236769452541051 0.000100208287310361 -4.22209498465149e-22 -0.612819301694431 0.0252410602473 4.87581602003034e-19 3.88930792984156e-21 -2.76312150011368e-23 -1.2087773753019e-38)
(-0.0262236380751253 0.000103763360568127 -1.96495676155887e-15 -0.888293340208673 0.0280827179985447 1.13557511330355e-16 0 0 0)
(-0.028122845835265 9.93687565126479e-05 -1.98646974887517e-15 -1.18312645175631 0.0302484560134207 4.55084641824615e-15 -6.74699380447261e-16 1.73025415187665e-17 2.66990707689126e-30)
(-0.029350707473605 8.85851480966027e-05 1.96486788032223e-15 -1.49011488391957 0.0316964545221882 3.61269246110864e-15 -8.56875409257849e-16 1.81617552794036e-17 2.01203014850269e-30)
(-0.0299546255541865 7.37227170640433e-05 1.98646974887536e-15 -1.80258573670186 0.0324667464420514 -9.7472611747236e-17 0 0 0)
(-0.0300324321191614 5.70459425986219e-05 -3.08523690694487e-31 -2.1149573561902 0.0326561529194552 -3.12853580334793e-19 9.67216659810923e-32 -1.49302913669106e-33 1.43037472731115e-50)
(-0.0297067413713773 4.04403204597383e-05 -1.5132726959608e-31 -2.4229926953227 0.0323918698596993 -3.06434152112832e-19 -2.21586535947618e-31 2.96179291045659e-33 -2.80204986817187e-50)
(-0.0291047341349715 2.52155069466152e-05 -1.81932246323612e-15 -2.72383153198163 0.0318083706467355 6.02048714720257e-17 0 0 0)
(-0.0283441175812398 1.21334211931775e-05 -1.83278317811655e-15 -3.01586675843876 0.0310317345117641 3.20409047575173e-15 -1.65643531154152e-15 1.7077108226505e-17 1.79779145843583e-30)
(-0.0275258302649134 1.5133492514204e-06 1.8193224324549e-15 -3.29854599140444 0.030171029312953 2.7248801689062e-15 -1.82099824297831e-15 1.66284459085243e-17 1.47573866406245e-30)
(-0.0267316673850502 -6.63130399560641e-06 1.83280389497453e-15 -3.57215243628084 0.0293153140312448 -4.51138715414199e-17 -9.0457412861464e-22 -2.24397002513072e-25 6.2020335743991e-35)
(-0.0260251024044291 -1.24761746740859e-05 3.07811620463699e-23 -3.83760009957738 0.0285341752726297 1.14029875164627e-19 1.14209542907858e-20 -2.70544046351809e-23 -6.99997109163096e-40)
(-0.0254536877021563 -1.6300163205607e-05 -2.07168579580987e-20 -4.09625909503911 0.0278800886843889 -1.42857205694125e-19 3.7445599297822e-31 -2.54905525499911e-33 1.30941238887518e-50)
(-0.0250519591355985 -1.84324060140011e-05 -3.02366183039332e-31 -4.34981517569914 0.0273913727996643 7.15097757177818e-20 1.98810916134977e-31 -1.25218874179518e-33 -3.26944559282044e-51)
(-0.0248441902036831 -1.922445493757e-05 -1.51265121036778e-31 -4.60016057982022 0.0270950165443812 -7.0796391649638e-20 0 0 0)
(-0.0248466844488331 -1.90400760341602e-05 -5.28451133471032e-21 -4.8493102998184 0.0270090228086734 0 0 0 0)
(-0.025069498731799 -1.82559756456128e-05 5.27015700526511e-21 -5.09933705092445 0.0271441448681446 6.50242502779762e-21 -4.13512539611968e-21 5.88607643277196e-24 -1.21434204457704e-43)
(-0.0255176065494473 -1.72686908553819e-05 5.28451133471099e-21 -5.35231859950419 0.027505017966168 -6.18297129576038e-21 4.1351253961191e-21 -5.88607643277114e-24 1.21434204457687e-43)
(-0.0261915624822851 -1.65044453604758e-05 -5.27015700557722e-21 -5.61029196618799 0.0280907492940577 7.08931947310243e-20 0 0 0)
(-0.0270877409856028 -1.64302905923652e-05 2.21177184775489e-33 -5.87520997388513 0.0288950442679319 -2.12285991163558e-19 -5.36988071006312e-31 2.64195351244255e-33 -1.94115417440705e-50)
(-0.0281982104044476 -1.75657783323963e-05 3.13068976189777e-31 -6.14889641112316 0.0299059352439594 1.40573621004223e-19 0 0 0)
(-0.0295102811387835 -2.04948040547825e-05 0 -6.43299663793397 0.0311051572358333 1.42959000630018e-19 0 0 0)
(-0.0310057410046075 -2.58772067688846e-05 4.54751339885608e-20 -6.72892075279068 0.0324671894652641 -2.83685118437982e-19 0 0 0)
(-0.0326597529053621 -3.44603383351346e-05 -4.53117234796373e-20 -7.0377764279377 0.0339579502671237 3.89938689877392e-19 4.66281875429106e-20 -3.70315417287579e-23 -1.10593115347961e-41)
(-0.0344393266673938 -4.70918021056247e-05 -4.54751339882236e-20 -7.36028803963935 0.0355330713327094 -5.41359878273705e-19 -4.66281875428986e-20 3.70315417287484e-23 1.10593115347932e-41)
(-0.0363012017632948 -6.47335739616647e-05 4.53117234796407e-20 -7.69669756072506 0.0371355993387035 2.89410245239469e-19 7.0338117288774e-31 -3.39575398914282e-33 -2.6310349408765e-50)
(-0.0381888873248321 -8.84764065960923e-05 -3.38488108012827e-31 -8.0466408075264 0.0386928801711684 -1.3931164910213e-32 0 0 0)
(-0.0400283224456294 -0.000119566525640203 2.19547503716497e-15 -8.40898952145502 0.040112197237949 1.08431075980933e-16 0 0 0)
(-0.0417211637420369 -0.000159458792777136 4.46659591635023e-15 -8.78164345118296 0.0412742976933343 -8.14219598076716e-16 4.85951742022716e-15 -2.27390234858304e-17 3.88600811301879e-31)
(-0.043135105006205 -0.000209814392799098 7.95874723107026e-17 -9.16124801852079 0.0420237376900474 -2.42686316316374e-15 1.00882210305038e-14 -4.62977216129198e-17 2.69082024775611e-30)
(-0.0440901886189207 -0.000272471309118654 -4.46659591635064e-15 -9.54280851541981 0.0421552033435298 -1.703119477997e-15 5.22302775388362e-15 -2.32321168001145e-17 1.01563924149317e-30)
(-0.0443312716907516 -0.000350070527634114 -2.27506250947584e-15 -9.91914501492974 0.0413908440212131 -1.39819202014301e-16 -9.06380978247819e-31 3.78706427515654e-33 5.78835723598359e-50)
(-0.0434774567690677 -0.000446490344658733 -1.20145464894158e-19 -10.2800372408734 0.0393381731937933 -6.88344500386854e-19 0 0 0)
(-0.0409912562940285 -0.000562352702229835 1.19705004107203e-19 -10.6109462686079 0.0354418630464938 7.29370692573784e-19 -1.48306301335373e-19 -2.40034514067829e-22 -5.96190917933113e-41)
(-0.0361297562295933 -0.000694875796118217 2.86631625811356e-15 -10.8914966415915 0.0289339735242779 2.24096336399964e-16 1.48306301335373e-19 2.40034514067829e-22 5.96190917933115e-41)
(-0.0273941275513586 -0.000871748254557712 2.9345188157739e-15 -11.0926075408042 0.018538108270539 -2.92433454551029e-16 6.1583570525687e-15 -1.01037761005262e-17 3.71983823651893e-32)
(-0.0118075906079252 -0.00114618560029524 -2.86619611264848e-15 -11.1681316888426 0.00169863858542451 -1.89908240741314e-15 6.09529766304258e-15 -1.14936260761857e-18 1.18608037790272e-30)
(0.0129352982583618 -0.0013813450666868 -2.93463852077822e-15 -11.0464050879546 -0.0254105719330581 -2.53640106275239e-16 0 0 0)
(0.0494189199202494 -0.00133800255492086 1.68263663195901e-19 -10.6407545276234 -0.065995690828385 1.59280347087281e-20 0 0 0)
(0.124182434722394 -0.0028003953763857 -1.70144290095868e-19 -9.8048543145424 -0.128462454552198 9.06196007778169e-19 1.33253992625869e-19 1.35436143299019e-21 2.54554482478551e-40)
(0.25789683014197 -0.0130314220187073 -2.04921907965904e-18 -8.1332688631439 -0.258575697377992 -1.14347531762972e-18 -1.33253992625837e-19 -1.35436143298986e-21 -2.5455448247849e-40)
(0.492191397911749 -0.00531233242543398 1.30692902189884e-17 -5.38748625590194 -0.542793068420107 2.9873091496606e-19 -1.11089807205679e-19 -1.24505437841638e-20 2.97622283435787e-36)
(0.808161163553038 0.138911600026449 4.08076899493689e-18 -2.97201778371042 -0.775247922125835 -1.1719100896677e-17 1.11635362601302e-19 1.25116876596529e-20 -2.99083888660157e-36)
(0.926052601809731 0.348019362936422 7.76972722562551e-17 -2.19986692771654 -0.930797160638509 -1.69052391380589e-16 0 0 0)
(1.05248604562208 0.580680681202141 1.14803686591576e-16 -1.81864840766929 -1.06233023120578 -2.06377304301319e-16 6.71212278642808e-18 3.90463219308387e-18 7.65970433462132e-34)
(1.25162026831326 0.88901116456568 -1.59990717010174e-16 -1.72919174936801 -1.26930027169237 1.48364396710478e-16 2.27891801216405e-20 1.58586498431178e-20 -3.55721233567522e-36)
(1.53298863838154 1.31132243883555 -9.02345948544426e-18 -1.77711684940816 -1.5540404561926 4.12459716078814e-17 0 0 0)
(1.89342575901332 1.87427167583013 -9.56150525018858e-17 -1.90616305773291 -1.91710821587295 9.60671323993673e-17 8.7244065323392e-18 8.76388302453449e-18 -4.38263882005224e-34)
(2.34120148488542 2.60444859332318 9.88543946882486e-17 -2.09977141943383 -2.36225689095096 -8.86084480055464e-17 -3.34579925030542e-20 -3.78944612078509e-20 7.50391435368684e-38)
(2.88010707440169 3.50709938251194 6.21500189539382e-17 -2.35712635419326 -2.8916536153724 -2.95631634133663e-17 1.2074943602503e-17 1.47996125222997e-17 1.64951566188293e-34)
(3.4745223415394 4.52725739953531 -1.89479931113136e-16 -2.65107590033436 -3.47071296110348 1.05016378274937e-16 -1.41182200019751e-17 -1.84692522964176e-17 5.92100641288362e-34)
(4.08260033458095 5.59472446776524 -4.12691010615692e-17 -2.9520723570139 -4.05733475040106 3.02329579405011e-17 7.25795958420989e-21 1.21613975728633e-20 -5.45335208314993e-38)
(4.67451855755121 6.64674918481215 1.55547495201874e-16 -3.24624143333207 -4.62344994771036 -1.06159563281578e-16 1.83525450513624e-17 2.61350119088263e-17 6.00591910208071e-34)
(5.22715779724118 7.62696366260662 1.13708361853046e-16 -3.52554902415117 -5.14744047358387 -7.54954075846201e-17 8.65705166844341e-20 1.23062974914822e-19 3.3538032957599e-36)
(5.72194838719224 8.4851683471033 4.23174096031249e-17 -3.78412565907002 -5.61076305205578 4.54142331907358e-18 -8.97822979882459e-20 -1.2762863279883e-19 -3.47822998436624e-36)
(6.12478687627617 9.15709014816225 -2.97614924418987e-16 -4.00367953462566 -5.9830545591043 1.93748897610326e-16 0 0 0)
(6.38698901728973 9.59040259016843 -4.2847603975471e-17 -4.14407047475042 -6.22153167669955 -5.30105016863717e-18 -5.30698099150253e-20 -7.49350038272659e-20 -1.97335675145993e-36)
(6.49687444704725 9.8144748516262 1.14521390859945e-16 -4.17713418817806 -6.31287461134654 -9.04035123772621e-17 5.48543913020939e-20 7.74548472803361e-20 2.03971492636842e-36)
(6.47517377908745 9.8643747001299 -6.08776522580373e-17 -4.11741302173631 -6.27848389071035 3.91646394186651e-17 -2.45692478947822e-17 -3.74644163428558e-17 2.36670900525035e-34)
(6.3335921355154 9.75266756576778 -4.02016017739489e-17 -3.97481378607122 -6.12911346912569 4.37404342217361e-17 -2.40141723371073e-17 -3.7015013298683e-17 2.45912366364028e-34)
(6.08005006597272 9.48385439702417 -1.86487884751589e-16 -3.75801887415033 -5.87239302704087 1.5248609252166e-16 0 0 0)
(5.72031016666422 9.05619721148998 7.60136789896884e-17 -3.47492483673222 -5.51327478943394 -4.79094931170516e-17 2.13820108490135e-17 3.39149831573576e-17 2.92525804816098e-34)
(5.25534246872627 8.46109481207346 -5.24248886365117e-19 -3.13151899447967 -5.05417661751024 1.27582348211877e-19 0 0 0)
(4.6978773200196 7.69819380950292 -2.26175112046059e-16 -2.74119322165257 -4.50304159146091 1.15704049706253e-16 0 0 0)
(4.03253508006367 6.69913022167333 -9.60968101980985e-17 -2.31088518443622 -3.84724196034059 5.69667551680986e-17 -1.47476684385922e-17 -2.45473250593961e-17 3.62541568412872e-34)
(3.1651543327567 5.27008120455828 -1.88754107118339e-16 -1.7982829382455 -3.00056120717986 1.27923307245319e-16 -8.12188939469814e-21 -1.19089035034729e-20 9.71039493683526e-39)
(1.96315259007712 3.25672702581124 -3.20487953594868e-19 -1.09817565430288 -1.83240554128164 -4.54015498952707e-19 -1.45395158784527e-21 -1.91701694923096e-21 4.04141623661165e-37)
(0.194672154636559 0.446403768212277 8.01401445788735e-17 -0.0184165745269806 -0.133596096700572 -6.76521334174715e-17 1.25606072214034e-19 8.35722616434121e-19 4.11411189976615e-34)
(-2.3879068354163 -3.28579208356641 1.95526953519682e-16 1.72802019047402 2.34994585961878 -1.47100295263337e-16 1.01710882092892e-17 1.38312955598905e-17 -8.65695774038922e-34)
(-6.49286174539919 -8.30553125502 4.36274672018447e-18 4.95044624312344 6.24086136365207 2.0717854314525e-19 -1.13772438607658e-21 -1.44435338408898e-21 1.04626810385826e-37)
(-12.610367324297 -14.065279393144 -2.9773183414319e-16 11.0500206661511 12.0557386539362 2.58785029879391e-16 5.60522628565583e-17 6.11170825842624e-17 1.31036233118146e-33)
(-21.222213146097 -18.6459811533808 5.85586851765471e-17 23.572467507113 20.06790129351 -3.72737687454511e-17 -1.0493606029442e-16 -8.9273328755316e-17 1.63326185161647e-34)
(-24.2750010906218 -14.223746802331 -1.53308270147987e-17 41.5711783020549 23.2426485827477 3.07725493405676e-19 0 0 0)
(-14.3578323488113 -4.59812043926293 -4.38623863201816e-18 49.0487911373561 13.9925954214298 1.54093469537846e-17 -8.22260650264662e-17 -2.34405881700148e-17 -2.58445899841401e-35)
(-3.15188304395684 -0.553936933169686 -4.62535233314137e-19 34.9689548682577 3.15854238796374 7.32568188772984e-18 -1.02823661773877e-20 -4.70506754362032e-22 -1.66157364235193e-43)
(-0.450551691557101 -0.0570438151566437 7.97567963116241e-22 19.9084408326846 0.344217057655853 8.6078081520773e-21 1.02540680848072e-20 4.69211873060878e-22 1.65700082672277e-43)
(-0.204289454337814 -0.0954469985168534 4.23738780099769e-21 19.5459589632735 0.184291183401665 -3.03550132692405e-22 0 0 0)
(0.556746387103586 -0.177896305125952 -1.0560765132229e-19 18.2048732044053 -0.601782248623201 -6.22027067211823e-19 -7.38344151899355e-18 2.45484651445014e-19 2.51517139850254e-37)
(1.91213205513194 -0.315368602074536 -1.9418840125176e-19 12.0849298757366 -1.78899378260874 -6.94017139735244e-19 3.55853457455427e-17 -6.32915466430378e-18 -1.66498317804092e-36)
(-0.238970219031252 0.71031813001312 5.11589682299883e-18 1.5339750248613 0.319269542732904 1.35725418092001e-19 0 0 0)
(-3.16893505029985 3.29780366824401 6.44553622395534e-18 -3.23528017776987 3.2899769351484 7.88641802313704e-19 3.44546624016344e-17 -3.28745130754307e-17 -1.73902477348584e-34)
(-3.10527803724843 3.65744723697496 8.02807160941721e-17 -2.80312954803191 3.17373418852936 7.18271488865073e-17 1.51181476766415e-17 -1.72915296887929e-17 -6.78425090187597e-35)
(-2.28790524384224 3.08467145497159 9.92162686443499e-18 -1.79052523621998 2.34411293480901 -1.80403055541258e-20 -9.34013499463504e-21 1.14961879256235e-20 1.06354018627431e-37)
(-1.80323165353663 2.67589537477063 -1.8305060786215e-17 -1.26066979276989 1.83868455638819 -1.18418082181583e-17 2.2369580904202e-17 -3.27459374433939e-17 -5.82787984881642e-34)
(-1.40583907089789 2.20454673367275 -8.28727216517365e-17 -0.923233568058984 1.43222791471497 -2.79484453014704e-17 -1.19129692667567e-21 1.81389597633992e-21 6.01383094949753e-38)
(-1.10155465481939 1.78733521562011 2.01520892852142e-17 -0.693940291177319 1.11843480511331 1.22534794349291e-17 -1.28763076879725e-17 2.08511190626184e-17 -6.25499259329677e-34)
(-0.882211723278453 1.46449372530037 9.38854567230561e-17 -0.540312892864935 0.893670113087005 4.35766187686205e-17 -3.4289869090554e-18 5.67249617708341e-18 2.79686799749054e-34)
(-0.747175697566186 1.25381751845251 -1.15919532828267e-17 -0.450081581214625 0.755202847568111 3.9495681366615e-19 -8.00584462795848e-21 1.34678912746955e-20 -5.69662806667483e-37)
(-0.667801721366753 1.11375855790851 6.11259485568982e-17 -0.40282438538974 0.673752562484487 4.44333944513612e-17 -2.49483373121341e-18 4.15343844852995e-18 -2.74426346250482e-34)
(-0.619174278614459 1.01901675299247 5.75456340360535e-17 -0.377537249295737 0.62365643622353 2.793438424331e-17 -4.66051014679849e-18 7.67165893669625e-18 -2.86397702812915e-34)
(-0.588870249543389 0.957180083780901 1.11589476670374e-17 -0.3632298741084 0.592563697393977 -7.15465738178352e-19 -6.51986863215527e-21 1.06799280524642e-20 -5.32197417823108e-37)
(-0.57129873818056 0.917690647291957 -1.29496601987187e-17 -0.356442523686449 0.574602254483125 9.23143035892733e-19 0 0 0)
(-0.560013197563005 0.888828790407826 -6.63489783213943e-17 -0.3535916437655 0.563133219252203 -3.2541915616881e-17 -2.140181574208e-18 3.3741375169233e-18 -9.51851122175566e-35)
(-0.549575153936186 0.861892615548351 1.1225488440497e-16 -0.351307295143663 0.552761039778203 6.37615223087635e-17 -4.17134028008713e-18 6.53088670483523e-18 2.98741744303677e-34)
(-0.535345665296692 0.828888845146481 1.03892950425628e-16 -0.346756869607332 0.538617679478312 4.78098262765054e-17 -1.1998860569245e-20 1.868845893056e-20 -1.09255558375039e-36)
(-0.511950507157963 0.780948818090373 2.06807750896324e-18 -0.336683812498166 0.515355968566411 1.26281216295569e-18 3.97898723389205e-18 -6.08123279995525e-18 -2.99403578297574e-34)
(-0.474140442073187 0.708779038145652 -1.35361772017718e-17 -0.317566740489087 0.477111884897878 1.39706933734668e-18 -2.20010342546463e-20 3.35260987276893e-20 2.223685626092e-36)
(-0.418462336053845 0.604750019333667 -1.46881400491874e-17 -0.288293231316056 0.420473788389547 1.80211674251843e-18 0 0 0)
(-0.345482953995807 0.471317339095385 2.34598946198186e-17 -0.249227227489745 0.345864115371728 1.62730842282057e-17 -1.27468199027868e-18 1.84439292160088e-18 -9.23207917448124e-35)
(-0.256730195853197 0.316165135997816 1.43435377869391e-17 -0.199876685748808 0.254863181823538 -1.68794051555008e-18 0 0 0)
(-0.155302881487777 0.151226240837818 -8.28795560865784e-17 -0.139727501532668 0.150783997673857 -3.23660875376067e-17 -3.16831060666876e-21 3.05303497775817e-21 -4.802824921861e-36)
(-0.0467153443756876 -0.00704432594743176 -2.87523154252562e-17 -0.0688797922681386 0.0395169347901059 -2.05311355247976e-17 -2.39179629014967e-19 -6.84602629411396e-20 -4.82920156895501e-34)
(0.0606384706246474 -0.138959875048316 4.64940958496258e-17 0.0114872938578499 -0.0699677032184105 -6.44790087260587e-18 -8.2654523184483e-21 1.09063621749115e-20 -2.3795222711488e-36)
(0.155228746066935 -0.225202427747443 1.5986210215998e-17 0.0983702020163446 -0.165536690257099 4.72545391079528e-17 -9.91397393469359e-19 1.14591356943911e-18 -8.58703907799776e-35)
(0.224623312112018 -0.255814468214209 -1.56085109865308e-18 0.186384236779447 -0.234809714363117 1.83897683308596e-17 3.5781548247089e-18 -3.82491004301723e-18 -6.6324712848144e-34)
(0.259708353214058 -0.234921983112836 4.83037378974969e-17 0.267719366953765 -0.268814820669366 -6.56221903820204e-18 1.58995526342369e-20 -1.5434771835355e-20 -4.37310113158262e-36)
(0.255647105463983 -0.176003530559282 2.37098556149617e-15 0.332736954992558 -0.262877170367985 -3.52790669020445e-16 -3.02926538393103e-18 2.2505632899502e-18 -8.67747265462388e-36)
(0.215707135902421 -0.101596369368882 6.7144782938957e-15 0.374106028113471 -0.2212682551695 7.00027572245277e-15 -2.36134768283873e-16 1.29477858563554e-16 -2.14105429691364e-30)
(0.151893859951487 -0.0350659946308685 1.22555799730642e-15 0.389311623031831 -0.155383981201362 8.95547925334284e-15 -2.21525321771701e-16 8.33258687323703e-17 -1.34306040765455e-30)
(0.0802269577551128 0.00705354278123283 -2.3823643259527e-15 0.390284376912821 -0.0827814522346095 2.4706103521903e-16 1.37325923426458e-18 -2.81251459064372e-19 -1.29923700909503e-37)
(0.0106341704927525 0.0133395233209051 8.39492941315548e-18 0.380569967478533 -0.011686210193961 -1.77223542560204e-18 2.89133953381178e-22 -1.78799790325502e-21 -1.10072058360259e-36)
(-0.00523904702236607 0.00253519418184673 -2.70693376883847e-19 0.34997568895139 0.00457962718163453 -1.14891634300582e-18 6.84077650092907e-22 -3.31027698557224e-22 3.5345223733225e-38)
(-0.00880715800818406 0.000443546910512501 1.35141535291941e-19 0.309014516431523 0.00847710517212313 4.12724190125201e-19 3.12393911273484e-20 1.80488730914615e-22 -5.28579123469589e-38)
(-0.0132541085372244 0.000603892823937557 -3.02786746532545e-15 0.250734400129762 0.0127201290676876 2.73476527955152e-16 -1.50447074095321e-20 -1.19201972342453e-22 1.76060439627323e-38)
(-0.019727476577036 0.000895566935200474 -2.93699366976381e-15 0.170443769434825 0.0194704365326114 -1.06019179158379e-14 1.98757577087573e-16 2.80110053014787e-18 -3.12370741253907e-30)
(-0.0280866910034364 0.00109276228785278 3.02800095039193e-15 0.0600223794924278 0.0277153660204353 -1.14395477729385e-14 1.49155058935663e-16 3.93848743080615e-18 -2.11108370413413e-30)
(-0.0374987951051999 0.00125490598326204 2.9369944479079e-15 -0.0832533746874012 0.0371546999927131 -2.42493510795273e-16 7.07084448299797e-21 4.57675965580643e-22 -3.83492006106026e-34)
(-0.0476089738996755 0.00134365506208474 -1.33015377020886e-19 -0.261604743674929 0.0471815033739153 7.33719080969225e-19 4.04192514417984e-21 -7.96977660323031e-22 1.74431106149194e-38)
(-0.0576331850554605 0.00134640506695262 -3.22571162753811e-21 -0.473643424283632 0.0571332674953538 -2.58800491085803e-19 -1.56091833559582e-20 1.76975935720903e-21 -3.53074118052709e-38)
(-0.0668850708030005 0.00125170239623778 2.69837758731195e-19 -0.715697332744403 0.0662645513843955 -6.58612075029687e-19 1.15672582117753e-20 -9.72781696885685e-22 1.78643011903453e-38)
(-0.0747051986593987 0.0010742933415158 -6.93225870879687e-20 -0.981689418193793 0.073948421835755 1.8030449251474e-19 -2.71084801754928e-32 1.11434910234249e-33 2.15039514524328e-50)
(-0.0806836023015813 0.000839548696782914 2.88042785156805e-15 -1.26436566512186 0.0797678983392876 -1.65957981814298e-16 2.02951029697651e-20 -6.93058033218924e-22 -1.8805709164129e-34)
(-0.084653693001943 0.000580262161731416 2.76527287452288e-15 -1.55623480624637 0.0835698260115581 1.07840723779557e-14 6.66597250778942e-16 -1.70608959020655e-17 -2.63332045037794e-30)
(-0.0866986548481033 0.000327343051309378 -2.88030750471917e-15 -1.85052054681018 0.0854445319872056 1.11785078074933e-14 8.11952693305174e-16 -1.71753405189596e-17 -1.88631250672558e-30)
(-0.0870771660391172 0.000104619745714097 -2.76539577266193e-15 -2.14172132741569 0.0856612762759342 1.3631577163592e-16 6.864914154136e-20 -1.51145497892428e-21 -1.80550880262112e-34)
(-0.0861486676337407 -7.37843728313047e-05 -1.7832989307666e-19 -2.42585449593234 0.0845871438831607 -1.98297690835611e-21 -3.716705065626e-20 7.59142615797416e-22 3.99221011950488e-39)