/*--------------------------------*- C++ -*----------------------------------*\
  =========                 |
  \\      /  F ield         | OpenFOAM: The Open Source CFD Toolbox
   \\    /   O peration     | Website:  https://openfoam.org
    \\  /    A nd           | Version:  7
     \\/     M anipulation  |
\*---------------------------------------------------------------------------*/
FoamFile
{
    version     2.0;
    format      ascii;
    class       volScalarField;
    location    "20000";
    object      k;
}
// * * * * * * * * * * * * * * * * * * * * * * * * * * * * * * * * * * * * * //

dimensions      [0 2 -2 0 0 0 0];

internalField   nonuniform List<scalar> 
15600
(
4.91878872684917e-06
3.73622371121787e-06
1.74332003822591e-06
5.42197474559781e-07
9.96756107135051e-08
5.10024904415125e-08
3.82299444405206e-08
1.72306170624671e-08
6.84108374306562e-09
3.12989128093334e-09
1.88040808633615e-09
1.56641825379986e-09
1.62379696231328e-09
1.86437750159042e-09
2.22366366473969e-09
2.71283141884055e-09
3.36796798631923e-09
4.21288470391421e-09
5.27651281706402e-09
6.58902576577103e-09
8.19167221380722e-09
1.00558086264536e-08
1.21146743692057e-08
1.42876381468833e-08
1.637368424567e-08
1.80673626973555e-08
1.89853504325091e-08
1.87845507373207e-08
1.73296539758757e-08
1.47386981534538e-08
1.15791920659508e-08
8.68357055324009e-09
6.65648950537874e-09
5.69930731946053e-09
5.7662972780036e-09
7.18696930676387e-09
9.44003064684603e-09
1.24706077117156e-08
1.64427232232837e-08
2.16957222935707e-08
2.85692473337402e-08
3.74029430374312e-08
4.85264244835279e-08
6.22419299423814e-08
7.87659857994323e-08
9.82056230248868e-08
1.20552206332808e-07
1.45691295571023e-07
1.73425866396408e-07
2.03508441550469e-07
2.35674923317052e-07
2.6967473971203e-07
3.05294179053386e-07
3.42372263410033e-07
3.80810074612342e-07
4.20575236451743e-07
4.6170335136163e-07
5.0429794408871e-07
5.48530082621624e-07
5.94638491306101e-07
6.42930697079143e-07
6.93785576295515e-07
7.47657587768883e-07
8.05082978339134e-07
8.66688314080759e-07
9.33201816950424e-07
1.0054681786163e-06
1.08446779458674e-06
1.17134174505541e-06
1.26742438243025e-06
1.37428617749509e-06
1.4937907621076e-06
1.62817235077677e-06
1.78014383227846e-06
1.95305463460088e-06
2.15113887017264e-06
2.37994163412176e-06
2.64711695154827e-06
2.96409392046313e-06
3.35000997245825e-06
3.84172497310592e-06
4.5038438182839e-06
5.30603510060439e-06
6.17907533882123e-06
6.965644106726e-06
6.21169169473871e-06
2.81025144071324e-06
1.49307807596591e-06
9.71163368619058e-07
7.39456601969377e-07
6.64528768605144e-07
6.55592163759013e-07
6.81880277869325e-07
7.39805449540462e-07
8.26717871251691e-07
9.35743963944399e-07
1.06278663918978e-06
1.20639575347841e-06
1.3677158892508e-06
1.55142609349536e-06
1.73892440735724e-06
1.89073128184439e-06
1.99719577114773e-06
2.06031980666791e-06
2.08498677571188e-06
2.07793447589977e-06
2.05012253500965e-06
2.01782190021082e-06
2.0378972517299e-06
2.16502324558022e-06
2.44879862135488e-06
2.99365893661067e-06
3.97221461041008e-06
6.11079392337797e-06
1.10572218184469e-05
2.32844606620001e-05
2.98421594115672e-05
1.86884822317881e-05
1.01684104713394e-05
6.24308373691014e-06
0.000158373189405131
0.000120496984750694
5.70743680388624e-05
1.86505381167985e-05
3.71641335651642e-06
1.73633963085927e-06
1.2929038417368e-06
6.10205573321606e-07
2.4769253445993e-07
1.11692199409022e-07
6.47725116351344e-08
5.20661828468461e-08
5.28902041935378e-08
6.017990224474e-08
7.14617483267187e-08
8.69052835076755e-08
1.07648892288006e-07
1.34474298158659e-07
1.6830800487965e-07
2.10096331589348e-07
2.61281133542195e-07
3.21202954391025e-07
3.87760806621885e-07
4.58558283586046e-07
5.27508764909579e-07
5.85075114706552e-07
6.18927251959498e-07
6.1724123755733e-07
5.74338710854575e-07
4.92580802102395e-07
3.89215577582177e-07
2.91702352524669e-07
2.21735420281427e-07
1.88049333028578e-07
1.88813613016142e-07
2.34134123490467e-07
3.07186194946556e-07
4.0572489223624e-07
5.34828087119037e-07
7.05514886387465e-07
9.28747237414296e-07
1.21548167747543e-06
1.57630240197641e-06
2.02091980061156e-06
2.55633926890927e-06
3.18592260404048e-06
3.90933928273689e-06
4.72285413331235e-06
5.62007932341297e-06
6.5930108001126e-06
7.63311737394227e-06
8.73230998029838e-06
9.88369123764096e-06
1.10820648879853e-05
1.23242346931592e-05
1.36091476143709e-05
1.49379390550444e-05
1.63139300224709e-05
1.77426137690511e-05
1.92316580521644e-05
2.07909403382569e-05
2.24326276875454e-05
2.41713104023482e-05
2.60241985147629e-05
2.80113922978207e-05
3.01562420054171e-05
3.24858181473222e-05
3.50315222345614e-05
3.78298801233112e-05
4.09235770446363e-05
4.4362818540378e-05
4.82071422696423e-05
5.2527876675898e-05
5.74115717567106e-05
6.29650022931183e-05
6.93230135840198e-05
7.66619607025098e-05
8.52247420538665e-05
9.53726974082693e-05
0.000107707354301498
0.00012339533879145
0.000143972065942695
0.000167474268477942
0.000191386341028048
0.000208137370293702
0.000181105095642108
8.67437545997289e-05
4.68752162910521e-05
3.08912636714091e-05
2.38694807476876e-05
2.16909297922285e-05
2.15589400576574e-05
2.25460878719698e-05
2.4560781475053e-05
2.75045896481388e-05
3.11502748669633e-05
3.53724004290425e-05
4.01321419663249e-05
4.54738455028106e-05
5.15064699802811e-05
5.74853427445219e-05
6.2208324289967e-05
6.54755824865203e-05
6.73735459520971e-05
6.80658796955053e-05
6.77792321128593e-05
6.68843360349357e-05
6.59867127944918e-05
6.69496115554387e-05
7.15115659780657e-05
8.13527243123719e-05
9.99570805493016e-05
0.000133520346985576
0.000205900568729739
0.000367423638662597
0.000725314206443016
0.000908395579459456
0.000584550312999641
0.000322701899017749
0.000201064220143513
0.00112912455876975
0.000863241750126818
0.000415278350655298
0.000142927652272869
3.07226173747787e-05
1.32163097339702e-05
9.78490822635635e-06
4.83309389533051e-06
2.01299713562929e-06
9.00612292030653e-07
5.06438303953764e-07
3.93346962003536e-07
3.91528929328381e-07
4.41272929431082e-07
5.21466881969389e-07
6.31919455661083e-07
7.80698482800544e-07
9.7357916248249e-07
1.21726078595224e-06
1.51845519765272e-06
1.88777547136439e-06
2.32327039008606e-06
2.80970073960714e-06
3.33051966155597e-06
3.84418859360133e-06
4.28395420683249e-06
4.56207449283118e-06
4.58801710423481e-06
4.30951391734537e-06
3.73234209989356e-06
2.97239365920584e-06
2.23154658372763e-06
1.68270437546146e-06
1.41245391560654e-06
1.40360639807735e-06
1.72846370202926e-06
2.2650042327814e-06
2.99130895668811e-06
3.94271575999157e-06
5.2004603937069e-06
6.84458067710563e-06
8.9505009322356e-06
1.15969173699412e-05
1.48558007396759e-05
1.87746866860831e-05
2.33759435950332e-05
2.86548869546902e-05
3.45820644853023e-05
4.11089268926403e-05
4.81754921124266e-05
5.5718309000841e-05
6.36774653411725e-05
7.20019390680643e-05
8.0653169531456e-05
8.96070861341995e-05
9.88550054611122e-05
0.000108403821256428
0.000118275847477741
0.000128508581468176
0.000139154569140582
0.000150281488822349
0.000161972528792101
0.000174327112934211
0.000187462026839634
0.000201513008775822
0.000216636894300825
0.000233014440407388
0.000250854006766659
0.000270396343006289
0.000291920826525343
0.000315753631659295
0.000342278522965432
0.000371951317871257
0.000405319683014377
0.000443051230841119
0.000485975984968814
0.000535155984340626
0.000592009854790577
0.00065856174032321
0.000737977081319825
0.000835661676390437
0.000943410368877504
0.00105253778320756
0.00114108756289057
0.00116017543289034
0.000978427695403456
0.000542074605110829
0.000319830938181938
0.000220650894780766
0.000175769490698906
0.000161526076206311
0.00016162813980958
0.000169723420061213
0.000185274230768468
0.000207486577529667
0.000234690940645401
0.000266013999546648
0.00030121499036154
0.000340597309531067
0.000384064661891603
0.000425126146023256
0.000457089179569276
0.000479040215673665
0.000491688485193486
0.000496184702601193
0.000494148789783103
0.00048827372733664
0.000483283361270011
0.000492284516624996
0.00052761756548797
0.000601866455693889
0.000739384747493999
0.00098424688342261
0.0014879783862325
0.00251345856342432
0.0044255475409893
0.00539835945648512
0.00385739686854564
0.00220133213794337
0.00141527331346459
0.00376705372240585
0.00296921122563036
0.00149551834019478
0.000554990916339704
0.000130643324594859
5.17665721239379e-05
3.79669231747539e-05
1.9638707546899e-05
8.42378226102243e-06
3.75982323900585e-06
2.0561214976793e-06
1.54160016810021e-06
1.50046065930141e-06
1.67280265744867e-06
1.96584360973011e-06
2.37265526804564e-06
2.9223480771114e-06
3.63673144259219e-06
4.54060864431793e-06
5.65809111835362e-06
7.02634830462239e-06
8.64876141307491e-06
1.04679603271406e-05
1.24232882446151e-05
1.43685935137699e-05
1.60659078679461e-05
1.71994518773202e-05
1.74320902885219e-05
1.65301617688743e-05
1.4470980425512e-05
1.16386063527655e-05
8.77644924230219e-06
6.57879658355187e-06
5.46956471438563e-06
5.38347519571332e-06
6.60068837019103e-06
8.64840131076005e-06
1.14247618045284e-05
1.50638086244092e-05
1.98757428927134e-05
2.61202199094335e-05
3.40870181403855e-05
4.40804210229715e-05
5.63282608708697e-05
7.09738982932209e-05
8.80604421961094e-05
0.000107527343346856
0.000129223374447705
0.000152931692737721
0.000178400676431121
0.000205374013967688
0.000233615606730998
0.000262927269623116
0.000293159353372882
0.000324215612690222
0.000356054084996773
0.000388685627482918
0.000422171411118892
0.000456620267854347
0.000492186449828907
0.000529068113766725
0.000567506690332906
0.000607787217919122
0.000650239697068972
0.000695241532820921
0.000743221163264847
0.000794663014180371
0.000850113958095091
0.000910191479697869
0.000975593725912414
0.00104711151892145
0.00112564219084873
0.00121220467753427
0.00130795453573338
0.00141419637311869
0.00153238990862791
0.00166414468862405
0.00181120073096212
0.00197542927008129
0.00215913348064992
0.00234991771587062
0.0025320102889698
0.00268429427903707
0.0027627019161608
0.00268684973715726
0.00229204759274726
0.00152254577200366
0.0010348041404617
0.000776600347748775
0.000650838002733059
0.000608564371857871
0.000613642427727685
0.000646585550956192
0.000705901186336342
0.000788492402992461
0.000888398332158512
0.00100260290913922
0.00113028657206834
0.00127196410835238
0.00141797140440378
0.0015532268677676
0.00165841972839725
0.00173211036004511
0.00177658753058262
0.00179531766133219
0.00179346746493536
0.00178014937438778
0.00177269476796136
0.00181536596188992
0.00195072808624197
0.00222361210715368
0.00270745074852472
0.00353404466578026
0.00508422686026303
0.00778326578841604
0.0117364774288995
0.0135320014566627
0.01095557977643
0.00674387669228719
0.00458422206491276
0.0077387492012123
0.00637533760096954
0.00351574424854591
0.00145657753551932
0.000397270420013528
0.000144791194920733
0.000104073893463173
5.63875684725844e-05
2.49966135066404e-05
1.1189380687449e-05
5.97047534366421e-06
4.31755692037895e-06
4.099227942703e-06
4.51377199511197e-06
5.27120506819738e-06
6.33341892857737e-06
7.77359680485351e-06
9.64943845994635e-06
1.20252571085716e-05
1.49607985374064e-05
1.85404746140778e-05
2.27967418548945e-05
2.75761606191748e-05
3.27155402077805e-05
3.78482285479432e-05
4.23788694579483e-05
4.55161692688812e-05
4.64237432453539e-05
4.44224820414014e-05
3.93368860149655e-05
3.20178946267272e-05
2.43332480210923e-05
1.82071342182641e-05
1.50314235642515e-05
1.47041087698225e-05
1.80335778744191e-05
2.36581150691411e-05
3.12706464088723e-05
4.12549480382766e-05
5.42849056771595e-05
7.10301477973592e-05
9.22733315208029e-05
0.000118604371226951
0.000150408038996367
0.000187811996632899
0.000230667688567774
0.000278574740693835
0.000330943389255262
0.000387077105018821
0.000446256123488129
0.000507807159959138
0.000571152246014444
0.000635836281382844
0.00070153718186615
0.00076806399538958
0.000835348104905057
0.000903431461684404
0.000972454481226783
0.00104264510130572
0.00111430969406375
0.00118782600072157
0.00126363795611257
0.00134225210813058
0.00142423526011096
0.00151021290993287
0.00160086799279974
0.00169693933221606
0.00179921902659845
0.00190854772196155
0.00202580627960373
0.00215190168219121
0.00228774405159057
0.00243421022920987
0.0025920872103572
0.00276198540184067
0.00294420655106745
0.0031385411246321
0.00334393883809807
0.00355785800323666
0.00377440970199404
0.00397039188183217
0.0041350284669235
0.00424188003570173
0.0042466994809285
0.00407450021643939
0.00358611078667602
0.00273920014822786
0.00212580856945987
0.00175948242780644
0.001572374904176
0.0015128957538584
0.00154350183967751
0.00163388012849606
0.00178179887306058
0.00197997074308306
0.00221525618067436
0.00248083329597933
0.00277383420119886
0.00308164415910738
0.00339040127230593
0.00367373979563659
0.00390051061378948
0.00407017044184343
0.00418642496918338
0.00425484000349915
0.00428467196008078
0.00429416119284895
0.00432165202628732
0.00445949904749956
0.00479896961073954
0.00543528423969909
0.00647756383988709
0.00813449928033321
0.0108583160719988
0.0148019508605969
0.019377982371933
0.0211539326646991
0.0186046333869606
0.0127615014145521
0.00921520951163417
0.0119807884435446
0.0101519190289785
0.00620831525637873
0.00290526070079076
0.000960802410406469
0.000333890160189512
0.000231323086809513
0.000131223187034525
6.03504376468191e-05
2.72416668413606e-05
1.42392568629121e-05
9.92876789476384e-06
9.171788425322e-06
9.95754589593208e-06
1.15453497375e-05
1.38012026239087e-05
1.68707092035802e-05
2.08756207802048e-05
2.59485533165911e-05
3.22045906372371e-05
3.97808494224333e-05
4.87776749859402e-05
5.88606442028819e-05
6.96589365827381e-05
8.04174539239934e-05
8.99378969003361e-05
9.66525214398115e-05
9.89493339204054e-05
9.54374322874549e-05
8.551412596798e-05
7.05978505619069e-05
5.43005618945518e-05
4.08154937579195e-05
3.36095164733135e-05
3.28634583471891e-05
4.05235473381425e-05
5.32591512135087e-05
7.0368103089008e-05
9.23541142215465e-05
0.000120523142092541
0.000156276474272701
0.000200644762834288
0.000254213550175134
0.000317082370487145
0.000388843888513022
0.000468646750044402
0.000555323125389225
0.000647546731692588
0.000743985059665514
0.000843419856023145
0.000944825362207111
0.00104740643168529
0.00115060546365857
0.00125408907327259
0.00135772404538433
0.00146154960554239
0.00156575036478221
0.00167063218334318
0.00177660170570716
0.00188414941922452
0.0019938355889809
0.00210627818991651
0.00222214186448382
0.00234212692234069
0.00246695739945203
0.00259736718637727
0.00273408321940558
0.00287780467046596
0.00302917697388029
0.00318875933544464
0.00335698403025605
0.00353410524275302
0.00372013428888076
0.00391475650664669
0.00411722250193345
0.00432620289642274
0.00453959445728343
0.00475429161659908
0.00496616978794489
0.00515761417169847
0.00531983145177356
0.00543902089672529
0.00549149190034823
0.00543957798768887
0.0052200503268711
0.00472197588860795
0.00392439943297663
0.00332573358169252
0.00296502659939135
0.00279659908564103
0.00277368863423645
0.00286854409383833
0.00305295858091511
0.00332369164488978
0.00366859838888268
0.00406757320941506
0.00450898656760856
0.0049765200939344
0.00545252074663753
0.00592567498700768
0.00636113814559695
0.00672609467525504
0.00702183591193414
0.00725293015870551
0.00742617929144883
0.007553879595967
0.00766204284713302
0.00780872277220986
0.00812487968569896
0.00874214131156019
0.00978724280010382
0.011345646047888
0.0136297198820072
0.0169526880734442
0.0211367180240426
0.0252985188376054
0.0267048107746026
0.024319136590779
0.0184393834539451
0.0141043287878302
0.0159517452767752
0.0137024433204142
0.00918846878309321
0.0047810393272629
0.00191354901201043
0.000682797549957265
0.000446429731268985
0.000264601742717656
0.000126819233098599
5.80681903528284e-05
2.98774692592451e-05
2.00980477606633e-05
1.80160575868179e-05
1.92454415364e-05
2.21301762432609e-05
2.62983261835892e-05
3.19905234076977e-05
3.94230712305635e-05
4.88244941482238e-05
6.03725674090024e-05
7.42158589363582e-05
9.05421391827007e-05
0.000108716515477518
0.000127981760980675
0.000146974455130692
0.000163632881732467
0.000175358619893516
0.000179586135224074
0.000174231493017854
0.000157954348498417
0.00013258415901376
0.000103740375380962
7.90201204706532e-05
6.53402941473115e-05
6.43487541696131e-05
8.00623387853923e-05
0.000105193435756765
0.000137668825629985
0.000178289359075962
0.000229333808116208
0.00029218137668979
0.000367507123888284
0.000455263751836333
0.000554750368517075
0.00066471994156814
0.000783551358564675
0.000909444956299122
0.0010406034103205
0.00117537568376968
0.00131235481696857
0.00145043049614623
0.00158880325930077
0.00172697033315152
0.00186469409718692
0.00200196265066841
0.00213894936504449
0.00227597541149122
0.0024134769708215
0.00255197726248024
0.00269206266101468
0.00283436176465564
0.0029795261823711
0.00312821185853817
0.00328105990055357
0.00343867604110148
0.00360160803323577
0.00377032044571965
0.0039451664503619
0.00412635626950664
0.004313921913786
0.0045076776253796
0.00470717499045998
0.00491165086671034
0.00511996481757175
0.00533051998351005
0.00554115553688459
0.00574898314426199
0.0059500820464383
0.00613876462803423
0.00630018995542294
0.00642873405872671
0.00651183964769195
0.00652958302394443
0.00645029012740138
0.0062200423917835
0.00574825958318356
0.00503194085906504
0.00450253351189297
0.00420774416917164
0.00411057636245895
0.00416799014283776
0.00435270593617193
0.00464697070858715
0.00504363255976367
0.00552612405039363
0.00606981777571268
0.00665332902112939
0.00725255780652483
0.00786088529973074
0.00846114690365855
0.00901851205236962
0.00950520726952016
0.00992392049118754
0.0102803245563995
0.0105829064622882
0.010847246175872
0.0111057350725429
0.0114294780149685
0.0119645977584011
0.0128573089476916
0.0142231968361858
0.0161083065466096
0.0186941111932007
0.0221381972661028
0.0260980819685545
0.0296470962786862
0.0306743915633945
0.0283797333755504
0.0230523208807857
0.0185303489317532
0.0194684160277949
0.0168645613950239
0.0122202311797411
0.00691363178640468
0.00324456900174945
0.00126840762917122
0.000776704896219425
0.000478806152993766
0.000240420370630306
0.000112429584575413
5.72798285277373e-05
3.72315461877622e-05
3.23029415174417e-05
3.38704996019565e-05
3.857067026418e-05
4.55158614378857e-05
5.50345810816658e-05
6.74542732167892e-05
8.31048142483969e-05
0.000102194719693282
0.000124757765571864
0.000150985033864415
0.000179799980181368
0.000209793364766496
0.000238760041001913
0.000263609652898062
0.000280680697619456
0.000286552517222163
0.000278772506451868
0.000255633550682032
0.000218646940697426
0.000175010563074038
0.000136248684990267
0.000114326902451824
0.000114344167929427
0.000143437174844879
0.000186193297322904
0.000239101267314362
0.000303874704017079
0.000382615566473067
0.000476101970773717
0.000584275085239345
0.000706371809920063
0.000841081422448741
0.000986681635788674
0.00114118810399144
0.0013025126800751
0.00146862270082866
0.00163768661634916
0.00180818274657159
0.00197895628994624
0.00214922595047153
0.0023185535924868
0.00248679387817012
0.00265403766321715
0.00282055779441994
0.00298676128648885
0.00315314879261264
0.00332028059282213
0.00348874764356371
0.00365914610359502
0.0038320539164214
0.00400800830080507
0.00418748331994798
0.00437086700057865
0.0045584377366242
0.0047503399437499
0.00494655908367175
0.00514689625056878
0.00535094244858967
0.00555805243873779
0.00576731755864823
0.00597753613926003
0.00618717890609452
0.00639434467791801
0.00659669795599718
0.00679137107896387
0.00697477700420618
0.00713964136831492
0.00727694417947637
0.00738143788743647
0.00744253339783477
0.00744350729669992
0.00735716200686594
0.00713637239624911
0.00670556351134036
0.00607616766620713
0.0056315932077089
0.00542127588232907
0.00541130970435897
0.00556229212839795
0.00584030636799431
0.00623659422086369
0.00674043482696997
0.00733226332658975
0.00798230460068993
0.00866064731737346
0.00935689054106347
0.0100607567752906
0.0107530522837193
0.0114025524221027
0.0119871875183247
0.012510286749843
0.0129787061018272
0.0134029331175398
0.0138020603562139
0.0142139681410334
0.0147176060649005
0.0154603535675783
0.0165865058866465
0.0181668220635303
0.0202411625236042
0.0229432041215142
0.0263164496082532
0.0299423053209622
0.0329228523213785
0.0336161533732387
0.031361189375376
0.0266285369368998
0.0222565492956839
0.0224900595570696
0.0196410998259268
0.0151586646611816
0.00917421685237243
0.00483190042763762
0.00216860941988392
0.00124722787858297
0.00079246045902404
0.000419197178374215
0.000201826089023593
0.00010255640168756
6.46099025117216e-05
5.41332856283314e-05
5.55529522916284e-05
6.25333751163915e-05
7.31728148578379e-05
8.78069458086521e-05
0.000106845895116565
0.000130667746164411
0.000159402482848707
0.000192741400203606
0.000230576616173987
0.000271306029814894
0.000312589333802967
0.000351271768641805
0.000383346086089117
0.00040442779195774
0.000410691744075976
0.000399679772115807
0.000370012752926524
0.000323152175518066
0.000265766020528898
0.000213207527066162
0.000183456206688939
0.000187623494984044
0.000234335440735475
0.000297683695540477
0.000373980248813671
0.00046475792931283
0.00057155771218598
0.000694577505102905
0.000833344534851486
0.000986847459363239
0.00115359124328582
0.00133162889267157
0.00151866454577676
0.00171225076559287
0.00191003146128475
0.00210995496108595
0.00231040296577515
0.00251022794479805
0.00270872296953261
0.00290555551714748
0.00310069014566082
0.00329431456769474
0.00348677544304314
0.00367852512720119
0.00387007817051189
0.00406197547925254
0.00425475402095745
0.00444892027724067
0.0046449260924145
0.00484314600299532
0.00504385553988827
0.00524721033630327
0.00545322614037129
0.00566176003207176
0.00587249324580804
0.00608491600864325
0.00629831467556506
0.00651176113701127
0.00672410396409396
0.00693395999258722
0.00713970396462319
0.00733945237471836
0.00753103640629672
0.0077119620897353
0.00787939475435284
0.00802545074581432
0.00814577768165261
0.00823536842925185
0.00828542870096629
0.00828170152150568
0.00820027025762419
0.00799923146424264
0.00761496407355476
0.00707080585459049
0.00671261797330808
0.00658772317583985
0.00666299471502734
0.00690069137568116
0.00726849636313826
0.00774929335083027
0.00833739209622979
0.00900880059826062
0.00972884705966394
0.0104785998464087
0.0112467552890013
0.0120210735881484
0.0127825212976935
0.0135038362480437
0.0141673866951781
0.0147767875398102
0.0153399598730547
0.0158693348441912
0.0163872906858078
0.0169362938113771
0.0175999866640668
0.0185219844085716
0.0198320055764131
0.0215575045700684
0.0237437209275165
0.0264748821613631
0.0297098865876343
0.032988366389265
0.0354676124569211
0.0358694021753373
0.0336346664441732
0.0294012479498156
0.0253076722369236
0.0250447112625835
0.0220788021951959
0.017882549799447
0.0114803824699062
0.0065689339291368
0.00336848247360236
0.00188043098486969
0.00121364156434
0.000678902541665362
0.000339602358946204
0.000173638965051606
0.000106547773801455
8.60719072400278e-05
8.61665485206689e-05
9.56486447323752e-05
0.000110773752373889
0.000131663019440854
0.000158692539951418
0.000192137080907248
0.000231835464785118
0.000276880485465252
0.000326290127431028
0.000378113513080119
0.000428990647141844
0.000475017709748414
0.000511726318357454
0.000534589196142158
0.000539888504936329
0.0005254429370697
0.000490306826494439
0.000436137104122593
0.000369998810014669
0.000307498837872195
0.000273423431381619
0.000285304725641505
0.000350733643254734
0.000435653584916948
0.000535292425595739
0.000650898292567177
0.000783644778441979
0.000933650716388961
0.00110050619624409
0.00128319350187147
0.00147997255914149
0.00168841432344133
0.00190564961903157
0.00212874749034272
0.00235506287028572
0.00258245369173217
0.00280935318240926
0.00303473894401126
0.00325804948083465
0.00347908556259665
0.00369791692497029
0.00391480246284515
0.00413012518792165
0.00434434010517256
0.00455793223769986
0.00477138211151086
0.00498513651273955
0.00519958292008935
0.00541502657766337
0.00563166964852032
0.00584959228658354
0.00606873577405476
0.00628888808600678
0.00650967237190288
0.0067305388665511
0.00695076067340008
0.00716943366739123
0.00738548040611864
0.00759765738962154
0.00780456422054809
0.00800465211938542
0.00819622773294009
0.00837744654239487
0.00854628936575714
0.00870051114597723
0.00883348392264087
0.00894284297530027
0.00902441870986018
0.0090708940841679
0.00906987868954433
0.00899997116445429
0.0088236244541553
0.00848728871883299
0.00802413802977668
0.00774852492054638
0.00770353351747084
0.00785608184343419
0.00816932553463376
0.00861171306971746
0.00916428101828025
0.00981613803837304
0.0105438322350131
0.0113189328474981
0.0121242597744451
0.0129478952307622
0.0137769992546391
0.0145934657156698
0.0153733918921318
0.016102343887913
0.0167841605227429
0.0174276898295737
0.0180471554187953
0.0186678790537066
0.0193361383519574
0.020138429177784
0.0212126119473227
0.0226630589891724
0.0244906293897774
0.0267423630284578
0.0294547187496119
0.0325201287252103
0.0354532945058478
0.0374858054560663
0.0376346702028771
0.0354165689259306
0.0315829459860147
0.0277949147505528
0.0271897787925434
0.0242244323935954
0.0203075778974864
0.0137789177988786
0.0083877742234655
0.00479458527320748
0.00270455899190167
0.00173895018221515
0.00102683212531063
0.000538321924006695
0.000279773890533826
0.000168394757784479
0.00013112135463702
0.000127599501666729
0.000139268975640536
0.000159275729341947
0.000187080544088499
0.000222784868452442
0.000266305458131875
0.000316909429350322
0.000372875928868993
0.000431984705098196
0.000492217211840746
0.000549538652986051
0.00059975297942434
0.000638460252068894
0.000661423490711428
0.000665267492051358
0.000648120694991672
0.000609418726520279
0.000551124979923912
0.000480780941841751
0.000414673242685712
0.000381891565585244
0.00040383431417291
0.000487533730067991
0.000593046210396303
0.000714343790709113
0.000852676683597273
0.0010093353423188
0.00118474686598648
0.00137858352544898
0.00158949326242484
0.00181503989625707
0.00205200635836932
0.00229691135431931
0.00254651008968661
0.00279811075016586
0.00304969048199344
0.00329986904277048
0.00354781217618165
0.00379311486085073
0.00403569105066433
0.00427567999247877
0.00451337049916538
0.00474914086085945
0.00498341104483001
0.00521660402133967
0.0054491136668059
0.00568127740516456
0.00591335239928411
0.00614549465639152
0.00637774084662304
0.00660999297312076
0.00684200627994711
0.00707338092944663
0.00730355802499472
0.00753182049217222
0.00775729918535173
0.00797898433218267
0.0081957420253035
0.0084063348852705
0.00860944518436307
0.00880369750718987
0.00898767613179095
0.00915992959189254
0.00931895139086699
0.00946311690263386
0.00958730592942908
0.00969021244805776
0.00976854966701827
0.00981618263035262
0.00982217419627748
0.00976721106290582
0.00961763393643005
0.00932861088432471
0.00894131978954473
0.00874253021633505
0.00877009602105489
0.00899091821372346
0.00936868822515698
0.00987226492996588
0.0104818194925419
0.0111843523752558
0.0119578643016791
0.0127777413590172
0.0136279387519251
0.0144964300964879
0.015370401277595
0.016232841332033
0.0170625152702361
0.0178473237978502
0.0185913742752437
0.0193043434499536
0.0200021190669421
0.0207126716346078
0.0214854986203019
0.0224087635713303
0.0236127905047039
0.0251663875949983
0.027067985287835
0.0293520934491268
0.0320112346781883
0.0348835779231668
0.0374725228298338
0.0391033992471213
0.0390366482319672
0.0368371357665987
0.0333271134336646
0.0298326309390796
0.0289893988002164
0.0261138768874973
0.022413232992065
0.0160385386963288
0.010250082150757
0.00635814167015231
0.00373007860289947
0.00236401334988897
0.00145879543315472
0.00080575376969084
0.000430015975150128
0.000256176276377643
0.0001925832690192
0.000181558952086009
0.000194188227599578
0.000218759024181226
0.000253328517556987
0.000297360363463648
0.000350121478795014
0.000410084396984657
0.00047463278746507
0.000540557989756648
0.000605900800150936
0.000666588833259177
0.000718539062700624
0.000757702702497662
0.000780247480771835
0.000783116559013562
0.000764652729561833
0.000724593521372041
0.000665312392178026
0.000595025318584524
0.000531020095232717
0.000504491912918464
0.00053815175953344
0.000638804221481482
0.000763134849337524
0.000904286671247029
0.00106393461720956
0.00124375828814736
0.00144434107272157
0.00166492243763716
0.00190326222699614
0.00215594253735703
0.00241902664943144
0.00268870705104909
0.00296174094669238
0.00323562274028822
0.00350857479236486
0.00377944531819525
0.00404757886311731
0.00431269235418938
0.00457476955741698
0.00483397581408362
0.00509059055572109
0.00534495387283926
0.00559742360689365
0.00584834012257957
0.00609799669083226
0.00634661412722757
0.00659431893610527
0.0068411247003346
0.00708691682427784
0.00733144100530897
0.00757429599059788
0.00781493125244746
0.00805265017760723
0.0082866192173775
0.00851588322767018
0.00873938692440904
0.00895600193880237
0.00916455833890383
0.00936387860357875
0.00955281068588209
0.00973025444654933
0.00989517169292704
0.0100465647411241
0.0101834130685481
0.0103019791404679
0.010401634001566
0.0104798710285565
0.0105315123199435
0.0105468289052411
0.010508387290093
0.0103861248873011
0.0101428179399955
0.00982603375157563
0.00969788893770862
0.00979071869326262
0.0100715728463407
0.0105046123072251
0.0110592906208809
0.0117156867239548
0.0124601021394704
0.0132720399814543
0.0141294938289679
0.0150173204579078
0.0159236422429066
0.0168359361295961
0.0177382378361118
0.0186114227558015
0.0194451747157096
0.0202439322754787
0.0210181503454582
0.0217852968472166
0.0225757699242296
0.0234418205448195
0.0244721152541125
0.0257841986910421
0.0274141814961709
0.0293670422936588
0.0316554195202846
0.0342308057541679
0.0368875004213873
0.0391463395101512
0.0404336000074537
0.0401568825051744
0.0379790417415513
0.0347389030605637
0.0315139951352905
0.030503025908832
0.0277740120933339
0.0242317110489167
0.0182386017346479
0.0121376227832013
0.00797619528114587