/*--------------------------------*- C++ -*----------------------------------*\
  =========                 |
  \\      /  F ield         | OpenFOAM: The Open Source CFD Toolbox
   \\    /   O peration     | Website:  https://openfoam.org
    \\  /    A nd           | Version:  7
     \\/     M anipulation  |
\*---------------------------------------------------------------------------*/
FoamFile
{
    version     2.0;
    format      ascii;
    class       volScalarField;
    location    "20000";
    object      k_diff;
}
// * * * * * * * * * * * * * * * * * * * * * * * * * * * * * * * * * * * * * //

dimensions      [0 2 -3 0 0 0 0];

internalField   nonuniform List<scalar> 
15600
(
0.00164777667484935
0.00125872359893581
0.000628355513542047
0.000243193259731995
6.01899049289744e-05
3.76423875178939e-05
3.13787618377827e-05
1.46664427215826e-05
5.77073843644088e-06
2.53527155984279e-06
1.42763100321641e-06
1.09251650930366e-06
1.02347011212011e-06
1.06081409029404e-06
1.14993203138418e-06
1.2832985002541e-06
1.46635210304101e-06
1.69803240667177e-06
1.97981126039525e-06
2.31363773850718e-06
2.70248774275949e-06
3.10606450211098e-06
3.47761077243382e-06
3.78206284831795e-06
3.96319038071489e-06
3.96053620378527e-06
3.72675180541166e-06
3.25758889233386e-06
2.62948420200272e-06
1.95143456562746e-06
1.3378530445016e-06
8.80680166176478e-07
6.03437099606779e-07
4.80932155056082e-07
4.8226247077695e-07
6.04386650679187e-07
7.93875917590916e-07
1.04873578690438e-06
1.38276653105726e-06
1.82449987885402e-06
2.40247899138904e-06
3.14523813137957e-06
4.08034817176864e-06
5.23314939286759e-06
6.62201308395198e-06
8.25581140089378e-06
1.01338063251167e-05
1.22463772493966e-05
1.45769690549071e-05
1.71047877915094e-05
1.98076396182136e-05
2.26644612009673e-05
2.5657279029712e-05
2.87725427053257e-05
3.20019084334796e-05
3.53426154223943e-05
3.87976059800312e-05
4.23755195888909e-05
4.60906591952719e-05
4.99629981204403e-05
5.40182729693083e-05
5.82881933051318e-05
6.28107919347508e-05
6.7630939654069e-05
7.28010538590433e-05
7.83820410089859e-05
8.44445289856153e-05
9.10704681141197e-05
9.83552117403768e-05
0.000106410232001776
0.00011536669282019
0.00012538020986436
0.000136637315098834
0.000149364486019643
0.000163841329693495
0.000180421286298996
0.000199567143524302
0.00022191731386433
0.000248423574858605
0.000280675242435378
0.000321743551977519
0.000375420055182917
0.000436243384432426
0.000497418119384731
0.000536488413552276
0.000457346732779901
0.000224213074036895
0.000132496054812017
9.77419950392163e-05
8.54110140488454e-05
8.80304234754495e-05
9.95837052360407e-05
0.000118403424667404
0.000145402462157907
0.000181399850497293
0.000226617080892164
0.000281358576265995
0.000346203180383505
0.000422201088000144
0.000511394441979792
0.000609106249071189
0.000706574455970701
0.000800907045385761
0.000891903495338961
0.000980329701411911
0.00106796469186528
0.00115940624733336
0.00126453615713178
0.00141400433430742
0.00163570611447972
0.00197380843926694
0.00251047159310368
0.00335402624115704
0.00494476724648647
0.00794243609707841
0.0132264938328379
0.0127354954860923
0.00671650675631304
0.00340806244111733
0.00209480560786222
0.00880663781374818
0.00674847671072991
0.00340548567897216
0.00139262966992965
0.000374553908596389
0.000210281425497244
0.000176135956615544
8.6759542686996e-05
3.49996995425908e-05
1.51880847637102e-05
8.27716952444876e-06
6.13008985777323e-06
5.64021491468535e-06
5.79677753216912e-06
6.25545546242879e-06
6.95701663335555e-06
7.92894737109983e-06
9.16625445822172e-06
1.06759579144039e-05
1.24672399778952e-05
1.45558380950674e-05
1.67471612454398e-05
1.87825672054584e-05
2.04726820205244e-05
2.15232372560351e-05
2.16106753876383e-05
2.04743282254271e-05
1.80544263646628e-05
1.47182271246197e-05
1.10377260880631e-05
7.63322552990232e-06
5.03683179837827e-06
3.42403503903245e-06
2.70196618569313e-06
2.68104174028798e-06
3.33246128800156e-06
4.37075396746014e-06
5.77355088902095e-06
7.61248078227977e-06
1.00443104410252e-05
1.32249138357227e-05
1.72979185185253e-05
2.2417948413772e-05
2.87270081187074e-05
3.63169608341162e-05
4.52322402189276e-05
5.54648748080673e-05
6.69588447662915e-05
7.96210174921652e-05
9.33359653103151e-05
0.000107981396364862
0.000123441753397367
0.000139618617893537
0.000156437673092374
0.000173852682418861
0.000191847277453489
0.000210435377278393
0.000229660937756664
0.000249597549896195
0.00027034824246666
0.000292045718845654
0.0003148531789712
0.000338965839464183
0.000364613263885087
0.000392062642705347
0.00042162321572489
0.000453652110159906
0.000488561980058657
0.000526830988504317
0.000569015884294748
0.000615769224734801
0.000667862256039233
0.000726215708165163
0.00079194204276099
0.000866405305590776
0.000951310671532381
0.00104884838696679
0.00116194593839153
0.00129476023001366
0.00145368415006511
0.00164852983201676
0.00184831284739184
0.00203986676768347
0.00217176235564912
0.00212938367583667
0.00170826569470982
0.00101293773673266
0.000668751900377266
0.000521690671357858
0.000472548064605167
0.000492301360128162
0.000560219072047069
0.000668362813457671
0.000821906946840246
0.00102478798865252
0.00127795610423161
0.00158305705003552
0.00194337327874145
0.00236480195579491
0.00285063260570614
0.0033620431119968
0.00386968816531771
0.004363320734238
0.00484362302982254
0.00531550653626648
0.00578968184695552
0.0062923200964718
0.00688397991605175
0.0077248586216799
0.0089598093824228
0.0108333987758614
0.0137600582543003
0.0182962770530615
0.0263638756171992
0.0398061672495316
0.0577899872094227
0.0551705019318846
0.0334437722331209
0.0174030459320582
0.0110357677384051
0.0185656077901194
0.0148462083944265
0.00774030354689022
0.0034464383620788
0.0010321940577797
0.000507818507639072
0.000428844425385053
0.000223694964544636
9.30548683177975e-05
4.01832206250412e-05
2.12921142241032e-05
1.52742844124764e-05
1.37943240153246e-05
1.40451232609658e-05
1.50778785128504e-05
1.6702027958163e-05
1.89758460382309e-05
2.18874601558494e-05
2.54493795633715e-05
2.967589363355e-05
3.45733985015573e-05
3.97420574510821e-05
4.45519245859694e-05
4.85446127436147e-05
5.10515438271532e-05
5.13415809593491e-05
4.88299166150126e-05
4.33778443611608e-05
3.57161234331288e-05
2.71209759375511e-05
1.90002817952364e-05
1.26399435344075e-05
8.56589759977012e-06
6.70797084359682e-06
6.60163819352095e-06
8.17502927898291e-06
1.0728398084747e-05
1.4185156425584e-05
1.8729937183441e-05
2.4750020950938e-05
3.2523738961299e-05
4.2431850265368e-05
5.48800276039036e-05
7.01229222249777e-05
8.83300934121651e-05
0.000109545035215252
0.000133683975269004
0.000160553964264225
0.000189885228537267
0.000221369388248369
0.000254695763811224
0.000289580687271299
0.000325787856135702
0.000363140222378381
0.000401525215021241
0.00044089547767141
0.000481267080741113
0.000522716716885845
0.000565378911018248
0.00060944389544582
0.000655156537042664
0.000702816551942341
0.000752780178715624
0.000805463484734967
0.000861347523819402
0.000920985627956622
0.000985013187342938
0.00105416032250698
0.00112926784625244
0.00121130677129286
0.00130140122167952
0.00140085371802272
0.00151116994976444
0.00163407634647515
0.00177151588782242
0.00192559107967551
0.00209838911537592
0.00229155842312985
0.00250541947938413
0.00273739549512938
0.00292131559235057
0.00305695826810789
0.00310842170040764
0.00301334823190819
0.0026708990893801
0.0020674907731785
0.00165253254388292
0.00135590910188357
0.00119004212773952
0.00115239710189731
0.00121985587743657
0.00139265787653453
0.00166056584953277
0.00203480957061614
0.00252283909797059
0.00312658727144909
0.00384978002359297
0.00470011225170155
0.00569225184639392
0.00674480198570601
0.00783964928876286
0.00893377871736139
0.0100187539217352
0.0110991706865941
0.0121873303021102
0.01330934574032
0.0145259503955975
0.0159857657521851
0.0180172193514755
0.020912520735711
0.0252108897082843
0.0315702677530968
0.0408433648356638
0.0550730182373935
0.0731110003049714
0.0874664818553925
0.0838450048276238
0.0636464660937908
0.0334740396774631
0.0222545359705662
0.0221297967839311
0.0193922660833224
0.0109095981838653
0.00559047485788792
0.00216291983034186
0.000872989107800123
0.000732761131063725
0.000407987338672102
0.000176170746363141
7.61955324317019e-05
3.93920851088978e-05
2.73545000600367e-05
2.42037884827212e-05
2.4383560411387e-05
2.6020669330468e-05
2.86897807357879e-05
3.24709195376325e-05
3.73389681358079e-05
4.3300733618517e-05
5.03531216454969e-05
5.84101824451879e-05
6.68784077668187e-05
7.46870687058696e-05
8.10407596628401e-05
8.48817714932672e-05
8.51002805378687e-05
8.08574800324506e-05
7.2120631712604e-05
5.99287562698199e-05
4.61670681894863e-05
3.29361081175124e-05
2.22719429058133e-05
1.52108771777043e-05
1.19081152585563e-05
1.17459755584399e-05
1.46603437858692e-05
1.93358008553494e-05
2.56489482354742e-05
3.40063960562207e-05
4.47257967416992e-05
5.84111782279645e-05
7.58102617062142e-05
9.72009150876754e-05
0.000122780624131085
0.000152525018004378
0.000186201394912272
0.000223413562919641
0.000263665736575105
0.000306429132262909
0.000351197653365506
0.000397526868998106
0.000445056331238061
0.000493518762699983
0.000542740607011457
0.000592637896178198
0.000643210345587238
0.000694535523437963
0.00074676414371294
0.000800116981880741
0.000854883582727487
0.00091142272260886
0.000970164448482088
0.00103161337542215
0.00109635275011418
0.00116504851651224
0.00123845220215051
0.00131740082958399
0.00140281113396348
0.00149566402636054
0.00159697327489831
0.00170772947853061
0.0018288061309151
0.00196080815486499
0.00210383333530053
0.00225710045372797
0.00241836758368426
0.00258299856797483
0.0027423234977877
0.00287989754818123
0.00295535207396556
0.00295007683210688
0.00288729186078106
0.00272906750920651
0.00245838502253747
0.00206143103733045
0.00166660088797127
0.00170810362448431
0.00173997059012429
0.00176202961741179
0.00186082469703557
0.00203569678606334
0.00233639330805942
0.00278084355186467
0.00338457400073546
0.00415679636195978
0.00510146179289242
0.0062240696550062
0.00753599990726607
0.00892288444646621
0.0104074782472478
0.0119349935847765
0.0135015569930831
0.0151118623092591
0.0167746487174221
0.0185096469065649
0.0203579077801296
0.022408661631179
0.0248876842074685
0.0282009281064706
0.0326844123551788
0.0390246981114086
0.0473123754555997
0.0580886523198445
0.0707748070610546
0.0806685842092073
0.0818711005155997
0.0773229723908379
0.0730344304771115
0.0405117674453766
0.0265480713477226
0.0212933432370035
0.0193268552074694
0.0115304489551432
0.00662644009728711
0.00373985791880393
0.00132924280548741
0.00104575703023776
0.000625952926218165
0.000282698555914216
0.000123259976128861
6.24184114672437e-05
4.19370091692946e-05
3.62761045510107e-05
3.61081972678038e-05
3.82664112928704e-05
4.19578689564737e-05
4.72563671661944e-05
5.41071605050175e-05
6.24829677220237e-05
7.23108576249939e-05
8.32910865985046e-05
9.46045877364376e-05
0.000104775024620122
0.000112640415289688
0.000116837676599792
0.000116059300152646
0.000109498250041821
9.74435308833422e-05
8.15609797774516e-05
6.38470643155259e-05
4.66739749793e-05
3.24381596909636e-05
2.27454768209046e-05
1.80341021800651e-05
1.81563910391904e-05
2.31649127350884e-05
3.08208139915891e-05
4.10596443141101e-05
5.37628964775191e-05
6.96773348865645e-05
8.98482698497159e-05
0.000114148690888505
0.000142495542053885
0.000174549391567535
0.000209833753521148
0.000247848644954528
0.000288158751638798
0.000330435549193637
0.000374459113047121
0.000420097397314678
0.00046728175615537
0.000515990090721732
0.00056624047946778
0.000618093043840024
0.000671656124710566
0.000727093506589749
0.000784630631931372
0.000844558811684931
0.000907236984079108
0.000973090721637927
0.00104260802128741
0.00111633108558638
0.0011948428524454
0.00127874654146941
0.00136863595437826
0.00146505372514971
0.00156843425784298
0.00167902772137825
0.00179680134924132
0.0019213145454945
0.00205156506457168
0.00218580509425798
0.00232132873389851
0.00245423663061618
0.00257919090577186
0.00268919270036165
0.00277550378703021
0.00282837697459738
0.00284216683608194
0.00273861147250257
0.00265220420329583
0.0025080899535141
0.00230714994073927
0.00204776432933638
0.00172614537255497
0.00146139708613533
0.00159546086904813
0.00178241668618534
0.00197914982616334
0.00224129789724983
0.00256739488541326
0.0029918532190522
0.00357933498887217
0.00434578391015926
0.00529781347770538
0.00643897283756425
0.00777219834156131
0.00917872223778879
0.010677733950829
0.0123048705103493
0.01398816133824
0.0157662912602948
0.0176576086693442
0.0196791314258689
0.0218611984222016
0.0242572759269382
0.0269655839727234
0.0302285262030097
0.0343819228170424
0.0396546954181554
0.0463737188967066
0.0538033495256223
0.0618316828485862
0.0678809000238808
0.0680544797153388
0.060592177290776
0.0531393268369953
0.051691874812322
0.0421991186677824
0.0280521044685017
0.0214730681279557
0.0192234056148568
0.0122738482432475
0.00655550970793858
0.00510798938332367
0.0020776551662772
0.00134224442688073
0.00086300698362094
0.000411076882584101
0.000181889874549417
9.06294027816436e-05
5.89035447026578e-05
4.96755304524797e-05
4.87627020441012e-05
5.12516490344876e-05
5.58112277815104e-05
6.24553248290177e-05
7.10662956925689e-05
8.15315849519812e-05
9.36247000621506e-05
0.000106714123537459
0.000119605992035687
0.000130611769105911
0.000138239557552309
0.000141021321936813
0.000137779445547654
0.000128123939759262
0.00011290096554127
9.48321940925588e-05
7.56106821698859e-05
5.71410352513523e-05
4.14739265141592e-05
3.06750269130605e-05
2.51237477016862e-05
2.63999233470425e-05
3.46800531676832e-05
4.63934898589409e-05
6.00098867004374e-05
7.6318651728556e-05
9.65506183988258e-05
0.000119811348151517
0.000145673495389464
0.000173727362369335
0.000203804485486526
0.000236083048801511
0.000271033102489589
0.000309257125945598
0.000351307145212152
0.000397552707224532
0.000448135328019927
0.000502998856721356
0.000561961509175337
0.000624794633233141
0.000691286581485616
0.000761283763680953
0.000834709989173911
0.000911568731314065
0.000991933206908662
0.0010759278882974
0.00116370357386941
0.00125540688752001
0.00135114427941959
0.00145094018174118
0.00155468897166438
0.00166210073399171
0.00177264146712826
0.00188546943236024
0.00199937067156831
0.00211269835067296
0.00222332243831011
0.00232859808076253
0.00242536282776986
0.00250997444933989
0.00257840211840197
0.00262638168161106
0.00264962028532984
0.00264385238317817
0.00260338012234408
0.00250311697495186
0.0024371382470734
0.00233712469746184
0.00220972522609118
0.00205331890818569
0.00186708271650035
0.00164487176724558
0.0014637561269253
0.00162362502903879
0.00182164391450078
0.00206719154766934
0.00240220843445175
0.00284317139367961
0.00335405749009066
0.00402870304957652
0.00486934752925677
0.00586630882286802
0.00701564392364058
0.00822607355292072
0.00945287550023173
0.0108876164967951
0.0123824928898616
0.0139374546373511
0.0156216322810694
0.0174594929011447
0.0194784131271527
0.0217182884529544
0.0242389339670598
0.0271284691464602
0.030588726887986
0.0348004355434041
0.0398374766577001
0.0451325494003049
0.0501939578851483
0.0542600161308028
0.0547195729240542
0.0494434863878426
0.038283448460632
0.0304779428875615
0.0308609671593681
0.0366123875565234
0.0281009260098355
0.0202295262908749
0.0181863589390834
0.0147420578196966
0.00622014294936326
0.00571103389876166
0.0032336173271303
0.00164008900298539
0.00110478895432939
0.000558778873181343
0.000252486628676098
0.00012438143916255
7.82184422384559e-05
6.40838839096956e-05
6.18732625118062e-05
6.43703088719373e-05
6.94869695083412e-05
7.70868820039533e-05
8.69341627869609e-05
9.87561824904171e-05
0.000112073841632057
0.000125868576198964
0.000138281160309947
0.000147843792554227
0.000152887085516079
0.000152169504447838
0.000145054179859358
0.000131916333669289
0.000114313089977119
9.5296265742912e-05
7.79019483178867e-05
6.16555172139271e-05
4.78232720895454e-05
3.81056311919379e-05
3.34969408384374e-05
3.73938742284319e-05
4.99766227544391e-05
6.35629343991432e-05
7.83395317760789e-05
9.62797927203991e-05
0.000115609927538501
0.00013604203205212
0.000157767163912045
0.00018167553080136
0.000209206960378702
0.000241981850835219
0.000281351977465062
0.000328060347584295
0.000382134421447996
0.000443007318224843
0.00050976557545118
0.000581400861384745
0.000656990719994492
0.000735790611742199
0.000817255372960891
0.000901017762768419
0.000986847099282692
0.00107460209696926
0.00116418469338978
0.00125549704138071
0.00134840164928786
0.00144268394203062
0.00153801669259981
0.0016339263162045
0.00172976178982887
0.00182466778929561
0.00191756439699471
0.00200713646739003
0.00209183622344912
0.0021699028888237
0.00223940309293607
0.00229829526545413
0.00234452038952223
0.00237612056357999
0.00239138697619257
0.0023890458098321
0.00236852949436015
0.00233057188380221
0.00227908064576708
0.00219340017959885
0.00213410313928703
0.00205683551811707
0.00196403115919637
0.00185295259216047
0.00172753871737276
0.00158245122368947
0.00145800850844491
0.00166851948020849
0.00188734988867784
0.00215743258665538
0.00251663263386275
0.00300166392897786
0.00355813144534384
0.00422820315514773
0.0050201546146839
0.00590950252350513
0.00684153533224486
0.00771008168491906
0.0088300102357749
0.0100005276132134
0.0112221061514874
0.0125090889247236
0.0139428435815499
0.0155406679035034
0.0173309433444733
0.0193520685155878
0.0216584922803183
0.0243181753293569
0.0274803936608277
0.0312004385079192
0.035470992366293
0.0386362067621481
0.0417172497188782
0.04289833759319
0.0401875029821754
0.0323175746949322
0.0202360874838848
0.0141849452842518
0.015748940336467
0.026019473875059
0.0239831670410674
0.0169019501536226
0.0151214141913738
0.0180544844187188
0.00618577565553909
0.00497128922865993
0.00508274652270742
0.00204457830964436
0.00134866271062781
0.00072408193677426
0.000335560394162072
0.000164111239002486
9.99090378253888e-05
7.91582423084167e-05
7.48808926832968e-05
7.68914171102952e-05
8.20674444913884e-05
8.99822947437223e-05
0.000100206267301791
0.000112219952716625
0.000125217921859993
0.00013788382569446
0.000147318586420628
0.000152999801551104
0.000153352391607979
0.000147725889556759
0.000136305583530182
0.000120287142312113
0.000101870816796452
8.34764483640482e-05
6.86514873950348e-05
5.89672701301744e-05
5.03714815944249e-05
4.49329414887313e-05
4.33425742143698e-05
5.16035227114357e-05
6.42713263931392e-05
7.64942134805495e-05
9.06717385372726e-05
0.000105255974075322
0.000120170954173064
0.000136612389120011
0.000156614973820143
0.000182654285606872
0.000216941253611873
0.00026076932336062
0.000314175060959535
0.000376056831676545
0.000444643039122686
0.000518033802224254
0.000594590453215272
0.000673102363225511
0.00075278222442582
0.000833175446145972
0.000914049551697389
0.000995296912808141
0.00107686056694304
0.00115868107801934
0.00124065879871851
0.00132262614599962
0.00140432610319053
0.00148539484890009
0.00156534784477535
0.00164356974651672
0.00171930924805399
0.00179168046313933
0.00185967266257174
0.00192217021421497
0.00197798432364655
0.00202589768992434
0.00206472252520233
0.00209337142570268
0.00211093931114383
0.00211679294844431
0.00211066234862281
0.00209272736615906
0.0020637053506641
0.00202505980533705
0.0019776404900244
0.00192614981462755
0.00188119824211516
0.0018249120015022
0.00175728313436452
0.00167766128115335
0.00159511606434068
0.00149985394273995
0.00139941853441018
0.00164309042446618
0.00187628614888369
0.00215160447728415
0.00249472209977266
0.00291458800070896
0.00351005248197529
0.00408910318681549
0.00474203809544524
0.00539923061048863
0.00597367480585219
0.00680175359693538
0.00766481802950925
0.00857875489168896
0.00954292736806222
0.0105770827807484
0.0117587380146576
0.0130954554975368
0.0146114714309294
0.0163380187275522
0.0183183853487416
0.0206001762294686
0.0232902727347001
0.0263811551475798
0.0294061925135928
0.0313680249937439
0.0327801448909281
0.0320172394437866
0.0273301337700573
0.0180145150414463
0.00643908967253698
0.00288056219466523
0.00569497618401311
0.016026036602207
0.0176078269972274
0.012646864347646
0.0111866095418872
0.0201657581044997
0.00656592759554313
0.00420724943123147
0.00602957631369858
0.00277197948371192
0.00161968423639402
0.000911330807151907
0.000433231443228487
0.00021065517082738
0.000124185965796682
9.46034835759691e-05
8.71829058166433e-05
8.79964306387232e-05
9.25435730064203e-05
9.99047580451857e-05
0.000109377021747943
0.000120128068808174
0.000131031210912226
0.000140803201559101
0.000145151975425033
0.000145415458820576
0.000140348304916195
0.00013002381292278
0.000115343467296827
9.79915227225778e-05
8.03912344338169e-05
6.48898305137461e-05
5.31702132843405e-05
4.67313777441804e-05
4.8986716564492e-05
5.04155650662487e-05
5.39634493546046e-05
6.3918205963989e-05
7.18860764151709e-05
8.23184776177061e-05
9.23915844396132e-05
0.000103077439849357
0.000115966472585202
0.000133962753082739
0.00016005613380702
0.000196473272672414
0.000243899792438083
0.000301266678783724
0.000366217957737591
0.000435982230105938
0.000508148995123482
0.000581048541402655
0.000653754698056262
0.000725891908758249
0.000797408857346375
0.00086839943702039
0.000938987363772465
0.00100926181582169
0.0010792455759913
0.00114888082861504
0.0012180231960225
0.00128643901046445
0.0013538037362032
0.00141970119884851
0.00148362427052317
0.00154497816035881
0.0016030876690098
0.0016572098010653
0.00170655297782069
0.00175030379039825
0.00178766176634513
0.00181788199665251
0.00184032472923383
0.0018545100519528
0.0018601743832198
0.00185732322548657
0.001846270104205
0.00182764044296267
0.00180227876231346
0.00177077184952611
0.00172444461200906
0.00170331962688848
0.00166916455002049
0.00162614142808265
0.00157419584360173
0.00151544688308737
0.00146148734425872
0.0013944562348952
0.00129595820866553
0.00155002853714544
0.00177759723568012
0.00203241629267912
0.00233287157479861
0.00268209558866124
0.0030874101210621
0.00362205069817146
0.00408683152377251
0.00450350548901046
0.00509671763611373
0.00572044931720655
0.00638172320663246
0.0070936305163234
0.00785509818473742
0.00868574625563106
0.00965363551204187
0.0107597221839585
0.012023353797914
0.0134682015099629
0.0151262844930485
0.0170287220105607
0.0192512809384421
0.0217621972155197
0.0235146280736541
0.0246431156564897
0.0247458608138966
0.0224721089260884
0.0162794155828361
0.00609298798291293
-0.00404293468248713
-0.00494269258593834
-0.0010339285651939
0.00835446825867262
0.0113972612676608
0.00836444926610872
0.00759255030948099
0.0193679146682524
0.00743279177062924
0.00373405967201395
0.00580985047339538
0.00409853668184626
0.00196807610340127
0.0011356997606531
0.000552451633192899
0.000266244116624751
0.000151772784144032
0.000110382702170443
9.83025844579834e-05
9.69548235826953e-05
0.000100049276053676
0.000105893497682311
0.000113455797115086
0.000121590642234526
0.000128926419291585
0.000133943392019271
0.000133381615825537
0.00012840826718942
0.000118994376929251
0.000105667322654178
8.96276197824852e-05
7.26321689863846e-05
5.70456089999454e-05
4.50211468232709e-05
3.79774161187867e-05
3.69675725811445e-05
4.17237024642541e-05
5.20865530534447e-05
6.078552020696e-05
6.8777406032681e-05
7.3133552028316e-05
7.97349070024067e-05
8.70785887985771e-05
9.76626248901495e-05
0.000114370625106852
0.000140427369832295
0.000177791145619147
0.00022643195894784
0.000284237278849031
0.00034785467137634
0.000413924988705275
0.000479994154755263
0.000544761897232191
0.000607849850544633
0.000669415790024236
0.000729830090007777
0.000789475340278983
0.000848649886723593
0.000907535286381468
0.000966195510774179
0.001024588146267
0.00108257771139187
0.00113994707276651
0.00119640606676046
0.00125159788048876
0.00130510436589948
0.00135645166450744
0.001405117524894
0.0014505415641543
0.00149213954591856
0.00152932248971054
0.00156152102767698
0.00158821491947087
0.00160896699741197
0.00162346008173099
0.00163153448019676
0.00163322236647441
0.0016287732666414
0.00161866085012275
0.0016035523686744
0.00158420305664341
0.00156123298544388
0.0015298577224973
0.00151145874265618
0.00148362192822329
0.00144824515261971
0.00140614187308377
0.00136151273879514
0.00132604045141278
0.00127326120406481
0.00116490083473307
0.00141335215908297
0.00162072131622896
0.00183923331627449
0.00208442770211937
0.00235787034426453
0.00265333888067502
0.00298470529984803
0.00335501121450793
0.00376429409548241
0.00420537074771245
0.00467531060945548
0.00518215350811815
0.00573684868708599
0.00633830847995705
0.0070043798668771
0.00779308026232003
0.00870156190294198
0.00974468821616346
0.0109395314291064
0.012308215627718
0.013868829640316
0.015674075781084
0.0176777508082147
0.0181580564740334
0.0186973789600473
0.0176703672715052
0.014083430345219
0.00661492748086459
-0.0039231819856675
-0.0117673262704544
-0.0102643907974306
-0.00560821508195534
0.00276205556810286
0.00628190718106398
0.00448887702243429
0.00475166427188449
0.0156568925117667
0.00887890031574822
0.0035843702534848
0.00456012687865491
0.00528278234683173
0.00244922048567224
0.00141535258969655
0.000707446450553894
0.000336391704444619
0.000184576039921289
0.000127109061442472
0.000108218539806975
0.000103453335825356
0.000104250455441434
0.000107751574334836
0.000112569493136761
0.000117323492589442
0.000120533558975236
0.000120269169898717
0.000116372333384033
0.000107691259508669
9.58740085240952e-05
8.14725638782253e-05
6.56435660537838e-05
5.00384944952888e-05
3.69291967127794e-05
2.83187871497902e-05
2.53893938665778e-05
2.8795258715037e-05
3.77542048343025e-05
5.12367995655904e-05
6.03178820180747e-05
6.74557720363246e-05
6.85488429332242e-05
7.33256607286767e-05
8.1807534182438e-05
9.73001829308238e-05
0.000122582655239051
0.000159416402051736
0.000207173993929353
0.000262980803103313
0.000322790340547752
0.000382947123452667
0.000441162152662696
0.000496608614917229
0.000549458702047842
0.000600344362169754
0.000649975717779424
0.000698947735661205
0.00074767483543568
0.000796391976790312
0.000845181104478767
0.000894002272560144
0.00094272080523009
0.000991128222189944
0.00103895729683998
0.00108589261975843
0.0011315782316368
0.00117562384276045
0.00121761100385883
0.00125710042998214
0.0012936414576299
0.0013267844006305
0.0013560963347822
0.00138118044823861
0.00140169860480886
0.00141739615260335
0.00142812732640264
0.00143387878561636
0.00143478776679875
0.00143114995360129
0.00142340996287467
0.00141212308008715
0.00139786775701013
0.00138109807653528
0.00135712698006106
0.00134055434012697
0.00131620892428985
0.00128553008023513
0.00125030162161365
0.0012157702387794
0.00119220486330065
0.00114549049747587
0.00102176555705889
0.00125486243615301
0.00143510336662898
0.00161201786074075
0.00180164794898783
0.0020069778840968
0.00222729523170097
0.00247932184275509
0.00275800355273048
0.00305838835819934
0.00338290881267327
0.00373369185503931
0.00411816320681732
0.00454569865510141
0.00501554391189014
0.00554346265260658
0.00617825891941571
0.00691493121215726
0.00776442633632139
0.00873819393753642
0.00984974983221105
0.0111065256585302
0.0125440373705133
0.0137014755505902
0.0136981457879083
0.0134028086151827
0.0113395370479975
0.00653810968619649
-0.00203821532172555
-0.0123766087603441
-0.0181924987032523
-0.0137119327889874
-0.00875534546395027
-0.0012992763338245
0.00231764973259559
0.00119055740582587
0.00256613552493389
0.0104981309139312
0.0109743858148906
0.00380186221393604
0.00277851940754922
0.00625207899598078
0.00313461678827104
0.00175262135426442
0.00091411037671708
0.000431427431552399
0.000226670764603475
0.000146588781901997
0.000117804611236488
0.000107984575815424
0.000105707354065944
0.000106358935001292
0.000108134311477541
0.000109504934867714
0.000109048542138008
0.000105255884275298
9.87912264654899e-05
8.80887165583669e-05
7.54269370087745e-05
6.11393213832514e-05
4.62456137496696e-05
3.23214146949678e-05
2.16108212134283e-05
1.60174198689558e-05
1.64717760915036e-05
2.31864173116688e-05
3.48267921047001e-05
4.94030080369611e-05
5.59743883733989e-05
6.22295444113969e-05
6.22456795579148e-05
6.86242745810321e-05
8.22717229548721e-05
0.000106053213456299
0.000141143218901101
0.000186669862609384
0.000239244609795333
0.000294389778295113
0.000348248834957336
0.000398698659305014
0.000445304559146478
0.000488686361008425
0.000529851438575725
0.000569776144207444
0.000609221618199467
0.000648695928982352
0.000688481105200601
0.000728679739034051
0.000769260041695719
0.000810092557471473
0.000850977619923369
0.000891664976187629
0.000931867453285539
0.000971270478573138
0.00100953897989122
0.00104632296153951
0.00108126284419423
0.00111399549738466
0.00114416169153258
0.00117141551347395
0.00119543611881834
0.00121594184996389
0.00123270629367108
0.00124557527442203
0.00125448316605414
0.0012594662436439
0.00126067003730714
0.00125834706815813
0.00125284129883837
0.00124455654696043
0.00123390068642815
0.00122112946025189
0.00120083051816968
0.00118533146561888
0.00116328302881893
0.00113623636363378
0.00110664264528664
0.00107984301991963
0.00106398558114243
0.00101875180580221
0.000877731753182067
0.00109000460063144
0.00124117870022022
0.00137725614626532
0.00151618992178914
0.00166280979071171
0.00181946473033637
0.00200271569208492
0.00220399504147749
0.00241731174620044
0.00264917686142395
0.00290361220786815
0.00318689273298874
0.00350725447806513
0.00386439297874958
0.00427199717802977
0.00477076217507302
0.00535439537919698
0.00603044029820862
0.0068054523925434
0.00768527700728804
0.00866850487983111
0.00977770133618698
0.0100163617141127
0.00971013474160889
0.00859402038143878
0.00554459836794159
-0.000398501992458114
-0.00949326896944368
-0.0200930796008178
-0.0219948029558983
-0.0161371033950708
-0.0109344723523983
-0.00426617050630258
-0.000701954311264152
-0.00149348553405559
0.000802858080731025
0.00545470896317979
0.0133417773537307
0.00433594015625622
0.00223711403347991
0.00537940929928119