/*--------------------------------*- C++ -*----------------------------------*\
  =========                 |
  \\      /  F ield         | OpenFOAM: The Open Source CFD Toolbox
   \\    /   O peration     | Website:  https://openfoam.org
    \\  /    A nd           | Version:  7
     \\/     M anipulation  |
\*---------------------------------------------------------------------------*/
FoamFile
{
    version     2.0;
    format      ascii;
    class       volScalarField;
    location    "20000";
    object      nut;
}
// * * * * * * * * * * * * * * * * * * * * * * * * * * * * * * * * * * * * * //

dimensions      [0 2 -1 0 0 0 0];

internalField   nonuniform List<scalar> 
15600
(
1.31619599206812e-09
9.97099427720772e-10
4.34359143210377e-10
1.08832902897182e-10
1.48274224039735e-11
6.186911030407e-12
4.18229737258829e-12
1.81937693365078e-12
7.29197525276919e-13
3.47521507088985e-13
2.22825084897744e-13
2.02097508554576e-13
2.31856986418569e-13
2.948918554809e-13
3.86988768868985e-13
5.16116919787834e-13
6.96187150216058e-13
9.40676113589797e-13
1.26559957454585e-12
1.6887418859724e-12
2.23400458044426e-12
2.92810420472855e-12
3.79433600875139e-12
4.85047429320833e-12
6.07604015136353e-12
7.39942048841626e-12
8.68001522978397e-12
9.72030702071721e-12
1.025157340212e-11
9.99843641828613e-12
9.01038677205287e-12
7.70439378524595e-12
6.60726486161259e-12
6.07797039824902e-12
6.20436002125196e-12
7.69251189428553e-12
1.01040570696394e-11
1.33478096338958e-11
1.75993299220746e-11
2.32218331086151e-11
3.05788525795899e-11
4.00339241641093e-11
5.19398485778106e-11
6.66201240006023e-11
8.43065076202573e-11
1.05113559131763e-10
1.29032035829726e-10
1.5593944766386e-10
1.85624911292683e-10
2.17823541522719e-10
2.52252663594252e-10
2.88644079900398e-10
3.26769045947385e-10
3.66455260366372e-10
4.0759684692996e-10
4.50159152036774e-10
4.94180282450639e-10
5.39771045009959e-10
5.87114540891231e-10
6.36466286681814e-10
6.88155441241125e-10
7.42587531675396e-10
8.00248984137531e-10
8.61713765902931e-10
9.27652516677798e-10
9.98844682682025e-10
1.07619437250869e-09
1.1607509442092e-09
1.25373574333099e-09
1.35657698270351e-09
1.47095560246556e-09
1.59886632523577e-09
1.74270052364201e-09
1.90536191527266e-09
2.09043553208405e-09
2.30245332055176e-09
2.54735042641132e-09
2.83331927077881e-09
3.17259289217867e-09
3.58565487887312e-09
4.11195787665042e-09
4.8206511901406e-09
5.67926985363381e-09
6.61372109866035e-09
7.45561833580144e-09
6.68265209320936e-09
2.99830776924291e-09
1.4835284993996e-09
8.62781505732394e-10
5.76237121701572e-10
4.51465588382249e-10
3.88390960628862e-10
3.53347885051684e-10
3.38670386660585e-10
3.38974060338302e-10
3.47611895407807e-10
3.61157358812868e-10
3.78188558922555e-10
3.98592762091784e-10
4.2342605594829e-10
4.4603222124402e-10
4.53887048952608e-10
4.4635063427852e-10
4.26300373934739e-10
3.97082847185236e-10
3.62030519977305e-10
3.24657891178997e-10
2.88483621253193e-10
2.63233729284325e-10
2.56804825828333e-10
2.72108003999972e-10
3.19255609696139e-10
4.19479583527543e-10
6.68213708349789e-10
1.33957223082638e-09
3.45495722970853e-09
5.97312001194461e-09
4.65015455969104e-09
2.71322366151501e-09
1.67055798672787e-09
2.50330330771615e-07
1.89712912408634e-07
8.33490306282253e-08
2.23447151190127e-08
3.33083512392487e-09
1.26601062454457e-09
8.46046081949766e-10
3.8426503593054e-10
1.57204905050751e-10
7.37344271313919e-11
4.55463353147941e-11
3.97689187041344e-11
4.46244018830829e-11
5.62110836257042e-11
7.34452081670257e-11
9.76585407560895e-11
1.31466037630277e-10
1.77447472903538e-10
2.38651452821591e-10
3.18428787727573e-10
4.21384052966356e-10
5.52803722059192e-10
7.17242844471338e-10
9.18587644432098e-10
1.1539118768696e-09
1.41076598303259e-09
1.66347302796163e-09
1.87450202306315e-09
1.99139411774753e-09
1.95675929596532e-09
1.77228668585628e-09
1.51424858050171e-09
1.28856876651983e-09
1.17584786248257e-09
1.19671789242004e-09
1.48305038222272e-09
1.94723113147773e-09
2.57144589800561e-09
3.38861319317321e-09
4.46830994640625e-09
5.87934977910429e-09
7.6904631141991e-09
9.96789452020611e-09
1.27724806859165e-08
1.61481405316213e-08
2.01160720637159e-08
2.46744284533352e-08
2.98000520024904e-08
3.54530682939881e-08
4.15832828641379e-08
4.81369479199841e-08
5.50628321244974e-08
6.23169522042883e-08
6.98658190660034e-08
7.76883641089542e-08
8.57768776764369e-08
9.41373168321789e-08
1.02789295384392e-07
1.11765994606578e-07
1.21114162506605e-07
1.30894314277373e-07
1.41181211365922e-07
1.52064679983335e-07
1.63650830458458e-07
1.76063753542988e-07
1.89447797527684e-07
2.03970572266421e-07
2.19826886481804e-07
2.37243911209367e-07
2.56487984247526e-07
2.77873652608191e-07
3.01775846894913e-07
3.28646601707911e-07
3.59038657723713e-07
3.93640172399773e-07
4.33329460635121e-07
4.79268988797864e-07
5.33078518713672e-07
5.97187599360841e-07
6.75664244848099e-07
7.76420821367429e-07
9.10213386075195e-07
1.06624063984653e-06
1.2313155452532e-06
1.36292561880545e-06
1.202238952259e-06
5.52252473623485e-07
2.7396225925331e-07
1.60468030909198e-07
1.08465651366677e-07
8.58537018833712e-08
7.44131130877189e-08
6.81156510778651e-08
6.5648641099069e-08
6.59713241870962e-08
6.7817775269982e-08
7.05712067442744e-08
7.39866726885729e-08
7.80620370516685e-08
8.29265632356299e-08
8.70653339431699e-08
8.82185221942618e-08
8.6465693637113e-08
8.23850282876809e-08
7.66160570785691e-08
6.97973674539131e-08
6.26093766504935e-08
5.58010623605864e-08
5.12515864620595e-08
5.03972592406342e-08
5.38291501376811e-08
6.36054749461264e-08
8.43477434004881e-08
1.35365933149515e-07
2.69955670161239e-07
6.60994804217558e-07
1.10441698435198e-06
8.48410332753475e-07
4.91443904504529e-07
3.13223707035062e-07
5.21716388751179e-06
3.98440630798196e-06
1.72742278963912e-06
5.04422442165772e-07
8.39984733644908e-08
2.96296841224945e-08
1.95998416579728e-08
9.28074554592984e-09
3.88658138201513e-09
1.80546310815455e-09
1.07960603700475e-09
9.09381877108407e-10
9.98753430569195e-10
1.24583550108835e-09
1.62014373351034e-09
2.14703511254444e-09
2.88335457440348e-09
3.88627316278454e-09
5.22315551843214e-09
6.96768395112271e-09
9.2210797031203e-09
1.21108499113606e-08
1.5740172351307e-08
2.02046697960567e-08
2.5462340350727e-08
3.12668318184351e-08
3.70848969114175e-08
4.20897035832442e-08
4.50735888216884e-08
4.46533002023808e-08
4.06880332811606e-08
3.47750383588039e-08
2.93488662331646e-08
2.65501590964545e-08
2.68571869591122e-08
3.31669910948931e-08
4.34939007667378e-08
5.73791676793727e-08
7.54924132907389e-08
9.93516595765441e-08
1.30416730624659e-07
1.70048903681864e-07
2.19663044896285e-07
2.8055815730836e-07
3.53592987960973e-07
4.39183350629392e-07
5.37264417305114e-07
6.47323357089837e-07
7.6849027274239e-07
8.99667810688984e-07
1.03967102929701e-06
1.18735528155535e-06
1.3417177041935e-06
1.50196803415913e-06
1.66757130216445e-06
1.83826891308605e-06
2.0140855358497e-06
2.19532853663948e-06
2.38258522242219e-06
2.57672169970708e-06
2.77888598062186e-06
2.99051721722613e-06
3.21336260090467e-06
3.44950351318841e-06
3.70139289456986e-06
3.97190648832874e-06
4.26441166067875e-06
4.58285899397504e-06
4.93190401382933e-06
5.3170694790022e-06
5.74496324469358e-06
6.22357403513695e-06
6.76267974442332e-06
7.37442372190908e-06
8.07415499350906e-06
8.88172016723306e-06
9.82358136731606e-06
1.09365094080782e-05
1.22746451633329e-05
1.39242760646447e-05
1.60336271607912e-05
1.85219314484342e-05
2.13166294139655e-05
2.40825848266881e-05
2.57952507809683e-05
2.20015826563161e-05
1.07217167331088e-05
5.61468031990079e-06
3.39198825982092e-06
2.34785484297565e-06
1.87500370589696e-06
1.63576322302259e-06
1.50496450274487e-06
1.4570969618844e-06
1.46945851573116e-06
1.51437484522664e-06
1.57897689308161e-06
1.6583511377407e-06
1.75260532428725e-06
1.86041888840861e-06
1.9432853972981e-06
1.9606513710747e-06
1.91666915821681e-06
1.82385679710581e-06
1.69566688175413e-06
1.54569694531861e-06
1.38872035606319e-06
1.24221544063738e-06
1.14710429735695e-06
1.13440021368251e-06
1.21840554330051e-06
1.44514785989059e-06
1.92127641047978e-06
3.05650432090366e-06
5.88075535838146e-06
1.32686125714894e-05
2.13837748691689e-05
1.68505595440493e-05
9.29865974753308e-06
6.19164215178839e-06
3.45422469753112e-05
2.77376131703316e-05
1.19738926247981e-05
3.9145413483191e-06
7.68368246375897e-07
2.57138815659407e-07
1.68170895316443e-07
8.29845514367671e-08
3.56811076972886e-08
1.64991441915219e-08
9.57545758708572e-09
7.77194437790544e-09
8.33570290063841e-09
1.0280214069907e-08
1.32930543054711e-08
1.75445301965219e-08
2.34912940558283e-08
3.1602798049135e-08
4.24324812170989e-08
5.65836979516783e-08
7.48635570367253e-08
9.84100240672801e-08
1.28086012903439e-07
1.64732533427688e-07
2.08164456829065e-07
2.56576400245101e-07
3.05851765480942e-07
3.49405867134242e-07
3.76951981491373e-07
3.76313073119878e-07
3.44870184457335e-07
2.94847436646723e-07
2.46775156158362e-07
2.21295353427637e-07
2.2254603517668e-07
2.74346903293793e-07
3.59227351840815e-07
4.72675156359087e-07
6.19477039084354e-07
8.11313502015041e-07
1.05713639863857e-06
1.36695032925107e-06
1.75134618092945e-06
2.2183034220283e-06
2.77317218788749e-06
3.41816917917279e-06
4.15208065443985e-06
4.97043651274943e-06
5.86610704086242e-06
6.83020925579311e-06
7.85312627356972e-06
8.92546548849206e-06
1.00388332117254e-05
1.11863808518364e-05
1.23631346641895e-05
1.35661559504697e-05
1.47945884007682e-05
1.6049645234443e-05
1.733457765895e-05
1.86546546180463e-05
2.00171742304365e-05
2.14315209285976e-05
2.29092789304046e-05
2.44644122008249e-05
2.61135227859059e-05
2.78762030060279e-05
2.97755026715638e-05
3.18385405216652e-05
3.40973005884156e-05
3.65896697622243e-05
3.93607949073203e-05
4.24648705840472e-05
4.59675176583672e-05
4.99489850082275e-05
5.45085209786952e-05
5.9770476301159e-05
6.58930447179747e-05
7.3081103788663e-05
8.16067770320493e-05
9.18534090597936e-05
0.000103706902058109
0.000116997864272782
0.000131126905885339
0.000143504446848822
0.000146741256797086
0.000119749815221891
6.41206211672213e-05
3.75573474969446e-05
2.43006637091766e-05
1.76181981630353e-05
1.43323643642485e-05
1.26502387958868e-05
1.17501009350863e-05
1.14721551667289e-05
1.164686744852e-05
1.20653462584525e-05
1.26352290513618e-05
1.33220680243949e-05
1.41235134054186e-05
1.49317301918473e-05
1.55262877296217e-05
1.56212496161972e-05
1.52658559879232e-05
1.45487234899964e-05
1.35650351380287e-05
1.24139910959516e-05
1.12081765351582e-05
1.00919306289059e-05
9.38627591358169e-06
9.33683885004906e-06
1.00681282429311e-05
1.19208713072446e-05
1.57135180474602e-05
2.42600078194042e-05
4.36501197321949e-05
8.84150837946514e-05
0.000133785407511484
0.000111655272015855
5.79139247649686e-05
3.88864807184685e-05
0.000115323594657913
9.97429988449842e-05
4.36686649726118e-05
1.60386000628118e-05
4.03846210658367e-06
1.32404117534208e-06
8.52671185664694e-07
4.378427326363e-07
1.9377203353822e-07
8.96106093204921e-08
5.06106038131831e-08
3.95238898167111e-08
4.12744756284201e-08
5.02302415445996e-08
6.45170050156631e-08
8.47468760553576e-08
1.13073072254997e-07
1.51767110541875e-07
2.03517834711813e-07
2.71252938661847e-07
3.58705394457353e-07
4.71779008657924e-07
6.14751958848623e-07
7.91874153950195e-07
1.00287180466655e-06
1.23988458285932e-06
1.48395164593522e-06
1.70480110140852e-06
1.85156879471243e-06
1.86173025359424e-06
1.71561029451019e-06
1.46748645827604e-06
1.21908574217125e-06
1.08393310643255e-06
1.08499022238647e-06
1.33838982550404e-06
1.7470866465009e-06
2.28386348423655e-06
2.96671216038766e-06
3.83257218268057e-06
4.91446267756743e-06
6.25414719579235e-06
7.88386247519436e-06
9.82944399747629e-06
1.21077558403695e-05
1.47239428653718e-05
1.76695026405097e-05
2.0922391887971e-05
2.44492813506457e-05
2.82094600986296e-05
3.21593911124388e-05
3.62569948119533e-05
4.04650370677814e-05
4.47534121865306e-05
4.91004021534913e-05
5.34931562560725e-05
5.79276675846089e-05
6.24084901046e-05
6.69483769362417e-05
7.15679600030894e-05
7.62955422904266e-05
8.11670411674826e-05
8.62261016377767e-05
9.15243908754622e-05
9.71220852345067e-05
0.00010308856592704
0.000109503350222534
0.000116457299190876
0.000124054162918917
0.000132412546929487
0.000141668408246931
0.000151978213997858
0.000163522907435597
0.000176512786015695
0.000191193217410478
0.0002078506470444
0.00022681702541042
0.000248466343984593
0.000273179625448286
0.000301177100675904
0.000331384010645257
0.000363125447357927
0.000392668929445807
0.000410239171339299
0.000395230050999439
0.000313855876380942
0.000189432128745085
0.000125515486023666
8.90543434730347e-05
6.91168708183952e-05
5.83315191069725e-05
5.26744022982101e-05
4.98280291212516e-05
4.93501918854182e-05
5.06034002463514e-05
5.27820491959712e-05
5.55469391398482e-05
5.87529523596125e-05
6.2133515619755e-05
6.54137944154793e-05
6.77318555213262e-05
6.8073746314381e-05
6.66987171458992e-05
6.39087767046346e-05
6.00371704007267e-05
5.5447322933515e-05
5.05836357777589e-05
4.60789963623381e-05
4.33054706957396e-05
4.3337571395552e-05
4.67371471131638e-05
5.46864624240047e-05
7.03311520106449e-05
0.000102951709707592
0.000169157648510386
0.000301922940190649
0.000419954424323986
0.000375339428186625
0.000195589639807825
0.000129413681311774
0.000262263245962765
0.000241942156367811
0.000108256948019625
4.27748525020111e-05
1.43307723174953e-05
4.97220451677466e-06
3.15141064751225e-06
1.68066576428089e-06
7.67129104911893e-07
3.56404664770113e-07
1.96502885971739e-07
1.47477551439489e-07
1.49456731377313e-07
1.79076814154816e-07
2.28190780266474e-07
2.98066325406951e-07
3.96022330828925e-07
5.300212011745e-07
7.09557153422663e-07
9.44976295458397e-07
1.24865097029128e-06
1.64227328893194e-06
2.1412781157851e-06
2.76072225758102e-06
3.501016599062e-06
4.33664910359432e-06
5.20355684402064e-06
6.00009198798105e-06
6.55205239926539e-06
6.63025622781e-06
6.14340581680864e-06
5.26099408898951e-06
4.34702045006113e-06
3.8322111956184e-06
3.82022117752612e-06
4.71489320581146e-06
6.103298270613e-06
7.8637129727618e-06
9.99467639960678e-06
1.25872366964083e-05
1.57428209560306e-05
1.95481118703837e-05
2.40815992591051e-05
2.94132630006856e-05
3.55906271497321e-05
4.262544092913e-05
5.04855005548102e-05
5.90955873241428e-05
6.83468273974482e-05
7.81112573847501e-05
8.82573213083713e-05
9.86630995594992e-05
0.000109225619341161
0.000119866128050633
0.000130532053632129
0.000141196709194179
0.00015185771768286
0.000162534906854326
0.000173268160510979
0.000184115500980264
0.000195151525766068
0.000206466231408953
0.000218164208390492
0.000230364177191
0.000243198838463371
0.000256815021961099
0.00027137414214941
0.000287052987383676
0.000304044887605934
0.00032256130522802
0.000342833850583888
0.000365116606354155
0.000389688377621763
0.000416853901769542
0.000446941843455312
0.000480295108961405
0.000517245063115265
0.000558056532453629
0.000602845872306928
0.000649865156637306
0.000697716558417953
0.000742215745981739
0.000773825144449291
0.000774065027765076
0.000714723583004778
0.000568608832800493
0.000380287011579826
0.000276844813300737
0.000213029531970278
0.000176551205562652
0.000155686246459281
0.000144735883958676
0.000140033249551418
0.000140863004622997
0.00014569481605421
0.000152598741792335
0.000160785894446717
0.000169542912500512
0.000178352861260261
0.000186733824584823
0.00019243581743866
0.000193319629976651
0.000190150408687723
0.000183543446523175
0.000174208212949776
0.000162951695872915
0.000150849023442966
0.000139617415727933
0.000132938867447415
0.000133772425806194
0.000143546794798169
0.000164725889737648
0.000204652151997657
0.000281879599501273
0.000423590208804701
0.000673998003229594
0.000873333867064137
0.000818585573919373
0.000459424843966505
0.00030322296295154
0.000481917431682398
0.000462270450250088
0.000217174191970642
8.65549780781737e-05
3.67692053581007e-05
1.49683933999948e-05
9.44012374761958e-06
5.22370737220996e-06
2.4634572166047e-06
1.15495665181233e-06
6.2393965034978e-07
4.49752123934206e-07
4.40727721900572e-07
5.18511173774491e-07
6.54479539432017e-07
8.49196860393254e-07
1.12251580421119e-06
1.49684775364775e-06
1.99916435767377e-06
2.65889890767279e-06
3.50863102195244e-06
4.61010544655135e-06
6.00763221078723e-06
7.74135951688662e-06
9.81206529147741e-06
1.21486014291652e-05
1.45731993947459e-05
1.68072066255124e-05
1.83987586818009e-05
1.87064544110955e-05
1.74294324058198e-05
1.49697059853398e-05
1.23526425186832e-05
1.08014133349286e-05
1.071614629355e-05
1.31614968219743e-05
1.67212255276541e-05
2.08887131158312e-05
2.56495671321042e-05
3.12741253676021e-05
3.79604791094562e-05
4.59190494080948e-05
5.53628830382973e-05
6.64768812370652e-05
7.93687776526274e-05
9.4034790901392e-05
0.000110349887285988
0.000128085882120263
0.00014694833374937
0.000166619729481616
0.000186797610879369
0.000207221697553741
0.000227688781861842
0.000248057541521211
0.000268246502976243
0.000288228281748987
0.00030802239772984
0.000327688120174028
0.000347318085774341
0.000367032976223344
0.000386977267703271
0.000407315942405836
0.000428232004109864
0.000449924653105448
0.000472608003195002
0.00049651024704651
0.00052187320750553
0.000548952203292585
0.000578016115792468
0.000609347428967792
0.000643241759806274
0.000680005938750693
0.000719952879115346
0.000763389983960393
0.000810595116280632
0.000861769193924715
0.0009169447088229
0.000975806404674085
0.00103732233557176
0.00109813519051041
0.00115442746168072
0.00119780575211819
0.00121351530255269
0.00117884165062313
0.00106739605839103
0.000864259623999757
0.000624178285470876
0.00048579729087799
0.000397327102324487
0.000346195929189178
0.000316816967958243
0.000302015092317966
0.000297649914261246
0.000302654502378343
0.000314215797941482
0.000328988228996274
0.000345363525628389
0.000362005305447869
0.000378704836481404
0.000394097487037491
0.000404193002631319
0.000405824262861016
0.000400474654015055
0.000389068376349286
0.000372738150708467
0.000352824812226913
0.000331255595405022
0.000311400138964066
0.000300267955348145
0.000303541669362674
0.000323483964792547
0.000364300387678652
0.000438416890125613
0.000573283006835966
0.000801843309223637
0.00116818650487238
0.00144221346220792
0.00139172804788116
0.000856608547336473
0.000574215711945321
0.000778887735427475
0.000749848838808513
0.000389354024692747
0.000148290731513388
7.31613011151398e-05
3.69892382142431e-05
2.41667771555683e-05
1.39519725770355e-05
6.81367905171161e-06
3.23874790924341e-06
1.72196599157457e-06
1.19240226092624e-06
1.12563545761872e-06
1.29611413258692e-06
1.61739940279621e-06
2.0817567669585e-06
2.7344568728462e-06
3.62895969651098e-06
4.83016815907963e-06
6.40877697581896e-06
8.43624755429672e-06
1.10530249749723e-05
1.43632467950806e-05
1.84457432963103e-05
2.32846227570547e-05
2.86934867198853e-05
3.42431169175976e-05
3.92847169222788e-05
4.28633501666293e-05
4.36523437435203e-05
4.08833578571e-05
3.53122435676986e-05
2.92260238477865e-05
2.54337858839611e-05
2.5080318845351e-05
3.03254446275598e-05
3.71356646915488e-05
4.44873152456102e-05
5.26892499270333e-05
6.23005491552834e-05
7.38046941496815e-05
8.770861415748e-05
0.000104470640696265
0.000124406380140963
0.000147598472042167
0.000173863166737564
0.000202780101044665
0.000233771865841651
0.000266201063357429
0.000299456999580835
0.000333015445155377
0.000366469140248037
0.00039953462936676
0.000432044150602521
0.000463930160005388
0.000495207873862946
0.00052595883323454
0.000556316860367491
0.000586456721794434
0.000616585304652742
0.000646934890611895
0.000677758087591984
0.000709324009198009
0.000741915373237818
0.00077582625384634
0.000811360243026245
0.00084882879171082
0.000888549420048448
0.000930843331337646
0.000976031675471767
0.00102442917474995
0.00107633296588484
0.00113200311422697
0.0011916289479996
0.00125527158133416
0.00132276693964089
0.00139356346050893
0.00146644759497066
0.00153851996846199
0.00160505930704179
0.00165923544685352
0.00168940543627367
0.00167827220388135
0.00160368924558111
0.00144499543929655
0.00119589114751335
0.000914246913250762
0.000746825174192734
0.000638665212624789
0.000576612485462669
0.000542090012630404
0.000526214648754729
0.000524833671927548
0.000536480201490157
0.000556882602201
0.000581144324350564
0.000606716838320526
0.000632789215578152
0.000658590282990824
0.000681635390322036
0.000696288392243014
0.000698725831683083
0.000691130821456579
0.00067469830157634
0.000650994062204421
0.000621957096688725
0.000590547964148821
0.000562225189302319
0.000547739004913326
0.000555688625964819
0.000588476209390477
0.000653173438036903
0.000766706677858356
0.000963171009580393
0.00127605251279865
0.00174242323680836
0.00208435024448779
0.00204444870181624
0.00137080693507809
0.000942557105497725
0.00115747505160702
0.00108183946453876
0.00065395405830478
0.000230578302199921
0.000120929976152153
7.59228694242948e-05
5.38510114913704e-05
3.3069495162442e-05
1.68120918841659e-05
8.14647664581716e-06
4.28600718546466e-06
2.85514322513985e-06
2.58688089379029e-06
2.9041359780066e-06
3.57412627138359e-06
4.55538912323669e-06
5.93665131438159e-06
7.8288932320564e-06
1.03674593960875e-05
1.3698028086811e-05
1.79527571068509e-05
2.33830511418093e-05
3.01887729247425e-05
3.84655865929396e-05
4.81020975956545e-05
5.86408775403748e-05
6.91731131067818e-05
7.84236107441854e-05
8.47028443084155e-05
8.59078715919859e-05
8.08197396959251e-05
7.03633504940173e-05
5.87093236052703e-05
5.10680648160994e-05
5.00549487177532e-05
5.85460092279996e-05
6.85477833700746e-05
7.91062607667678e-05
9.11136054986437e-05
0.000105665227927074
0.000123722697126144
0.000146163429406275
0.000173622243950942
0.000206335663808866
0.000244057602703955
0.000286103797437629
0.000331495181440495
0.000379141023161485
0.000427999643885225
0.000477185481259323
0.000526018363039984
0.000574029192781067
0.00062093971335052
0.000666631358380651
0.000711112555173095
0.000754489425465004
0.000796941629691841
0.000838703467626944
0.00088004953423701
0.000921284019873692
0.000962732752065498
0.0010047372243271
0.0010476499818139
0.00109183087170525
0.00113764374365812
0.00118545317742943
0.00123562078552235
0.00128850046614245
0.00134443169653271
0.00140372949234689
0.00146666887252049
0.00153346048120081
0.00160421221629171
0.00167886896813437
0.00175711854486241
0.00183824648537698
0.00192091672541866
0.0020028578797784
0.00207920740715704
0.00214402823055655
0.00218811954034375
0.00219819109493372
0.00215693240021153
0.00204519934123515
0.0018476422399552
0.00156190730579943
0.00124655215042287
0.00105545452949437
0.000932437956132438
0.000862963971804991
0.000826199545027693
0.000812380889849645
0.000815839552141426
0.000835465251172095
0.000865361561771584
0.000899158198510556
0.000934790679147316
0.000970956197992082
0.00100616065212325
0.00103674396775716
0.0010557281513262
0.00105896978020129
0.00104918824421309
0.00102783907461625
0.000996937535462435
0.000959104207413807
0.000918518864600868
0.000883040574667616
0.000867130131231357
0.000881777771171483
0.000929311692259823
0.00102019675546294
0.00117472103875192
0.00143072149642069
0.00181830780483687
0.00236598532963025
0.00277261949750171
0.00274388159705212
0.00197743214594276
0.00139851024212283
0.00161961816217107
0.00144054731198633
0.00104383466837173
0.000339127690455929
0.000177625598286517
0.000129806797129187
0.000104098432792238
7.03994638354317e-05
3.7725770824952e-05
1.87744400703386e-05
9.84323309138183e-06
6.32769083406695e-06
5.48488372602051e-06
5.97705113797638e-06
7.23281620804966e-06
9.10876656939054e-06
1.17538044872813e-05
1.53701543544813e-05
2.02035659182293e-05
2.65101136755835e-05
3.44944105617903e-05
4.44809569852912e-05
5.67821798598032e-05
7.13947016112477e-05
8.79213219359026e-05
0.000105381780274531
0.000122127895663483
0.000136068945541984
0.000144740559825369
0.000145426209515112
0.000136766523919365
0.000120341751815252
0.000101601440785345
8.87588480149753e-05
8.62556682340952e-05
9.68549473054529e-05
0.000109362802299921
0.000123123293746107
0.00013986220442664
0.000161286613745827
0.000188823406294836
0.000223541910355376
0.000265914236218299
0.000315663502268612
0.000371808390095063
0.000432889240394248
0.000497263388268486
0.000563364064429529
0.000629866360210379
0.000695758678504712
0.000760344848943046
0.000823208095246788
0.000884160343007183
0.000943191352904799
0.00100042431422672
0.00105608006851302
0.0011104495828903
0.0011638733851501
0.00121672639830944
0.00126940676705228
0.00132232748593548
0.00137590990715124
0.00143057837601369
0.00148675539223616
0.00154485675631332
0.00160528610296013
0.00166842813626026
0.00173463962097398
0.00180423678681033
0.00187747720499048
0.00195453324992297
0.00203545290657298
0.00212010177074863
0.00220807740869847
0.00229858374660357
0.00239024932037459
0.00248087037136632
0.00256706022370578
0.00264259329700616
0.00270030267929372
0.0027297711486608
0.00271750119528169
0.00264766690638222
0.00250452296502767
0.00227612628381885
0.0019609946764738
0.00161820400851039
0.00140786681996067
0.00127394530489375
0.00119977474076639
0.00116295898754176
0.00115277436010486
0.00116265912657462
0.00119062785648863
0.00122983789864791
0.00127366993990988
0.00131972122642371
0.00136610057246972
0.001410527589215
0.00144821628918408
0.00147118665213296
0.00147518642709148
0.00146328331057038
0.00143721702432324
0.00139948413522558
0.00135348934801805
0.00130481502341861
0.00126390869958134
0.00124863822513482
0.00127139318877137
0.00133491912267834
0.00145271143758157
0.00164703081300078
0.001956582691969
0.0024058399522881
0.00301802800693876
0.00349011400810701
0.00347071282000473
0.00265239347828926
0.00192816295789897
0.00216183891437567
0.00182266789536795
0.00157658226031097
0.000483620354698376
0.000242865237543904
0.000191994890223225
0.000174399135127671
0.000134152314956132
7.75585231146953e-05
4.00798958551671e-05
2.11375264206629e-05
1.31859622725769e-05
1.09120653128477e-05
1.14869138615809e-05
1.36176531466385e-05
1.69007374322676e-05
2.15410843789589e-05
2.78604543620139e-05
3.62448689193086e-05
4.70700800917711e-05
6.05773739352734e-05
7.70214877484661e-05
9.67558063327265e-05
0.00011946429597743
0.000144191864092644
0.000169186203136812
0.000191919850004622
0.000209515720522573
0.00021897250884796
0.000217403098564836
0.000203778299406441
0.000180586140597029
0.000154555785629199
0.000136104900393862
0.000131083988610372
0.000142482004400585
0.000157382693576038
0.000175427404122748
0.00019914166427472
0.000230698626897655
0.000271734403894668
0.000323066575991109
0.000384473015719458
0.000454707194487852
0.000531810924785688
0.000613539435747646
0.000697737965917428
0.000782579219773879
0.000866663096379279
0.00094901761009386
0.00102904706372718
0.00110646123222056
0.00118120518031041
0.00125339872198842
0.0013232879403139
0.00139120814940929
0.00145755632177058
0.00152277084262667
0.00158731661285739
0.00165167390305956
0.00171632968224567
0.00178177045141867
0.00184847578075579
0.00191691187664029
0.00198752453345249
0.00206073071740075
0.00213690788720081
0.00221637983423827
0.00229939735886585
0.0023861114426739
0.00247653560125327
0.00257049279249703
0.0026675405538048
0.00276686590880007
0.00286713925543394
0.00296631483340232
0.00306136649897719
0.00314795481259311
0.00321896046163184
0.00326642385166893
0.00327966296416015
0.0032459199178892
0.0031513709294867
0.00298302342425631
0.00273049278520418
0.00239169270711496
0.00202674891205281
0.00180079257801687
0.00165902935435633
0.00158218322883598
0.00154682825083411
0.00154117641796383
0.00155795114048618
0.0015944695541513
0.00164323293133269
0.00169728788616547
0.00175375923520152
0.00181014183657596
0.0018633427881786
0.00190756550161956
0.00193412720743625
0.00193877473151052
0.00192477307540819
0.00189418880076823
0.00185004466549307
0.00179663953824848
0.00174111781127625
0.0016965755986194
0.00168378162007947
0.00171521626875785
0.00179529994248996
0.00193915911643653
0.00216962965707606
0.00252389901485684
0.00302045719330117
0.00368457818258815
0.00422669099144554
0.00421351239468771
0.00337489678441023
0.00251768278289244
0.00277390036226462
0.00223668325409336
0.00223152362785158
0.000679674276806807
0.000318350174327626
0.000256822239645698
0.000255841013903832
0.000226689197659166
0.000145842361572868
7.95028555464526e-05
4.26972828396203e-05
2.60758281850971e-05
2.06030214531865e-05
2.08494929595116e-05
2.41116416751381e-05
2.94012392179891e-05
3.69131850230496e-05
4.70854711342376e-05
6.04350725095905e-05
7.74054636012906e-05
9.81491282015302e-05
0.000122649264372183
0.000151088566129632
0.000182622752629266
0.000215511138594025
0.000247126130902577
0.000274142567210323
0.000293154180017546
0.000301029837890735
0.000295220724287549
0.000275457749992574
0.000245294865685903
0.000212574030429437
0.000188927611993038
0.00018126077897084
0.000193332987381655
0.000211922138247555
0.000236753452108182
0.000270958718452888
0.000316835411071939
0.000375733962546683
0.000447609092857487
0.000531063332090852
0.000623682290232438
0.000722621041017122
0.000825101831079494
0.000928744614212959
0.00103170266216924
0.00113267094645031
0.00123082203297634
0.00132571728836684
0.00141721792540488
0.00150540800265957
0.00159053258808106
0.00167295031282053
0.00175309796426651
0.00183146438052114
0.00190857120424181
0.00198495844389862
0.00206117325421206
0.00213776068824047
0.00221525546591217
0.00229417394664118
0.00237500558533758
0.00245820314640324
0.00254417080602346
0.00263324909261012
0.00272569526903633
0.00282165728437806
0.0029211387928674
0.00302395186958723
0.00312965298074536
0.00323745654368161
0.00334611916364686
0.00345378678856995
0.00355779765259099
0.00365443847901825
0.00373866902062468
0.00380291166142003
0.00383892338642665
0.00383640589385944
0.00378378748923314
0.00366913531602435
0.00348126767118429
0.00321006719389774
0.00285238798465957
0.00246994106299926
0.00223139966472414
0.00208416944545455
0.00200616850955012
0.00197331571667032
0.00197275666086607
0.00199667567052811
0.00204179667487349
0.00210013390281648