/*--------------------------------*- C++ -*----------------------------------*\
  =========                 |
  \\      /  F ield         | OpenFOAM: The Open Source CFD Toolbox
   \\    /   O peration     | Website:  https://openfoam.org
    \\  /    A nd           | Version:  7
     \\/     M anipulation  |
\*---------------------------------------------------------------------------*/
FoamFile
{
    version     2.0;
    format      ascii;
    class       volScalarField;
    location    "20000";
    object      omega;
}
// * * * * * * * * * * * * * * * * * * * * * * * * * * * * * * * * * * * * * //

dimensions      [0 0 -1 0 0 0 0];

internalField   nonuniform List<scalar> 
15600
(
3737.12483284527
3747.09242362956
4013.54516297485
4981.9260547705
6722.38289284817
8243.61142270336
9140.89578878063
9470.61422170059
9381.66066933326
9006.32397445235
8438.94253287993
7750.80437657576
7003.44202430827
6322.24141473849
5746.06769917012
5256.23422684097
4837.73362561202
4478.5709374899
4169.18030251191
3901.73644682056
3666.81084072719
3434.23864841101
3192.83119398599
2945.61671358385
2694.79526760461
2441.72671706383
2187.24851626575
1932.50590719867
1690.43846208933
1474.1003029732
1285.09378774566
1127.09329186539
1007.45007878406
937.699091312195
929.394370773479
934.281208210129
934.281208210057
934.28120821018
934.28120821008
934.28120821012
934.28120821018
934.281208209993
934.281208210126
934.28120820998
934.281208210151
934.281208210093
934.28120821012
934.281208210205
934.281208210032
934.281208210191
934.281208210093
934.28120821008
934.281208210105
934.281208210081
934.281208210079
934.28120821008
934.28120821018
934.281208210058
934.28120821018
934.281208210131
934.281208210144
934.281208210194
934.281208210058
934.28120821018
934.281208209977
934.281208210128
934.281208210069
934.281208210066
934.281208210052
934.281208210108
934.281208210206
934.281208210029
934.28120821018
934.281208210105
934.281208210135
934.28120821018
934.281208209977
934.281208210129
934.281208209993
934.281208210167
934.281208210082
934.281208210075
934.281208210134
934.281208210132
934.281208210108
929.524926346351
937.279177788624
1006.43706984407
1125.61913087678
1283.2505475972
1471.93670061625
1687.9696754464
1929.77036715413
2184.44091565022
2438.88240423651
2691.92158354252
2942.72458598983
3189.93191363426
3431.36157835163
3663.98352605119
3898.65199089707
4165.64272148204
4474.4996820179
4833.0236909042
5250.76011339078
5739.66657846975
6314.71647759621
6994.58045987241
7741.7785983221
8430.61744886165
8999.36269921386
9376.99713236043
9469.38722739832
9144.96941176066
8254.29309745074
6739.43528498164
4996.07564420119
4018.8948543314
3747.72290820342
3737.12483284612
632.656813566952
635.154366778939
684.763429264584
834.673345238991
1115.7602277645
1371.50478613392
1528.17189195797
1587.98099297253
1575.60309190076
1514.79035986801
1422.12345268743
1309.21796577369
1185.23054565777
1070.60562371406
972.994019762375
889.889228682301
818.834234517267
757.825941154767
705.246093789642
659.790633531203
620.054631168153
581.043400349304
540.626943316101
499.199272236611
457.148223779995
414.721592201188
372.069304134083
329.282780153359
288.410368262115
251.732956178134
219.612086852714
192.638352963171
172.078841302581
159.926584916818
157.776209591317
157.873344221495
157.755384032627
157.780839391144
157.830964064153
157.893005375532
157.967678792499
158.050517820085
158.137949672427
158.224533691401
158.305488108891
158.376973096405
158.436872818769
158.484761466781
158.521662407594
158.549550348237
158.570863001752
158.588100963542
158.60357235123
158.619265273566
158.636815622414
158.657530829072
158.682439203942
158.712344135283
158.747871671576
158.78950614975
158.837612260221
158.892443764369
158.954139810751
159.022709764794
159.09800702381
159.179691709059
159.267181468169
159.35958878925
159.455641792748
159.553583629644
159.65104328524
159.74486615037
159.83088339548
159.903594004883
159.955732945804
159.977614913176
159.956021554406
159.872774951644
159.703077408749
159.409581197704
158.928425662422
158.173971230523
157.069860422922
155.43240866718
152.713667878755
150.639850174387
157.072641124771
171.100999162481
192.507276972128
220.064881802949
252.649906950952
289.719636272218
330.997171945059
374.124750548741
416.917349879702
459.323160380215
501.229921676411
542.423932689208
582.534702146088
621.109424659613
660.255237544305
705.16171369297
757.243476948374
817.788709337271
888.402278724737
971.085795715915
1068.27985859541
1182.53506300804
1306.29344722822
1418.95744045556
1511.3135560248
1571.51692733943
1582.97473770713
1521.06637127316
1361.05175506461
1097.30697097021
822.511417634942
688.994806442905
656.640353171326
641.918908523122
216.424974011744
216.65505056487
240.403422454589
283.349114403394
365.752092201313
446.049633176364
499.234044698319
520.765694028764
517.935156316111
498.826194765737
469.095472417718
432.543216337535
392.017606492972
354.198390594576
321.864579779927
294.321900917679
270.760484933442
250.517429347379
233.050840944064
217.928253965659
204.723907844066
191.83380250685
178.505080941749
164.839103790055
150.975461825196
137.012737066205
123.017046635678
109.005688176461
95.6106232053953
83.5849104764391
73.0532645474933
64.1709309046004
57.3345614816282
53.1994520437793
52.2618545350348
52.1139737121164
52.0763645672722
52.1323169656827
52.2266488528755
52.3439710606975
52.4823820097469
52.6348640799275
52.7941209929817
52.9508779291988
53.0968863221783
53.2259329993573
53.3347938775127
53.4231680450594
53.4930998488001
53.548089128067
53.5922493084333
53.6296644570944
53.6640001417768
53.6983262607245
53.7350852811466
53.7761394741515
53.8228487950958
53.8761490609478
53.9366148412235
54.0045008183853
54.0797606919873
54.1620452338809
54.2506821001565
54.3446400686112
54.4424800381102
54.5422947235547
54.641638506893
54.7374481947732
54.8259540834701
54.9025788882723
54.9618192859538
54.9970999032069
55.0005814156699
54.9628958545181
54.8727676391269
54.7164260772034
54.4766683687416
54.1315179003358
53.6522018811984
52.9993141398302
52.1193157362404
50.9347727316665
49.3763700990172
47.3822710935096
44.9763191969552
44.4707869741623
50.5585643236492
56.9633389541917
65.0506068651356
74.8638661477629
86.1470703755438
98.8090070339896
112.775696537465
127.152986805258
141.199343369301
154.975461580833
168.472382789264
181.635230022459
194.337712439383
206.439885277734
218.766706431459
233.131288056953
249.933700670253
269.587220868285
292.619209551289
319.69319165682
351.599748073702
389.049552485065
429.154103736924
465.107075196336
493.978756911681
511.632593463464
512.288017514786
486.823583417207
427.404034048458
333.535063831661
252.451192060971
228.918028416918
236.736497270736
228.578021592512
109.056417930725
107.046385260223
124.898258825
141.776741374316
170.026969764893
201.317611233402
225.763935568711
236.65498224526
236.085222815618
227.879894578885
214.728275800872
198.354503473129
180.00409529789
162.720605434222
147.885020594629
135.236181389229
124.401323748547
115.076248531472
107.007851393055
99.9950749628549
93.8553894944575
87.8849639053233
81.7260221460103
75.4149043064918
69.0252011925778
62.6164676587509
56.2346006088098
49.8906627742014
43.852168394166
38.4546311546879
33.7477893923454
29.7660693344194
26.6590717070809
24.7161299578492
24.1903891544928
24.0596423394744
24.0750078367987
24.1704300529158
24.3169765366525
24.4982276806049
24.7084670843539
24.9365448114426
25.1694505078247
25.3924960451831
25.5930369571774
25.7624586672508
25.8972193210833
25.9983955365369
26.0703890454814
26.1193573651947
26.1518797499652
26.1740529983794
26.1910188243806
26.2068096246479
26.2243857643425
26.2457608696769
26.2721487718262
26.3040961312279
26.3415859813919
26.384109484009
26.4307093337014
26.4800007532662
26.5301766924005
26.5790034819249
26.6238124408155
26.661491993875
26.6884835814809
26.7007828928783
26.6939453854333
26.6630918576814
26.6029057946365
26.5076091217761
26.3708970874483
26.1858080903533
25.9445009280555
25.637906930954
25.2552404543858
24.7834342540827
24.2066816252955
23.5062966388585
22.6592219923214
21.641508626742
20.4709648329862
19.2516815807891
18.3101180663366
19.1403017073571
23.7450253021252
27.552641744625
31.9579891744072
36.9412352336109
42.4608498913069
48.5083671248334
55.0280848248255
61.531697930967
67.6999550718387
73.6322284605911
79.3498008673742
84.8431767499309
90.0600347689965
94.9636369118151
100.038521429967
106.1643446679
113.463035509793
122.112949071043
132.348913442851
144.471463776081
158.825957889202
175.654672346231
193.406413640913
208.928109135323
220.85655382021
227.118528398117
224.904738398252
209.572350434135
178.310296424579
132.742931694303
101.147066099127
98.1196819338219
116.446549247971
117.887296052881
67.1046477884075
63.9176450958506
80.5095427293443
90.8169996018941
98.3717092122473
109.355507681492
122.056304015999
128.78498207123
129.000109304783
124.866695721599
117.968862132188
109.23917004124
99.3162936728001
89.8616422360656
81.7025692205901
74.7333615511716
68.7484354128352
63.580563835561
59.0869941477108
55.1544201187699
51.687192053874
48.3208057936802
44.8573773897729
41.3140649238038
37.7398470789869
34.1796890160675
30.6722725053455
27.231178585583
23.9918074706486
21.1292081326078
18.6626850685041
16.5815826673306
14.9350727257595
13.8674826657183
13.5522961096188
13.4740847029583
13.5414663700418
13.6919945630312
13.9059490128917
14.1640921787393
14.4532886823179
14.7539430448459
15.0439421793729
15.3017850282259
15.5117099410528
15.6661629752901
15.7658507068086
15.8176651611967
15.8318397775155
15.8193783903652
15.7903225898678
15.7528843462268
15.7132262184211
15.6756132681497
15.6427231082254
15.6159808725108
15.5958542671316
15.5820863410875
15.5738667465932
15.5699518893042
15.5687470730596
15.5683629455599
15.5666565301675
15.5612645600551
15.5496343214458
15.529054831675
15.4966887201854
15.4496028939284
15.38479384371
15.2992018247525
15.1897074924453
15.0531052537754
14.8860503239803
14.684982707863
14.4460428003097
14.1650102750872
13.8373260073973
13.4583170681073
13.0238775948178
12.5321934952009
11.9812415635298
11.387327704543
10.8026882638474
10.3517649644825
10.3091862729972
11.4259794273324
14.4600610591984
16.9366238127704
19.7574015953439
22.7495094259609
25.9361624216222
29.302693003314
32.7903823873944
36.1052065855707
39.1272272899453
41.9698782904292
44.6619261906303
47.2118266367432
49.5971317310684
51.8300658538719
54.2394677860237
57.298309920773
61.0232192763196
65.5062604082013
70.8700955607936
77.2746407471897
84.8923001841051
93.7878939963101
102.97772950747
110.734622550448
116.294737172099
118.449128957439
115.659974958209
105.469992706669
87.5038816804556
64.1818815082312
50.3719723842681
49.5674900898236
65.2463056176737
71.2073825443041
45.6823006196057
41.9601080745313
57.3479612158775
67.9198297797559
67.0447055552965
67.1513327867087
73.4030288918777
78.0780984675274
78.6705096448537
76.4346528935919
72.4633472556732
67.3239269153289
61.3675164765062
55.6048863328758
50.595163064948
46.3024550158956
42.6003987408176
39.3863881934259
36.5700679521363
34.0797867544551
31.8590625954932
29.7013142177225
27.4885563761999
25.2321422017201
22.9697436868877
20.739030240144
18.5743183628087
16.4913028197923
14.5660361779395
12.8975597668909
11.491646924699
10.3213501053337
9.38930336924123
8.77026728373982
8.60250148355824
8.59479643954484
8.72629008972874
8.94845772381926
9.24033060491883
9.57502786349695
9.92684060303922
10.2641505309919
10.556340027086
10.7802514287433
10.9254576177354
10.9945314307384
10.9996557286053
10.9576156361854
10.8854366471046
10.7976735269891
10.7053482725347
10.615989527611
10.5342086462766
10.4624141420739
10.4014608489248
10.3511591302912
10.3106407015291
10.2786054742106
10.2534805036761
10.2335186836142
10.2168588288208
10.2015626262125
10.1856389775284
10.1670622181798
10.1437877542478
10.1137665800979
10.0749584973364
10.0253430444863
9.96292684850648
9.88574662788675
9.79186863998026
9.67938784828924
9.54643377250419
9.39119554843694
9.21198711246894
9.00738486756147
8.77648677774195
8.51937275188894
8.23787640602182
7.93643745786631
7.62463121677387
7.32808610726928
7.0965539692515
7.02728813804484
7.30359323659844
8.30443640024274
10.319572621409
12.0129885838958
13.9183829207541
15.8401585349051
17.8158873845154
19.8191631223763
21.8016691799622
23.5952062344918
25.1800200462704
26.6553522109013
28.0434212411761
29.3525693320821
30.5715350351512
31.733270606879
33.0558948446518
34.7926109524802
36.927798159329
39.5161488797136
42.6281813337341
46.3565571103859
50.7927905150142
55.9294320948213
61.1174131516715
65.3508468496012
68.1815488382377
68.8759129846421
66.5994456885227
60.1415927347648
49.8989768523848
37.5350056177949
30.5780089169969
29.7087285258882
40.1357995678819
46.5147119813755
33.100577460099
29.641616315733
42.3092113280907
55.237023143196
52.042163907925
45.615954345341
47.2906651654389
50.6540133019956
51.4801849383809
50.2773764380758
47.8851908874454
44.6869435209235
40.8779767905825
37.1167344308189
33.8133966150666
30.9684684554895
28.4989514514479
26.3373954595525
24.4224512911165
22.7058528757093
21.1523692494344
19.6399280303733
18.0963999897177
16.5322073857313
14.978952011087
13.4692773227075
12.0329527609935
10.6850673776731
9.46974173807688
8.44384216416383
7.60691202827055
6.93002090238498
6.39702155641083
6.04923560660529
6.00484095745726
6.08307245508134
6.29101231741615
6.59058434411876
6.95096950984436
7.33302068149226
7.69698864567296
8.00336959552778
8.22326668792527
8.34501195293388
8.37508099819068
8.3325687339097
8.24146701611175
8.12426313575645
7.99856421491897
7.87634706316918
7.76471652564603
7.66716650841416
7.58478445459563
7.51718365727444
7.4631453847721
7.42102527921692
7.38899322992554
7.36516468628694
7.34766592068088
7.33466155743054
7.32436243988624
7.31502470728828
7.30494645079263
7.29246525592051
7.27595812566604
7.25384431572143
7.22459093798123
7.18672122399547
7.13882564303479
7.07957678773438
7.00775028464754
6.92225570721927
6.8221837972863
6.7068797405618
6.57605736384007
6.42997635091685
6.26971625327559
6.09760503511514
5.91789496622628
5.73717153394804
5.56876397358667
5.43647384909987
5.38071749916059
5.47171888946391
5.82730500350495
6.65107963343337
8.06170444598049
9.26833804230458
10.590126232404
11.873554874219
13.1558299092968
14.4122133194236
15.6122024094001
16.6646539870691
17.5870344094627
18.4499542559057
19.2647124765815
20.0343964504941
20.7572878465647
21.4696799192065
22.3123903522787
23.4219787710806
24.7803959418977
26.4229250726108
28.3923350539064
30.7440004216477
33.5261810716406
36.7035096804739
39.8464023392998
42.3576406319673
43.9687848060947
44.2170996557343
42.6400342100062
38.6165244776516
32.5476083273966
25.3787354630716
21.2689677133054
20.3917233821344
26.9111497339879
32.2707103728951
24.9951503179212
22.4906148042067
31.3859120613548
46.6221436488126
44.3481588257051
34.2912611993942
32.13936600729
34.3181690151732
35.2849567473995
34.7139041771476
33.2642042920722
31.2239815436456
28.6975159664733
26.1323434027791
23.8473380152717
21.8641592333505
20.1263298858988
18.5877713884897
17.2053666686901
15.9460564907898
14.7883006951738
13.6600644806553
12.518059652289
11.3735381326954
10.2539793533728
9.18709027841411
8.19670412290109
7.29424925700957
6.5037498321562
5.85612429389839
5.34806709032229
4.95608733380302
4.66189604510933
4.4950800078851
4.55911938897151
4.72992817109508
5.01386736630239
5.37459421847119
5.76729986549248
6.1414477345842
6.45083590222793
6.66154733889974
6.76143847890959
6.76075794099725
6.6849041330644
6.56371401375655
6.42327661030314
6.2822901957905
6.15206639558096
6.03820498135825
5.94253605571628
5.86468467445
5.8031355033269
5.75587905704101
5.72076983136065
5.69570465917219
5.67869783291
5.66790082639188
5.6615952540586
5.65817514176494
5.65612731156618
5.65401429592136
5.65046191702532
5.6441522456574
5.63382197870858
5.61826608563165
5.59634638944746
5.56700502196269
5.52928304613038
5.48234507451132
5.42551166613781
5.35830244120323
5.28049442986032
5.19220258661978
5.09399302350319
4.98704477584547
4.87338486650882
4.75624020123661
4.64059064209105
4.53375407846341
4.44869828536643
4.40541579779144
4.43522050802323
4.58764815386663
4.93868160561338
5.60716878395114
6.64609043590015
7.54071153773874
8.48844711621082
9.38465579706792
10.2608275356482
11.0987149099996
11.8829918018763
12.5641818807989
13.1666230864638
13.7354943793183
14.2746117634501
14.7867414783839
15.2761998394544
15.7753726352721
16.376192033549
17.1557812446265
18.1011848429465
19.2363106169146
20.5884107024791
22.1913383249351
24.0691171656489
26.1774220453624
28.2257670695275
29.8485610675367
30.8709541246312
30.9889553752194
29.92435671175
27.3227177173013
23.4647908457094
18.894865280656
16.1278813203966
15.3396802509721
19.4254466150501
23.612945216652
19.4302758628316
18.1552813238336
23.1800146641444
39.7878584621462
39.95618440839
28.5633227027373
23.1607140523783
23.9634882580264
24.9342664352809
24.7746477156136
23.928191729441
22.6293034769059
20.9260835155868
19.1289088087948
17.4961292266218
16.0629120538988
14.7906523659119
13.6476372776513
12.6036419504785
11.6368926854652
10.7360334157284
9.86084385547584
8.98698434981879
8.12646735667727
7.30262891224806
6.53718194829501
5.84660388688057
5.23683799022765
4.71861099091919
4.30708788461059
3.99843128342022
3.77705181266908
3.6315786654204
3.59238610958887
3.74835055854326
4.00258606565114
4.3427180414186
4.72756827574359
5.10086201472675
5.40913717216837
5.61398612572061
5.70145718553939
5.68387688643212
5.59084756358175
5.45620737857877
5.30808943949034
5.16523576044869
5.03778632382713
4.92980541276283
4.84172938304378
4.77212987449878
4.71878957306917
4.67928762595877
4.65128156166081
4.63262045330202
4.62137085737707
4.61580245045498
4.6143581371638
4.61562141814462
4.61828700940756
4.62113734854841
4.6230257822142
4.62286649841763
4.61963081517438
4.61234931018982
4.60011938404538
4.58211782968533
4.55761825479914
4.5260135002293
4.48684359052323
4.43983046140519
4.38492158521652
4.32234583564993
4.25268683866206
4.17698190948925
4.09685886316399
4.01473004409106
3.93407581931107
3.85986059793224
3.79928657914085
3.76367391150764
3.7692031052542
3.83957398047964
4.00952126880299
4.32942660178444
4.8754263747151
5.67229044704777
6.3599309925022
7.06505256731974
7.72105781089668
8.3523301570565
8.94715330450906
9.49855070214458
9.97934035500945
10.4104469117136
10.8199503444218
11.2095681740931
11.5831747222577
11.9474693855111
12.3294870240205
12.7910165425448
13.3784617465524
14.0840193562147
14.9244762647129
15.9180834101408
17.0860377414
18.4387000246714
19.931118873775
21.3600978001649
22.4909339119145
23.1972811163568
23.2736683393413
22.5371652400908
20.7656672958091
18.1423443827898
14.9906307586717
12.9370085609142
12.2580604353732
14.8683978917508
18.096165101021
15.4633430567434
15.326676195558
17.1315921393393
33.8526837913818
36.9819102229896
25.9499698636733
18.0639701716038
17.2393580606956
17.9957235284993
18.0885479233405
17.6404402333654
16.8383343300883
15.6925673431689
14.4162307685796
13.2242603684474
12.1612241932005
11.2017363895517
10.3247199924931
9.5100578623047
8.74517052707488
8.02682176491384
7.335501516726
6.6590172130357
6.00871825864259
5.40275895868259
4.85592781811383
4.37728983405389
3.96775695428424
3.63023977317522
3.37151623582329
3.18891708017476
3.07456725894011
3.02652044592411
3.08052028047375
3.30766350180254
3.62122589513801
3.98356274487366
4.34761294397765
4.65385409328783
4.85870935127284
4.94457088085322
4.92304192307634
4.82559158968099
4.68845003779411
4.54108720626138
4.40216443655662
4.2809254422595
4.1803569289967
4.10000256382896
4.03782700698318
3.99126652627402
3.9577471354408
3.93490342573348
3.92064337059665
3.91314206099749
3.91080687067313
3.91223534333278
3.91617532959744
3.92149140360591
3.92713875656709
3.93214462785739
3.93559676365362
3.93663831562516
3.93446851925349
3.92834853409795
3.91761199104018
3.9016798089333
3.88007905801897
3.85246588707915
3.81865284347224
3.77864147688954
3.73266183908595
3.68122149994347
3.62516825173429
3.56577294390555
3.50484213968189
3.44487542130238
3.38928984432523
3.34273303903725
3.31179280155339
3.30592500924023
3.33795403656764
3.42561168388717
3.59348717904644
3.87659705741421
4.32805291144112
4.95866898584879
5.50373430972886
6.04698921364862
6.54796402732723
7.02460329396647
7.4704238468091
7.88217355269013
8.24450560674984
8.57335120880973
8.88686502901917
9.18698550246132
9.47799561151945
9.76726677307064
10.0768551111186
10.4496542772755
10.9154636947555
11.470205667965
12.1259973508734
12.8955769947949
13.7924092871824
14.8190647754015
15.9334524593863
16.9885972736678
17.8253739199854
18.346152192831
18.4085857222806
17.883526232243
16.6208813247161
14.7363478905277
12.4206287582099
10.7832208677016
10.2044077867216
11.9073381248038
14.4152311591131
12.5771530023529
13.2906452432494
12.8807601155431
28.4911866612236
34.5367427149767
24.9724629006168
15.5078692903022
12.9625059603615
13.2394491807449
13.4312206287156
13.2358860240304
12.7707598659442
12.016181252383
11.1082491959392
10.2270908313533
9.42418814446826
8.68482481184824
7.9964549593346
7.34739746816982
6.73271489516172
6.15536634630957
5.60862582282175
5.08721109871274
4.60002420379956
4.15940929260057
3.77371346026723
3.44635268678826
3.17526288906652
2.95982677643651
2.80317406027463
2.70453223689279
2.66233577090832
2.68300045189231
2.80586198204562
3.08072952657283
3.42172144558902
3.76817931451769
4.07201938762819
4.28175935308539
4.37512505337351
4.35994430225228
4.26718090913533
4.13421279891503
3.99166742523481
3.85852614666811
3.74370614257313
3.64966536733931
3.57549840254429
3.51888812934848
3.47714205476557
3.44766755694496
3.42814980804915
3.41658766650836
3.41126883047698
3.41072442487063
3.41368102456555
3.41901782483189
3.42573148586258
3.43290911382622
3.43970888844376
3.44534762782114
3.44909449558915
3.4502701701698
3.44825083180448
3.44247638949241
3.4324625093998
3.41781602695185
3.39825348337045
3.37362272572929
3.34392777700329
3.30935764507321
3.27032034861471
3.22748427276321
3.18183019971786
3.13471908096444
3.08798293719425
3.04404957524049
3.00611586442649
2.97838573778841
2.96661207733549
2.97852241945836
3.02416044716717
3.11679406076051
3.2742656271098
3.52230703137011
3.90042201348583
4.41165639037568
4.85482354995199
5.28628140184868
5.68260240018986
6.05670876524593
6.40566830305442
6.72795135877682
7.01446593704886
7.27703545472463
7.52832884931785
7.77070106225794
8.00844983722883
8.24883181726287
8.50971634696214
8.82181647858263
9.20546544566588
9.65899539679557
10.1913512750811
10.811695220132
11.5285627381886
12.3400602079608
13.2082316812558
14.0236656720303
14.6724282257558
15.0771381690647
15.1365059217344
14.7542390812121
13.8213049404219
12.406241979837
10.6127207265972
9.2357469024762
8.74261953353738
9.87500227788111
11.8492413507338
10.4507714821269
11.6752682078279
10.0439147102572
23.5973895785491
32.1975075792115
24.7569746254209
14.5796740951846
10.4284340599385
10.0025494473761
10.1349035094727
10.0712726092046
9.82428149776095
9.34733138325276
8.70807517662829
8.05371240232925
7.44046951760384
6.86281927172641
6.31533159381359
5.79334919701558
5.29787405055758
4.83583294281029
4.40734799775324
4.01023595412959
3.6500864413778
3.33411566282981
3.0660565911436
2.8461376455019
2.67134706715316
2.54012271647098
2.45441278934834
2.41529741746588
2.42575529218963
2.49804782907848
2.67029211662854
2.96893659284127
3.30416567877489
3.60101523912558
3.81952897917546
3.92655613107555
3.92556590798798
3.84405248578537
3.7195902947558
3.58387053292268
3.45679614624545
3.3475729491997
3.25863663098579
3.18897240572666
3.13619694795114
3.09761171447049
3.07066758388774
3.05312369283766
3.04306929575231
3.03889015425376
3.03921834127001
3.04288209680211
3.04886206121149
3.05625578440183
3.0642504243916
3.07210294985083
3.07912695561041
3.08468528417597
3.08818770819176
3.08909306317141
3.08691526898742
3.0812327295571
3.07170070261996
3.05806624986826
3.04018549377578
3.01804307518772
2.99177394300749
2.96168799142457
2.92829856705749
2.8923565389175
2.85489255423609
2.81727131470619
2.78126320245358
2.74914047638394
2.72380705870739
2.70897145599778
2.70951851718199
2.73168984682528
2.78332553028182
2.87447259281487
3.01855194217749
3.23548519702169
3.55590403358329
3.97824624189366
4.34610127939924
4.69765964308497
5.02030253111653
5.32333078710285
5.60600850589737
5.86759627358809
6.10251857729295
6.31961607955341
6.52832759422646
6.73128974415714
6.93262874495769
7.13912416617073
7.36525816663884
7.63366337529629
7.95897598345615
8.34099391579374
8.78644822156122
9.30206342190153
9.89312486142965
10.5552332327816
11.2548400611064
11.9084562503798
12.4305716852768
12.7595649106486
12.8212400824727
12.5402871153958
11.8304818682547
10.7142035460357
9.24326479853631
8.06959402757168
7.64944453423158
8.41588005631516
9.98771993268253
8.86720498993601
10.3015791676484
8.23181828332989
19.1207149045842
29.7468118964228
24.7945643413063
14.6512174918425
9.13871378235509
7.88157454350256
7.81251922684889
7.77587213468947
7.64840252294659
7.36253423020158
6.92223997538263
6.4379078324592
5.96740672713701
5.51325687171525
5.07587498508919
4.65607082699406
4.25884417726173
3.8928977160359
3.56121887586973
3.26258402469949
2.99967236643363
2.77612946910027
2.59311453770283
2.44959441176553
2.34279415086408
2.27136737919551
2.23711620414492
2.24258084016328
2.29360888963326
2.40522538326337
2.60932483597457
2.90861003817284
3.20820346233135
3.43221958561918
3.55844075169615
3.57675697742187
3.51182501308841
3.39905395931426
3.27151771361313
3.15038360426606
3.04583918522835
2.96070428046563
2.89414249822174
2.84384670728466
2.80718804355522
2.78168835005352
2.76518412075827
2.75584405765083
2.75213372261997
2.75276419270171
2.75664173349535
2.76282422257803
2.77048583649921
2.77888976300117
2.78736809051936
2.79530797112979
2.80214320192225
2.80735051933288
2.81044998811267
2.81100897072976
2.80864919840866
2.80305649650596
2.79399278771386
2.78131001210693
2.76496568779571
2.74503997796029
2.72175434098044
2.69549215588776
2.66682212390909
2.63652576217493
2.60563096583012
2.57545439147601
2.54765625610815
2.52431208912729
2.50800666969224
2.50195165539908
2.51022730712442
2.53785456684716
2.59098822973664
2.67740728725107
2.80762230257908
2.99769954818459
3.27198786275778
3.62616991672833
3.93670365738941
4.22936553673061
4.49822569207008
4.75008142037222
4.98544601107327
5.20395389492088
5.40210966342609
5.58666144794334
5.76501048101121
5.9399104068073
6.11522951345528
6.29712239405749
6.49737747324419
6.73312010830315
7.01537016074903
7.34476898711688
7.72647010442246
8.16547364785816
8.66487959977597
9.21898154425574
9.79846173501239
10.3381669217823
10.7717647663945
11.0500451147974
11.1170144421944
10.910637700615
10.3546094767508
9.38051639233912
8.13787976679211
7.15863561672767
6.80085635038272
7.32881242858019
8.58953486090544
7.67342404767736
9.09327174395367
7.11496675656393
15.0960451270282
27.0790005428653
24.7803309472265
15.2969394237315
8.73121712218852
6.5924805427073
6.21455268303612
6.12289712041835
6.03246654580034
5.86454415874816
5.56998808819302
5.21533047150683
4.85493923096289
4.49794554782049
4.14928788409347
3.81357582824226
3.49797778146518
3.21137037334494
2.95746227632691
2.73523473874627
2.54549179684902
2.38984091040336
2.26833240371398
2.17973905809185
2.12196558875298
2.09422755107282
2.09848643184221
2.13822394130066
2.22063034230513
2.36046147560367
2.57956163718383
2.85854697491004
3.09998357130501
3.24212873671654
3.28586915219802
3.24114580953122
3.14341810901261
3.02524664256782
2.91015358622903
2.8095701948553
2.72725712197585
2.66273753822694
2.613925372663
2.57830402683552
2.55348601947729
2.53738120059046
2.52822622192151
2.52454990436081
2.52512404819559
2.52891400652075
2.53503596763948
2.54272213938635
2.5512936080615
2.56014001593373
2.56870513004173
2.57647748498857
2.58298539350171
2.58779575500776
2.59051616725359
2.59079991314041
2.58835341207901
2.58294574206181
2.57441988636602
2.56270537053022
2.5478320151324
2.52994464807264
2.50931880514242
2.48637770174377
2.4617110755647
2.43609687896663
2.41052724120002
2.38624056726879
2.36476202354635
2.34795502713842
2.3380870798827
2.33790509603018
2.35079062224722
2.38079516874767
2.43281885305551
2.51306090094067
2.63006792095747
2.79716450227307
3.03398800603499
3.33464694169679
3.6004413911813
3.84849966920234
4.07689799123503
4.29073329105245
4.49115144810713
4.67797653349276
4.84899663846408
5.00949605430545
5.16549782668848
5.31974578654836
5.47581437009555
5.63919858612887
5.81956007512489
6.03017335751787
6.27964134628235
6.5690561415687
6.90242971890825
7.28351360591371
7.71393436651396
8.18743240956125
8.67855147486063
9.13539563934525
9.50559169742037
9.74943301967931
9.82313533492065
9.67007155795236
9.17270365051425
8.27513896420236
7.22592635501535
6.4292664922301
6.1231262379873
6.49366851112384
7.50831151763555
6.75995807397636
8.02302294331152
6.44599948243487
11.6228623002863
24.2390324454048
24.5092761512559
16.2205487101898
8.95338208331724
5.92767447286002
5.16167586955708
4.95792028824592
4.84312920118056
4.72933942013582
4.53554015317337
4.27977495894832
4.00550232809159
3.72614685982212
3.44981662781879
3.18340998070447
2.93489891400963
2.71250515042577
2.51981607706593
2.35594463049235
2.22081742845002
2.11506101568203
2.03841583130791
1.98989920139134
1.96812619447162
1.97283903141487
2.00611022547073
2.0717796100064
2.17698346797091
2.33365506382328
2.55160984269955
2.79343739859333
2.96464516145968
3.03023426269667
3.01234341101086
2.93227802405637
2.82578266477796
2.71699031266707
2.62014413085026
2.53995511173275
2.47674913299622
2.42870204759334
2.39348804213441
2.36881362828674
2.35266442034548
2.34333415350619
2.33940259976882
2.33968789058835
2.34319984941501
2.34909835956248
2.35665935366248