/*--------------------------------*- C++ -*----------------------------------*\
  =========                 |
  \\      /  F ield         | OpenFOAM: The Open Source CFD Toolbox
   \\    /   O peration     | Website:  https://openfoam.org
    \\  /    A nd           | Version:  7
     \\/     M anipulation  |
\*---------------------------------------------------------------------------*/
FoamFile
{
    version     2.0;
    format      ascii;
    class       volScalarField;
    location    "20000";
    object      p;
}
// * * * * * * * * * * * * * * * * * * * * * * * * * * * * * * * * * * * * * //

dimensions      [0 2 -2 0 0 0 0];

internalField   nonuniform List<scalar> 
15600
(
-1.09817579575011e-09
0.00137220012591556
0.000381151731339979
0.0109428328417426
0.0180983903508102
0.0219045334751078
0.0237015491853313
0.0252414637638985
0.0262638377438003
0.0269832310491411
0.027458778070516
0.0278073744107724
0.0280873003561195
0.0283264855306743
0.0285380710921658
0.0287369478978971
0.0289316317764434
0.0291256247563984
0.0293223544666657
0.0295207290175322
0.0297172378921495
0.0298978179055797
0.0300491107727137
0.030157934153786
0.0302135972931991
0.0302114140040271
0.0301560778651026
0.0300644595011484
0.0299634669756969
0.0298789564709655
0.0298318073592654
0.0298352044062212
0.0298846741402227
0.029972149617426
0.0300666627887524
0.0301485268880188
0.0302139145775854
0.0302616392118504
0.0302816111005417
0.030273867764046
0.0302343781928939
0.0301628136155569
0.0300598784418625
0.0299293112268047
0.0297770042253002
0.0296108628407103
0.0294398306497248
0.0292730555885415
0.0291190533275087
0.0289851440542667
0.0288771438092931
0.0287993084780936
0.0287544551638589
0.0287441936703776
0.0287692061203532
0.0288295335467688
0.0289248448721592
0.0290546776294601
0.0292186484516118
0.0294166364104012
0.0296489445332076
0.0299164454354255
0.0302207166628698
0.0305641705954176
0.0309501828926676
0.0313832225705351
0.0318689859041635
0.0324145354480857
0.0330284446180375
0.033720947264289
0.0345040900355005
0.0353918831683763
0.0364004437103791
0.0375481171490189
0.0388555384492645
0.0403456002840455
0.0420433462520353
0.0439754513731623
0.046168313840348
0.0486462394139813
0.0514331453200747
0.0545351171438658
0.0578758484826064
0.061367601600487
0.0651189830378682
0.0680482079190674
0.0680114678485792
0.0677389516154027
0.0672135971110997
0.0666055746169
0.0659386991138855
0.0652580178439266
0.0645894723379482
0.0640487011321344
0.0638024997333498
0.0639854783860842
0.0647183774320487
0.0660921000887058
0.068172097659774
0.0710186483749253
0.0745950897472595
0.078727448037993
0.083290481702438
0.0881690825358944
0.0932573506344576
0.098453008662491
0.103664739467133
0.108775417248639
0.113786560497005
0.118598309625953
0.1228352503153
0.125976053061751
0.126761412066437
0.123684733876109
0.111935089809845
0.0860473180295194
0.0335304942529794
-0.0131941591700334
-0.0257173840546363
-0.00829111181803271
3.95545245819404e-05
0.00144941057300789
0.000429003320603117
0.0105767470194
0.0177341708075227
0.0216626603763322
0.0235420602498994
0.0251151813269156
0.0261759257076096
0.0269234018198546
0.0274198748913269
0.0277805400880264
0.0280676461851232
0.0283115726411543
0.0285262038938881
0.0287265879599845
0.0289218578564952
0.0291158225090818
0.0293121446917636
0.0295101408243943
0.0297071537616498
0.029890054793512
0.0300456767747371
0.0301607783515609
0.0302241598595073
0.0302300935746512
0.030181740722067
0.0300942673229798
0.029993744407913
0.0299065058872562
0.0298544086889823
0.0298521471752645
0.0298962302982298
0.0299789373097961
0.0300691300163302
0.0301509257621113
0.0302164250872601
0.0302641894741131
0.0302844148831976
0.0302771064268554
0.0302381800097502
0.0301672740687314
0.03006503893435
0.0299351618844756
0.0297834873465496
0.0296178857436642
0.0294472820633498
0.0292808213807765
0.0291270275715313
0.0289932353041171
0.0288852772386373
0.0288074254082319
0.0287625112751197
0.0287521568008483
0.0287770540971466
0.028837252184167
0.0289324260904899
0.0290621175739456
0.0292259454729921
0.0294237887776234
0.0296559477633856
0.0299232891398768
0.0302273808172048
0.0305706211453912
0.0309563666064413
0.0313890610433603
0.0318743686133619
0.0324193117401824
0.0330324144843989
0.0337238507279826
0.0345055949123239
0.0353915708457881
0.036397792552956
0.0375424832764926
0.0388461325705518
0.0403314578008094
0.0420232977821134
0.0439481060907656
0.0461319795358646
0.0485986906591734
0.0513717681295253
0.0544578469998351
0.0577796307659241
0.0612435041799025
0.0649627650077133
0.0679312961509513
0.0679524185996138
0.067686308871896
0.0671479838057175
0.0665281124091534
0.0658526125252888
0.065168863145228
0.0645086257041114
0.0639966186732054
0.0638002265279372
0.064050562783574
0.0648643620399413
0.066327546827407
0.0685020112224059
0.0714394230303295
0.0750880938723454
0.0792714311575933
0.0838691806053528
0.088768050269213
0.0938634710247548
0.099054503506678
0.104249407738476
0.109336390379109
0.114315477495874
0.119064962922979
0.123188636249338
0.126124102809252
0.126575543204231
0.122902281496514
0.110244388249441
0.0832268785405772
0.0312659518785084
-0.0130833437369843
-0.025068372707202
-0.00817478308540732
0.000117718132921618
0.00162049054548716
0.000585246173085902
0.0102660657466289
0.0173875036930027
0.0214192774242897
0.0233775995567175
0.0249854303352117
0.0260841204600975
0.0268604723240268
0.0273787047564818
0.0277523069160035
0.0280471209777888
0.0282961074864497
0.0285140112260007
0.028716076648687
0.0289120413547871
0.0291060304273831
0.0293019475494411
0.0294994667019129
0.0296967508529163
0.0298816340681692
0.0300412334055625
0.0301623084453454
0.0302332270014499
0.0302472820378166
0.0302061069784559
0.0301230765884244
0.0300232336418495
0.0299332703985175
0.029876024574822
0.0298678915410341
0.0299064902121532
0.0299846823497994
0.0300708360171529
0.0301539259720898
0.0302197190129974
0.030267724535817
0.0302883779478596
0.0302817062741897
0.0302434960907293
0.0301733415368643
0.0300718093268423
0.0299425319832494
0.0297913117317187
0.0296260090209152
0.0294555622847467
0.0292891463364343
0.0291353195036915
0.0290014479528497
0.028893388577764
0.0288154297000362
0.028770412358561
0.0287599633403335
0.0287847766063361
0.0288449012829517
0.0289400113875088
0.0290696466697947
0.0292334227170823
0.0294312135342252
0.0296633120288378
0.0299305744069965
0.0302345541098154
0.030577630152407
0.0309631338381711
0.0313954769159808
0.0318802833399843
0.0324245258550919
0.0330366677469357
0.0337268090374787
0.0345068346862827
0.0353905599807329
0.0363938667000576
0.0375348159956591
0.0388336963495223
0.0403129689737998
0.0419971433702853
0.043912252400069
0.0460837755367558
0.0485344409898728
0.0512865631170633
0.0543468449132604
0.0576380991093018
0.0610523406678301
0.064696644740549
0.0677095175984618
0.0678310638947117
0.0675981185655048
0.0670579239308438
0.0664312863343928
0.065749438418925
0.0650642563017209
0.0644144192309747
0.0639341742365068
0.0637908301298632
0.0641116008036184
0.0650090792446296
0.066564094654468
0.0688344191274425
0.0718619060190098
0.075579809546767
0.079811196420018
0.0844415329445492
0.0893590894136746
0.0944605753502664
0.0996461353923703
0.104823905859181
0.109886988054328
0.114832438456356
0.11951525932515
0.123517122457244
0.12623533382625
0.12633330793314
0.122048709021759
0.108516095086421
0.0806467858652088
0.0298910268649879
-0.0116710295713916
-0.0236521340735402
-0.00797005564075643
0.00027365374754936
0.00195520914262155
0.000928122877167862
0.010024674959117
0.0170614062517521
0.0211882441527162
0.0232169820761404
0.0248569955872427
0.0259919213849887
0.026796715254721
0.0273367189519817
0.0277235290320597
0.0280262609459718
0.0282804469115875
0.0285017314686593
0.0287055752118212
0.0289023123748874
0.0290963889590538
0.0292919561810453
0.0294890200046003
0.0296864910575065
0.0298731588457932
0.0300364899570652
0.0301632954910712
0.0302415658691352
0.030263666595108
0.030229699135565
0.0301511675253849
0.0300519109969654
0.0299588466233791
0.0298958505546192
0.0298812991937905
0.0299142723452601
0.0299884904479217
0.0300714380686004
0.030157649094583
0.0302238572167353
0.0302722462349248
0.0302934212558272
0.0302874421954716
0.0302499063187477
0.030180333334568
0.0300791912522165
0.0299500705551095
0.0297987724043133
0.0296332071458198
0.0294623902649343
0.0292955788031815
0.02914139855992
0.0290072592649928
0.0288990370192139
0.0288210203924953
0.0287760388295234
0.0287657020163412
0.0287906856687063
0.0288510218459725
0.0289463693721994
0.0290762542929095
0.0292402789740555
0.0294383033728429
0.0296706040967348
0.0299380173493841
0.0302420714216927
0.0305851135739786
0.0309704352418555
0.0314023985738464
0.03188656637767
0.0324298365623081
0.0330405812171551
0.0337287893268876
0.0345062102734471
0.0353864926217373
0.0363853107232034
0.0375204640504149
0.0388119055325499
0.0402816544489101
0.0419536172521971
0.043852988656773
0.0460041367208424
0.0484283764531448
0.0511452491926635
0.0541589096760574
0.0573938723261654
0.0607257108249231
0.0642497930453478
0.0673091916184954
0.0676033198476421
0.0674386426670532
0.0669148030700447
0.0662895972467531
0.0656052467149609
0.064921524583567
0.0642858491148727
0.0638421733857537
0.0637568290241161
0.0641528512335204
0.0651382791422174
0.0667885110015853
0.069156373822022
0.0722725217170344
0.0760558650979271
0.0803321695944687
0.0849929007196544
0.0899277072368129
0.0950345726228917
0.100214483201822
0.105375636769607
0.110415301142568
0.115325606924782
0.119936909042156
0.123808022260827
0.126296623425563
0.126023541191653
0.121118200934147
0.106757731260316
0.0782735339266981
0.029228342781541
-0.00926774436454779
-0.0214269960576878
-0.00755549751888553
0.000561011496533527
0.00250314792344549
0.0015462705936884
0.00989563748915539
0.0167180043221651
0.0209571393499428
0.0230545603703622
0.0247249095791209
0.025895648394897
0.0267295360360217
0.0272922167580299
0.0276929979296406
0.0280041435539312
0.0282638736318382
0.0284887885679374
0.0286945722370502
0.0288921805633998
0.0290863999650864
0.029281643490259
0.0294782491778592
0.0296758327537323
0.0298641673325272
0.0300311425128451
0.0301636782010626
0.0302494330950531
0.0302798733623944
0.0302535386633533
0.0301798896282998
0.0300813417459213
0.0299848286730074
0.0299152704001864
0.0298933448484677
0.029920128511893
0.0299906325393611
0.0300711593811233
0.0301622622604481
0.0302289868992283
0.030277947129137
0.0302997834792317
0.0302945696674755
0.030257642267328
0.030188407873157
0.030087220011447
0.0299576558981086
0.0298055908747507
0.0296390814790019
0.0294673125964948
0.029299690576872
0.029144941940085
0.0290105218911855
0.0289023054297097
0.0288245493436544
0.0287800363185904
0.0287703260945738
0.0287960481524156
0.0288571947921792
0.0289533914732494
0.0290841355689551
0.0292490030290315
0.0294478270223001
0.0296808544527002
0.0299488865566447
0.0302534092406722
0.0305967179371742
0.0309820408028976
0.0314136631220722
0.0318970547929086
0.0324390016770726
0.0330477405196289
0.0337330958331267
0.0345066150794503
0.0353816954291068
0.0363736927194175
0.0374999955100993
0.0387800184431096
0.0402350622557809
0.0418880455876761
0.0437628163254884
0.0458821286245201
0.0482651731406343
0.050926810198168
0.0538670082147821
0.057015055738444
0.0602383471022923
0.0636225780014602
0.0667195271884622
0.0672378406385458
0.0671750719451607
0.0666887853243178
0.0660757600796492
0.0653953149860006
0.0647196062111243
0.0641071690208733
0.0637109555316535
0.0636946485449319
0.0641764710968857
0.0652590541864716
0.0670117217516133
0.0694812009135334
0.0726856683793069
0.0765311328399962
0.0808493427582418
0.0855378730900655
0.0904876676773268
0.0955980634958406
0.10077068153314
0.105913800181333
0.110927674038492
0.115796326481631
0.120322364144427
0.124039562585981
0.126262874979068
0.125563523626755
0.119961432966995
0.104698309380094
0.0756271402475827
0.0285480524599827
-0.0066679407202548
-0.0187539212406636
-0.00682766793607184
0.0010000797098914
0.00324215518968777
0.00246758231663901
0.00997291639963267
0.0163478120099907
0.0207175011105761
0.0228880014049495
0.0245880834024027
0.0257942995499385
0.0266581318806149
0.0272446585360287
0.0276603467401991
0.0279804830980774
0.0282461616062337
0.0284750090811815
0.028682921423426
0.0288815069295239
0.029075915481342
0.0292708346321426
0.0294669358179257
0.0296644973693516
0.0298543026149354
0.030024742028009
0.0301629126243741
0.030256206927455
0.0302952523395417
0.030277065601844
0.0302089198885193
0.0301115595603942
0.0300116884010509
0.029935100619478
0.0299049480250046
0.0299248638233809
0.02999176700912
0.0300705782134347
0.0301679725602189
0.0302353912768884
0.0302852934901778
0.0303080405971559
0.0303036854869359
0.0302672112962141
0.0301978517923046
0.0300958554382944
0.0299648822526888
0.0298110385261127
0.0296426961071331
0.0294693454208762
0.0293006183569163
0.0291453557040977
0.0290110235923187
0.0289034344513855
0.028826744015476
0.0287836239556169
0.0287755310515746
0.0288030080646474
0.0288659780184975
0.028964011703759
0.0290965618261225
0.0292631646928012
0.0294636142244066
0.0296981144476566
0.0299674166905032
0.0302729470103831
0.0306169284243136
0.03100250151774
0.0314338460054949
0.0319163047812457
0.0324565107677673
0.0330625156830534
0.0337439183624023
0.0345119880495936
0.0353797747016096
0.0363621949823219
0.0374760750401707
0.0387401036866104
0.0401746367246173
0.0418013421896331
0.0436424681275533
0.0457189834733885
0.0480474696697903
0.0506384552895306
0.0534889409386552
0.0565366474874401
0.0596517107964979
0.0629056972480907
0.0660049320790534
0.0667385339863799
0.0667921315618003
0.066362570440541
0.0657753489983884
0.0651099615370613
0.0644538620393659
0.0638788976368403
0.063545002063243
0.0636110354572502
0.0641898031509744
0.0653777860347362
0.0672376806827273
0.0698090489863607
0.0730973353379417
0.0769982509241219
0.0813524927567369
0.0860634987292166
0.0910234297162318
0.0961330192286832
0.10129424203132
0.106415173812742
0.111397052491463
0.116211425999284
0.120628918609455
0.124155153519062
0.126055957774119
0.124841831063339
0.118417754842786
0.102121376311877
0.072484835625325
0.0275552111901893
-0.00430203086712789
-0.0159934820377082
-0.00582596664589002
0.00156232156867984
0.00407746373284318
0.00363964611232585
0.0103227223506537
0.0159918899670685
0.0204650005895346
0.0227152121246826
0.0244464432889334
0.0256879146231972
0.0265824301644652
0.0271939924908291
0.0276255620838871
0.0279552554649003
0.0282272757805975
0.0284603673571678
0.028670603122197
0.0288702682960612
0.0290648984520182
0.0292594628600081
0.0294549618412989
0.0296522801472733
0.0298432188955179
0.0300167418556927
0.030160197732668
0.030260803247285
0.0303084620328141
0.030298803187233
0.0302369207811856
0.0301416369842334
0.0300391678051459
0.0299558540932345
0.0299171876584718
0.029929753690268
0.0299931416348306
0.030070766537532
0.0301752115757197
0.0302436935588899
0.0302951131542851
0.0303190144445621
0.0303153917070297
0.0302787568296005
0.0302081674751901
0.0301039086762541
0.0299699805103274
0.0298130143666913
0.0296419371132438
0.0294666708519358
0.0292970762635977
0.0291420197117747
0.029008844632657
0.0289031634515131
0.0288289146494129
0.0287885731384553
0.0287834361442754
0.0288139260301657
0.0288798784893236
0.0289808008312401
0.0291160967019976
0.0292852594928195
0.0294880396281126
0.0297245917967084
0.0299956080592931
0.0303024419989797
0.0306472280980019
0.0310329995462203
0.0314638066808214
0.0319448372018374
0.0324825379774502
0.0330847369665476
0.0337607621945012
0.0345215523986018
0.0353797504224462
0.0363497665347308
0.0374477918276907
0.0386917165314801
0.0401008913767465
0.0416957214070206
0.043496938619403
0.0455236907692442
0.0477904783401218
0.0503050011535875
0.053063064318848
0.0560124105503623
0.0590307593659075
0.0621648684248608
0.0652200497670624
0.0661330602873755
0.0662980586093115
0.0659365840417933
0.0653886951920073
0.0647532158516344
0.0641323063533347
0.0636117815472399
0.0633558220355327
0.0635164081834435
0.0642007090071806
0.0654986578096189
0.0674660250279858
0.0701348017601969
0.0734985040209293
0.0774455103938201
0.0818275360881951
0.0865532025532977
0.0915157769583226
0.0966173414973161
0.101759857682724
0.106850603297696
0.111789174715378
0.116529771556206
0.120806311316918
0.124093163311603
0.125599491776692
0.123767072565335
0.116397916866478
0.0989997267547694
0.0689719921362336
0.0263994203721415
-0.00218251727845834
-0.0133285864935745
-0.00466930824739621
0.00220926439222639
0.00491206726434589
0.0049767416840845
0.0109322381488987
0.0157219089943279
0.0202056566929351
0.0225341973767327
0.0242987052890073
0.025576197818252
0.0265022448358269
0.0271401231669545
0.0275886290366728
0.027928444044659
0.0282071783093906
0.0284448290687749
0.0286575863741511
0.0288584252682343
0.0290532872478644
0.029247423532847
0.029442151122326
0.0296388886032339
0.029830440540589
0.0300064063436268
0.0301544661029033
0.0302617788735158
0.0303177022906057
0.0303167193456402
0.0302619184249766
0.0301700628595257
0.0300665442014978
0.0299778331858907
0.029931310178426
0.0299365568425997
0.0299966401636377
0.0300732642464813
0.0301846670141186
0.0302548061142953
0.0303082576448837
0.030333173393896
0.0303294339311391
0.0302910771791742
0.0302171959469009
0.0301085039613404
0.0299697878038965
0.0298085547726852
0.0296344401293157
0.0294577460293899
0.0292883727014998
0.0291349761292337
0.029004564429295
0.0289023938629725
0.0288320892308019
0.0287958798383334
0.0287948861315755
0.0288294107181315
0.0288992107249681
0.0290037408150214
0.0291423651425325
0.0293145408980752
0.0295199783138619
0.0297587826230574
0.0300315833307534
0.0303396554336666
0.0306850362897442
0.0310706409237141
0.0315003775717064
0.0319792642188875
0.0325135454495452
0.0331108075813983
0.0337800883909469
0.0345319754016414
0.0353786831673116
0.03633409581769
0.0374137551080988
0.0386347512621993
0.0400154547532621
0.0415750893018268
0.0433330161644179
0.0453067686977845
0.0475093184226426
0.0499467874334672
0.0526145125867201
0.0554688503507158
0.0583954282028673
0.0614104228032508
0.0643843331129679
0.0654460461922555
0.0657118902317261
0.0654246913190247
0.0649276435292378
0.0643370271573769
0.0637674957269314
0.0633176662233216
0.0631531951122384
0.0634178320054613
0.0642132341504649
0.0656226579799392
0.0676951138687872
0.0704551203795681
0.0738853672286446
0.0778695016868426
0.0822712588506291
0.0870034132895163
0.0919601834248161
0.0970448012225732
0.102158720626773
0.107207556760045
0.112086438749048
0.116727902152201
0.120825298890165
0.123819617107525
0.124857997991619
0.122314199494048
0.113921462441153
0.0954506596608482
0.0653115954253563
0.0252860579334513
-0.000197142461034727
-0.010807636706829
-0.00344888587831449
0.00291398055647813
0.00570851764104992
0.00639786131962447
0.0117368800648285
0.0156044447412906
0.0199566036520027
0.0223487292016594
0.0241423959091025
0.0254580855248061
0.0264171047770478
0.0270828312743465
0.0275494958358604
0.0279000269098524
0.0281858215596011
0.0284283449709004
0.0286438240321853
0.0288459179508866
0.0290409903742458
0.0292345666473175
0.0294282596027986
0.0296239343242295
0.0298153659627764
0.0299928460990231
0.0301444817312978
0.0302575310374428
0.0303210493230466
0.0303287063661056
0.0302818651917724
0.0301952308480482
0.0300930038803275
0.030001203151526
0.029948523364596
0.0299472300148035
0.0300045412140969
0.0300796108034764
0.0301972350744062
0.0302695350811282
0.0303248927020024
0.0303497432001175
0.0303438709505213
0.0303011432144574
0.0302212189727704
0.0301058398989917
0.0299610205616479
0.029795291441261
0.0296188549146593
0.0294420852288241
0.0292745910321992
0.0291245573967731
0.0289984955107488
0.0289012286016134
0.028836047041314
0.0288049438856832
0.0288088844571439
0.0288480754526965
0.0289222166593319
0.0290307269633586
0.0291729433533089
0.0293482950806324
0.0295564570690406
0.0297974872814839
0.0300719527421492
0.0303810482900938
0.0307267112708314
0.0311117345322627
0.0315398791391461
0.032015987193424
0.0325460936100853
0.0331375343290541
0.0337990467632538
0.0345408560164544
0.0353747370128836
0.0363140384810679
0.03737364996345
0.0385698721948222
0.0399201309641502
0.0414425495648375
0.0431551955222607
0.0450742476614889
0.0472115025633781
0.049572035351613
0.0521506187862393
0.0549097673336715
0.057743112659692
0.0606375299143877
0.063506486934865
0.064694431738667
0.0650513140694711
0.0648430401442094
0.0644066988505871
0.0638741209181862
0.0633705182314142
0.0630052446569366
0.0629429327471492
0.0633186312770072
0.0642287256416624
0.0657499257478962
0.0679247356174911
0.070770303181611
0.0742596208268515
0.0782737157739883
0.0826886194142438
0.0874200823244502
0.0923631151942174
0.0974217385237375
0.102496265769148
0.107489568024231
0.112289541288659
0.116803675360835
0.120682539066846
0.123332121480996
0.123836187259245
0.120508433070176
0.111058502371319
0.0916004427213993
0.0616500507849655
0.0243286866659635
0.00172499892217761
-0.00842359650556976
-0.00220500036425571
0.00365934098531555
0.00648073916793298
0.00781401945670447
0.0126658737467993
0.0156776104632963
0.0197461630267633
0.0221746936659469
0.0239762477529366
0.0253315242628817
0.0263260985795276
0.0270217207616157
0.0275080670674131
0.0278699906733422
0.0281631635290021
0.0284108619032739
0.028629262066863
0.0288326757797384
0.0290278985141402
0.0292207147616507
0.0294130065783437
0.0296069952419436
0.0297973844609789
0.0299752226036222
0.0301291739036985
0.0302467992295799
0.0303171437763265
0.0303334310085939
0.0302956017061073
0.0302163105931549
0.0301182419739494
0.0300263400625093
0.0299698350669461
0.0299635156484873
0.0300191066303715
0.0300907916897132
0.0302137139018648
0.0302878561911527
0.0303437853278073
0.0303662253675604
0.0303551329036304
0.0303048610291162
0.0302163430134998
0.0300928570605079
0.0299417699744952
0.0297724058622139
0.0295951260922279
0.0294199826548389
0.0292560181590242
0.0291108053711725
0.0289903139695771
0.0288989428336736
0.0288396780051077
0.0288143100449305
0.0288236787987462
0.0288679183519872
0.0289466883440711
0.0290593840514714
0.0292053236175352
0.0293839138315231
0.0295947977002839
0.0298379877483561
0.0301139891211755
0.0304239160394996
0.0307696043350927
0.0311537220358379
0.0315798790539438
0.0320527360491141
0.0325781108973734
0.0331630798477856
0.033816068804829
0.0345469280338196
0.0353669804338416
0.0362890294095979
0.0373273088999565
0.0384973389120573
0.0398156296698136
0.0412992659574791
0.0429650752562212
0.0448280477365828
0.0468990011870078
0.0491820878064874
0.0516712751470814
0.0543331652430109
0.0570702251590096
0.0598448354257718
0.0625952158094553
0.063891557972504
0.0643309253738285
0.0642054937609986
0.063838385012719
0.0633752508074197
0.0629499452513204
0.0626807518963643
0.0627290513773494
0.0632211714274925
0.0642486017071525
0.0658815571206114
0.0681561675946506
0.0710823306895707
0.0746244835436687
0.078662792398552
0.0830854642419147
0.0878100227032198
0.0927321382818061
0.0977561243876416
0.102780432848242
0.107703975604316
0.112404778879174
0.116762600458897
0.120384533996388
0.122639567934952
0.122550568685167
0.118384285875463
0.107867469597805
0.0875285865447157
0.0580830152029418
0.023584693655952
0.00361261034340698
-0.00615834931766064
-0.000949288811768622
0.00443283800282965
0.00725490305909934
0.00911139897782768
0.0136606510408749
0.0159400766249507
0.0196080256096559
0.0220379591447417
0.023805576180162
0.0251939437158135
0.0262276645052243
0.0269560827730937
0.027464149688415
0.0278383234496051
0.0281391736572542
0.028392328038301
0.0286138450250218
0.0288186266560963
0.0290139017822555
0.0292056965375324
0.0293961384722897
0.0295877322005677
0.0297760727658815
0.0299530505771876
0.0301080597633595
0.0302292006281265
0.0303058012901042
0.0303309567654211
0.030303421325145
0.0302337536270415
0.0301428009514801
0.0300539458196668
0.0299961205937912
0.0299867091964294
0.0300419490919794
0.030107257927108
0.0302340430673653
0.0303083913347973
0.0303622375584098
0.0303789384454773
0.0303591945667737
0.0302986293279344
0.0301999956715871
0.0300682314466353
0.0299117722396233
0.0297402657946229
0.0295638030594353
0.0293918405791984
0.0292327354943389
0.0290934288222574
0.0289793759384823
0.0288945916369976
0.0288417950787183
0.028822603827951
0.0288377536113902
0.0288873206589458
0.0289709343920964
0.0290879730594279
0.0292377402671321
0.0294196230878225
0.0296332342182706
0.0298785414180614
0.0301559877417306
0.0304666056241319
0.0308121270949069
0.0311950917210957
0.0316189530100032
0.032088183095021
0.0326083737718891
0.0331863306612647
0.0338301557015684
0.034549311189815
0.0353546557127973
0.0362584383198813
0.0372742350292246
0.0384167936296945
0.0397017327008806
0.041145143783305
0.0427626797582108
0.0445682264753417
0.0465717059674845
0.0487763907041957
0.0511753610882271
0.0537379199329585
0.0563763568114864
0.059034274047824
0.061659099002099
0.0630488148831805
0.063563091355879
0.0635236084814882
0.0632330359312101
0.062849360273952
0.0625129483403801
0.0623494211158954
0.0625151902006049
0.0631280326585467
0.0642747847350432
0.0660191281671191
0.0683909291415048
0.071393021448242
0.0749824691598656
0.079040077221238
0.0834658196857783
0.0881778046980529
0.0930722518628835
0.0980531523537628
0.103016327695503
0.107855433525962
0.112436104838316
0.11660832425594
0.11993543097227
0.121748281260647
0.121014403759115
0.115964204810662
0.104373515410048
0.0833861884300452
0.0548671911304983
0.0230872373719676
0.005479009115159
-0.00399481351198279
0.000317108424101238
0.00522457448211327
0.008049189136104
0.0101785501024239
0.0146783181676407
0.0163663258886168
0.0195668063932187
0.0219594094546457
0.0236480074637798
0.0250445160472397
0.0261196533602048
0.0268847352325334
0.0274173498826653
0.0278049910889497
0.0281138394303924
0.0283727037883228
0.0285975291087202
0.0288037171477718
0.0289989236090796
0.0291894036124852
0.0293775212183119
0.0295660222439008
0.0297513762605817
0.0299264163761577
0.0300814592859093
0.0302053752321815
0.0302880092858681
0.0303225377579667
0.0303066681702419
0.030248786026916
0.0301676187353036
0.0300846482754478
0.0300278893078965
0.03001737298368
0.0300732336212165
0.0301288289503381
0.0302569879482084
0.03032864933471
0.0303768362009113
0.0303841991543543
0.030352868458396
0.0302803291711373
0.0301712954158719
0.0300320796073043
0.0298716869008318
0.0296996363446612
0.0295254692794913
0.0293579348767549
0.0292046955156065
0.0290720953308918
0.0289651196413519
0.0288874378796402
0.0288415314265492
0.0288288649457412
0.0288500831708449
0.0289052127233214
0.0289938578414242
0.0291153827367391
0.0292690781703446
0.0294543123143541
0.0296706676816707
0.0299180667186507
0.0301968890706405
0.030508083130768
0.0308532737137972
0.0312348671175525
0.0316561540254979
0.0321214098976461
0.0326359906025509
0.0332064198394708
0.0338404634267646
0.0345471837073285
0.0353369647282723
0.0362214949649156
0.0372136931810329
0.0383275455781017
0.0395778026057471
0.0409796019563231
0.0425474890265848
0.0442943091673928
0.0462291229779567
0.0483543948710813
0.0506624313830704
0.0531244008814375
0.0556630978590602
0.0582088955484297
0.0607057165866164
0.0621759344118282
0.0627584929816212
0.0628072724456734
0.0625994803645467
0.0623040898892099
0.0620658327143818
0.0620160175531983
0.0623048431761559
0.0630418035574876
0.0643091729154393
0.0661640750075471
0.0686302136343083
0.0717036426355379
0.0753352734007018
0.0794077955298833
0.08383227628571
0.0885262659183097
0.0933864201213395
0.0983156753989292
0.103206424964957
0.107945699332874
0.112384300931371
0.116341280347334
0.11933539292638
0.120661245498629
0.119234243632533
0.113249106823935
0.100647799545779
0.0796439199249625
0.05234019833902
0.0228425512231578
0.00733150825874903
-0.00191816902694229
0.00159604832207419
0.00602777913804273
0.00887311560526276
0.010963565745506
0.0156934781316828
0.0169235937926612
0.0196410198651044
0.0219416803726075
0.023532475469468
0.0248885242486865
0.0260001519976802
0.0268060202000693
0.0273669396478032
0.0277698882123942
0.0280871760300268
0.028351984276816
0.0285803075560972
0.0287879451075678
0.0289829657572541
0.0291718516267346
0.0293572168883051
0.0295420379818757
0.0297236637948061
0.0298959653745417
0.0300503510846605
0.0301766422026599
0.0302653434572685
0.030309815261727
0.0303068031180798
0.0302624783018667
0.0301932606859466
0.0301185227801139
0.0300649005616044
0.0300550673771063
0.030111664019676
0.0301544047828692
0.0302804989684559
0.0303457012151346
0.0303843630274193
0.0303792058342463
0.0303343416832077
0.030249319037743
0.0301305536300792
0.0299852324643535
0.0298224505642932
0.0296512967203352
0.0294806381709479
0.0293185039106918
0.029171896881906
0.0290466108986071
0.0289472024918053
0.028877026927873
0.0288383491454108
0.0288324944140732
0.0288600243918686
0.0289209203290741
0.0290147632412241
0.0291409039129819
0.0292986200685391
0.0294872602563528
0.0297063756196125
0.0299558415705075
0.030235971937372
0.0305476277859148
0.0308923223396617
0.0312723229607767
0.0316907504115898
0.0321516749489919
0.0326602067266275
0.0332225768938753
0.0338462044269706
0.0345397420561317
0.0353130923237904
0.0361773809781504
0.0371448746709519
0.0382288129257772
0.0394431051817059
0.0408019770345162
0.0423189362258164
0.0440058523725667
0.0458709665023803
0.0479160480168056
0.0501328794303259
0.0524940376677428
0.0549330643700895
0.0573720876789431
0.0597416371659273
0.0612812511370317
0.0619264412702441
0.0620651124553941
0.0619454674498794
0.0617461357525274
0.0616141247854158
0.0616848085211868
0.062101186925015
0.0629648088853236
0.0643534211736977
0.0663175660547204
0.0688749010395871
0.0720150968816928
0.075684140540773
0.0797675760723288
0.0841866530170467
0.0888573026764503
0.0936764697601307
0.0985451919202756
0.103351618143206
0.107974698974274
0.112248087726834
0.1159597793463
0.118583062972945
0.119379264734567
0.117204256127607