/*--------------------------------*- C++ -*----------------------------------*\
  =========                 |
  \\      /  F ield         | OpenFOAM: The Open Source CFD Toolbox
   \\    /   O peration     | Website:  https://openfoam.org
    \\  /    A nd           | Version:  7
     \\/     M anipulation  |
\*---------------------------------------------------------------------------*/
FoamFile
{
    version     2.0;
    format      ascii;
    class       volScalarField;
    location    "20000";
    object      Pk_bouss;
}
// * * * * * * * * * * * * * * * * * * * * * * * * * * * * * * * * * * * * * //

dimensions      [0 2 -3 0 0 0 0];

internalField   nonuniform List<scalar> 
15600
(
3.87205684961713e-07
3.23874809908053e-07
4.20113423978585e-08
1.37854381559482e-09
1.12570611157825e-09
3.2640239427646e-10
1.16339449295597e-10
3.26247619921844e-11
7.9940671600535e-12
2.33955954784553e-12
9.6137107704419e-13
6.25815387568864e-13
5.67375552611242e-13
6.10489822090597e-13
7.15603988627366e-13
8.90469485497357e-13
1.14557544392677e-12
1.4810692460929e-12
1.87641027481783e-12
2.26144110206128e-12
2.4980685443299e-12
2.4122041711425e-12
1.91648981725753e-12
1.09014349723698e-12
2.72025226082569e-13
3.14122303755652e-14
8.29004868608064e-13
2.49725567625524e-12
4.13863298345594e-12
4.76063266866754e-12
4.13400727017151e-12
2.96714997325237e-12
1.98893298536638e-12
1.51268618209438e-12
1.45451396630097e-12
1.72195837433491e-12
2.06064592190319e-12
2.32960770376707e-12
2.37184510946334e-12
1.93998142217069e-12
9.98688133683383e-13
7.98806783398298e-14
1.17925311557722e-12
8.92695577666175e-12
3.18525009985435e-11
8.32321045273025e-11
1.81026916496257e-10
3.46794698014973e-10
6.03828051380781e-10
9.75138204761343e-10
1.48187227966028e-09
2.14255680551733e-09
2.97324096970416e-09
3.98839880083201e-09
5.20234747201351e-09
6.63095630443001e-09
8.29349083126516e-09
1.02145217040063e-08
1.24258997525214e-08
1.49688505715799e-08
1.78962753111409e-08
2.12753646558199e-08
2.51906450734626e-08
2.97475836177221e-08
3.50768799701e-08
4.13395695291816e-08
4.87330438539786e-08
5.74980548489151e-08
6.79266885673918e-08
8.03711409779611e-08
9.52528535710912e-08
1.13071089307826e-07
1.34409178618694e-07
1.59935246157283e-07
1.90392342392121e-07
2.26570005539626e-07
2.69242739736385e-07
3.19059992915861e-07
3.76409387893094e-07
4.412772923438e-07
5.12979020559718e-07
5.88385101261601e-07
6.43276959947221e-07
6.36596627819345e-07
4.96760043415023e-07
2.01510853896665e-07
3.15842850842003e-08
1.02025793883467e-08
5.1810417794881e-09
4.0688383813459e-09
4.40037248003634e-09
5.63997020544656e-09
7.90699553916139e-09
1.17300872196009e-08
1.75440618685458e-08
2.54599177155847e-08
3.53993950389508e-08
4.70678393396299e-08
6.00018721860108e-08
7.33222199449755e-08
8.41424001884517e-08
8.89076577556518e-08
8.73491522323868e-08
8.04499508148392e-08
6.97517676121481e-08
5.69685265233209e-08
4.37327457177723e-08
3.15143719705233e-08
2.14164513758951e-08
1.28604018154669e-08
5.18946473779459e-09
9.32869666668562e-11
1.043429855138e-08
1.15885267961147e-07
8.27334640830767e-07
5.97565230065122e-06
1.79561799325184e-05
1.29258176338977e-05
3.32156895244931e-06
6.59391605945693e-07
9.47434071366801e-05
6.19061233563186e-05
1.26878864339433e-05
1.19558303844325e-07
1.38983551896369e-07
5.08397129118353e-08
1.95702798801869e-08
5.86651048883601e-09
1.52435576768309e-09
4.51546558525941e-10
1.82545536634099e-10
1.15455242362183e-10
1.02868435743054e-10
1.099561861234e-10
1.28423869126931e-10
1.58997078990391e-10
2.03501517534986e-10
2.61885124683542e-10
3.30735646077216e-10
3.98906582424627e-10
4.45795333330916e-10
4.44432225594875e-10
3.78191408268111e-10
2.52843199362317e-10
1.08269666288213e-10
1.86473512547165e-11
5.54541263259166e-11
2.2308892831113e-10
4.30009473582352e-10
5.48753712269143e-10
5.20077908893352e-10
4.01607971449228e-10
2.83373915541943e-10
2.16886718936348e-10
1.86284963954001e-10
1.84432807764539e-10
1.87056830779837e-10
1.64175481395672e-10
1.04686216597364e-10
3.06026178816591e-11
7.22968160278082e-11
5.90019292176346e-10
2.35477199219084e-09
6.74592919073458e-09
1.58849876154228e-08
3.26331553883225e-08
6.0411891266924e-08
1.02895061974081e-07
1.63664164801042e-07
2.45935148852712e-07
3.52420776476091e-07
4.8534312408284e-07
6.4656751190043e-07
8.37813277836359e-07
1.06089887660839e-06
1.31799205952836e-06
1.61185020135436e-06
1.94604739551055e-06
2.32519201945752e-06
2.75514181087762e-06
3.24322401560286e-06
3.79846681486608e-06
4.43184550652116e-06
5.1565429443075e-06
5.98821823574244e-06
6.94527007903441e-06
8.04907050648649e-06
9.32412987945751e-06
1.07981328746282e-05
1.25017551358375e-05
1.44681275683493e-05
1.67317549849192e-05
1.93266150301364e-05
2.2283063808524e-05
2.56230544351526e-05
2.93530901768116e-05
3.34546335613012e-05
3.78726826699662e-05
4.25041114474845e-05
4.71936764707944e-05
5.17912825455755e-05
5.59657326395946e-05
5.75512771665097e-05
5.42260385004905e-05
4.48166196348914e-05
2.71874945289591e-05
8.02889043471112e-06
3.04337916515701e-06
1.69762916094759e-06
1.30736732624248e-06
1.31969075724631e-06
1.54983298358083e-06
1.974803181117e-06
2.64732725658095e-06
3.59872586500786e-06
4.80494792515875e-06
6.22088964375649e-06
7.77995594330755e-06
9.39412730289364e-06
1.09353028348752e-05
1.20441381517903e-05
1.23433397323133e-05
1.18551326718552e-05
1.07307006853203e-05
9.17323171312593e-06
7.39674271734099e-06
5.60420590481398e-06
3.96588020268531e-06
2.59962819468037e-06
1.44320050152523e-06
4.72972588895995e-07
6.61615243353555e-08
2.23674613831921e-06
1.73812853331763e-05
9.74780232954113e-05
0.000489430288261547
0.00114683517082787
0.001017668064284
0.00048462620979724
0.000181761977697899
0.00215109250565688
0.00127828418764865
0.000344892435813339
1.57900156542137e-05
1.5257509722644e-06
8.53048015990398e-07
3.65050745033434e-07
1.17823217316576e-07
3.26994520765666e-08
9.9084486291164e-09
3.96961237471915e-09
2.45039209213343e-09
2.15095359822157e-09
2.28663806560015e-09
2.66287807328481e-09
3.28192776532766e-09
4.17980910632851e-09
5.35432077408961e-09
6.74079776471238e-09
8.13756481831876e-09
9.1982720404316e-09
9.46660862066273e-09
8.60669762936334e-09
6.61268438968505e-09
3.95177048189709e-09
1.61363938177831e-09
7.06997183143501e-10
1.69254061417464e-09
3.84519586729136e-09
5.69117811019925e-09
6.12345402294706e-09
5.25905342094882e-09
3.98405607133416e-09
3.08167371157469e-09
2.30369727659097e-09
1.70533460262656e-09
1.19726216859986e-09
5.39366275262282e-10
6.09318330039081e-10
4.3726129701475e-09
1.91234550236967e-08
5.97341878080926e-08
1.51995703078156e-07
3.34977600204042e-07
6.60262779022182e-07
1.18794187987845e-06
1.98005791709635e-06
3.09376903312307e-06
4.57627531250486e-06
6.46272071457153e-06
8.77700625993067e-06
1.1534683670904e-05
1.47468475285805e-05
1.84241399755795e-05
2.25803187423775e-05
2.72351566023929e-05
3.24166478910594e-05
3.81625992454673e-05
4.45217022211732e-05
5.15541583110784e-05
5.93318741231558e-05
6.79381798144866e-05
7.74669532941202e-05
8.8020959062761e-05
9.97091341202248e-05
0.0001126424753161
0.000126928106286777
0.000142661034008928
0.000159913057947663
0.000178718287076283
0.000199054786316469
0.000220822088814207
0.000243814829449384
0.0002676937319585
0.000291956914669363
0.000315918742926129
0.000338712569588998
0.000359343288829088
0.000376835186979055
0.000390649069947346
0.000401834471161037
0.000406583418217639
0.000405102481865773
0.000403038375372842
0.000414731740385235
0.000370099015914677
0.00017835180860943
8.39360850610682e-05
5.18563956526584e-05
4.03106840569384e-05
3.88449857346031e-05
4.25860657383736e-05
4.99624141608492e-05
6.11643023447339e-05
7.60591706626826e-05
9.36224677939269e-05
0.000112717735008913
0.000132102506852622
0.000150418816086042
0.00016599539139289
0.000174682507936416
0.000173360037683427
0.000162755344646832
0.000144914746105606
0.000122293778109724
9.74207352480436e-05
7.27048135111098e-05
5.01130498355876e-05
3.10246558928726e-05
1.52044399023327e-05
3.80485808570831e-06
4.9206833458929e-06
5.0415911020589e-05
0.000265051578562113
0.00105076940979361
0.00310794274374388
0.00476093105973722
0.00529795053441508
0.00488041972465018
0.00341185593805678
0.0107840260488279
0.00719012189392611
0.00256852536762057
0.000301877578643303
5.03285617075202e-06
4.81128513814067e-06
2.41247379223803e-06
8.49419866700177e-07
2.54496939781632e-07
7.97563993620137e-08
3.18539768948517e-08
1.9222652431299e-08
1.66232264440745e-08
1.7574447126908e-08
2.04081494936164e-08
2.50431102546448e-08
3.17366862116235e-08
4.04674669034435e-08
5.07945893668196e-08
6.14019752324277e-08
7.0214324456147e-08
7.45891878137276e-08
7.22581946912909e-08
6.26533457399549e-08
4.73179640029974e-08
3.02191252561148e-08
1.63808663126251e-08
9.41064142874786e-09
9.46522884676112e-09
1.33906074850065e-08
1.70592023443682e-08
1.76902339068042e-08
1.53434843821429e-08
1.23046298821006e-08
7.42659359125624e-09
3.01269889790029e-09
2.12287473845563e-09
1.08396340045948e-08
5.15024380749894e-08
1.7601912085345e-07
4.84682805677878e-07
1.14700356156291e-06
2.41038133187623e-06
4.58578260476118e-06
8.00831277923266e-06
1.29849566920652e-05
1.97475619413635e-05
2.84272093149229e-05
3.90545567965395e-05
5.1580354525927e-05
6.59054521499568e-05
8.19105602959532e-05
9.94798529036065e-05
0.000118516367706935
0.000138949707515173
0.000160737644746501
0.000183863340215403
0.000208329521219595
0.000234150470888946
0.000261342245998544
0.000289911224516829
0.00031984089759196
0.000351076754311675
0.000383509159606791
0.00041695429389997
0.00045113351856165
0.000485651975571461
0.00051997784685674
0.000553424523530856
0.000585138992460871
0.000614101084308959
0.000639139941983057
0.000658976292398617
0.000672301727224208
0.000677909526638588
0.000674898486340748
0.000662983009838865
0.000642950500605311
0.000617344242311022
0.000591728513743135
0.000573268422647631
0.00057519149424319
0.000620966424341477
0.000755893222013753
0.00103508306851512
0.00122720308707941
0.000880587550927191
0.000554504876705787
0.000400180600219105
0.000330361180542698
0.000314018052879972
0.000327885257835163
0.000359137939961428
0.000405336058001146
0.000463022635514255
0.000525199786195912
0.000585739017245689
0.00063940700554184
0.000682113276755175
0.000707135854018795
0.000709240761395536
0.000682495421402798
0.000629040129229623
0.000554565218093926
0.000465510107022555
0.000368935227364649
0.000272103278213839
0.000181740056431479
0.00010416298208396
4.43180190822182e-05
1.77882847982101e-05
7.47132073731889e-05
0.000354986827813469
0.00120338081608644
0.00303010781535698
0.00474791762528586
0.00365896526822614
0.00355845667001121
0.00921025801980092
0.0123422369712686
0.0179830145721415
0.0150317357519768
0.00794940269541555
0.00189614849400896
3.82705917856293e-05
1.35865450608299e-05
8.8620064449122e-06
3.47796160066161e-06
1.1412908646595e-06
3.7469839728868e-07
1.50165885207967e-07
8.8681042883311e-08
7.54853678683948e-08
7.93379465619929e-08
9.18682568638325e-08
1.12249781304645e-07
1.41539709867966e-07
1.79637173323848e-07
2.24847553760628e-07
2.72315661275948e-07
3.1514294811065e-07
3.45379961447509e-07
3.55119170113405e-07
3.41318962442655e-07
3.05224902769816e-07
2.52382684056254e-07
1.90075465473739e-07
1.25853817390982e-07
6.83981042642931e-08
2.71277095375713e-08
9.66209643012448e-09
1.08673626604381e-08
1.54246267551943e-08
1.50103364862988e-08
7.57008942138566e-09
1.61247165166162e-08
7.60746924138547e-08
2.77965719731627e-07
8.19159980842026e-07
2.07274943769877e-06
4.62634217517234e-06
9.28988163335918e-06
1.69740938602597e-05
2.84940453318429e-05
4.43567401248551e-05
6.46294855257085e-05
8.89404897639824e-05
0.000116594633290708
0.000146743513663074
0.000178543503705654
0.000211262916342115
0.000244329978494434
0.000277333949398432
0.000309998110638132
0.000342140911884397
0.000373635831868637
0.000404375226323128
0.000434239896725338
0.000463074284564776
0.000490666585622484
0.000516733165889329
0.000540907099167822
0.000562731224790795
0.000581656742240005
0.000597048932248418
0.000608202061648399
0.00061436582628742
0.000614785704466122
0.000608759214771063
0.000595709152877326
0.000575273324378093
0.000547408136250822
0.000512500913766274
0.000471483334463979
0.000425937485132807
0.000378191894794037
0.000331421240914884
0.000289781789111594
0.00025867280039177
0.00024548977850384
0.000259777224951071
0.000319166434096935
0.000454349154745915
0.000727523378899981
0.00121542953195962
0.00167900579221018
0.0015824381210418
0.00128848283445294
0.00109858356061818
0.000991891273682309
0.00095845240439621
0.000971645366070333
0.00100601604997806
0.00105209629841007
0.00110119929680683
0.00114160783964174
0.0011652208673325
0.00116811404297643
0.00114700528411366
0.00110672811493257
0.00105329241672677
0.000984042534573008
0.000895260667152756
0.000788386662334517
0.000665441787973718
0.000530679053841297
0.000390544788122055
0.000255219723863066
0.000142598811420104
8.27680982066881e-05
0.000134870903322641
0.000419844546430677
0.00115823966448039
0.00258521671808723
0.00443491330388848
0.00568986428450612
0.00445077209002991
0.000524490829691364
0.00518024984568969
0.0149304933528361
0.0156706285717057
0.0160040520048037
0.0133652735397524
0.00575103568742992
0.000384188351425526
2.08309525840976e-05
2.14574453553589e-05
9.82353381053349e-06
3.61028446374205e-06
1.26312695423587e-06
5.1222733930081e-07
2.96371028624008e-07
2.47952015300639e-07
2.58894083645221e-07
2.98831451565485e-07
3.63453777375756e-07
4.55793388283474e-07
5.75511325972672e-07
7.18126962585746e-07
8.71388606393935e-07
1.0202579021803e-06
1.15138500618329e-06
1.24895175621984e-06
1.30685907935976e-06
1.32162952746212e-06
1.28650751965317e-06
1.18434781457611e-06
9.97473135124989e-07
7.28828807010217e-07
4.22996596784404e-07
1.71174631950144e-07
4.12653579788748e-08
9.21239488915711e-09
1.46513387579991e-08
6.66779790218821e-08
3.13109279444972e-07
9.41340040513239e-07
2.49977022749668e-06
5.85407100331978e-06
1.23247971579558e-05
2.35085022590672e-05
4.08898529530527e-05
6.5271021089612e-05
9.63503194553076e-05
0.000132663765268474
0.00017193119667679
0.000211635428036644
0.000249566517860224
0.000284151690932629
0.000314529014393145
0.000340436597486224
0.000362020727197901
0.000379644607722184
0.000393739086704559
0.00040470479881854
0.000412858199175454
0.0004184088492693
0.000421456512960607
0.000421999936051828
0.000419952489653785
0.000415162336526237
0.000407436346020371
0.000396567765071676
0.000382367829457338
0.000364701171908449
0.000343524151839484
0.00031892419904072
0.000291157043378883
0.000260677486427796
0.000228158450419341
0.00019449283653024
0.000160773813837825
0.0001282522643395
9.82758917288989e-05
7.22242242263233e-05
5.14705147301557e-05
3.74274196559366e-05
3.17670492376132e-05
3.69828820106324e-05
5.76488467951364e-05
0.000102938130952166
0.000190711243664678
0.000351853681041719
0.000643687966012446
0.00112898439579732
0.00161832456959351
0.00170632842382913
0.00157985953082765
0.00147973377345321
0.00140914086190789
0.00137101432390677
0.00134509003333771
0.00131029943941932
0.00125791787644936
0.00118826310243045
0.00110338519461388
0.00100639481809047
0.00090204585717577
0.000798323947856877
0.000708150366701722
0.000639259457526874
0.000585051958172929
0.000533637500646208
0.000480016746582841
0.000419959400903801
0.00035244273438645
0.000280595819730987
0.000217853485913565
0.000199720117910796
0.000287955623205155
0.000576853900598618
0.0012056981730627
0.00236187033353132
0.00417217160509233
0.00670550307647352
0.010178570077032
0.00938751369295269
0.00212878610682956
0.00126024250897756
0.00978497719421513
0.0106080187636085
0.0120980487496778
0.0155215273072564
0.0108201485101556
0.00185934470901278
2.88440937238603e-05
3.47566229932537e-05
2.06454406458173e-05
8.83493770266265e-06
3.38021017654433e-06
1.4043554348345e-06
7.97794006337205e-07
6.54723750633192e-07
6.78236833762012e-07
7.79725638421873e-07
9.43123775751303e-07
1.17491782180273e-06
1.47393922237797e-06
1.83101435411739e-06
2.22300248681008e-06
2.62792233712242e-06
3.04006634239226e-06
3.44694445785048e-06
3.85128248050019e-06
4.24616226370044e-06
4.58549263619283e-06
4.75484286379261e-06
4.60113279547517e-06
4.00960841925365e-06
2.99565935876263e-06
1.83543556510914e-06
9.39889285900842e-07
4.84907239782967e-07
3.90028473468047e-07
7.94424675639142e-07
2.37341287282471e-06
5.64215869162146e-06
1.23329645492242e-05
2.43601834711112e-05
4.39394597658364e-05
7.24334685747599e-05
0.000109525151913297
0.000152776985339541
0.000198073111988171
0.000240756267580998
0.000276895940143391
0.000304131166196134
0.000321829628531868
0.000330711585043528
0.000332256779896126
0.000328169048139523
0.000320022743645672
0.000309093377865879
0.000296318846741667
0.000282332234061909
0.000267523227016758
0.000252103653260889
0.000236166219439688
0.000219733372336963
0.000202796878917661
0.000185349892065634
0.00016741316456686
0.000149056406479938
0.000130414940113595
0.000111700978842035
9.32081935194778e-05
7.53078660946147e-05
5.84349813132362e-05
4.30631794884258e-05
2.96687006803373e-05
1.86853927142164e-05
1.04556283140574e-05
5.18575775710307e-06
2.91987734879811e-06
3.55315960944664e-06
6.91762096207341e-06
1.29928605568384e-05
2.23274396464494e-05
3.68371748358845e-05
6.13074763675118e-05
0.000105302434398046
0.000185958133640145
0.000330763108562459
0.000584709222519871
0.000991683259421169
0.00140757489956029
0.00152556477354977
0.00145785393770439
0.00138402128479849
0.00130708426346028
0.00123057367828921
0.00113785014112896
0.00101927243169536
0.000877176527256528
0.000726841774171208
0.000582583860314697
0.00045302617910132
0.000345064184056919
0.000265926454550161
0.000221064989617363
0.000207704572151101
0.000213350121921471
0.000228063324722468
0.000247079904482863
0.000266990525097689
0.000288220234162872
0.000317822466045435
0.000378673866423257
0.000524777093825916
0.000832918818443921
0.00140566138965905
0.0023885378389443
0.00403222061417835
0.00674672626156918
0.0111190944927652
0.0166002566197958
0.0145629165071192
0.0041553598229952
0.000168323704050749
0.00526905979827224
0.00702173358476253
0.00822981107532175
0.0148678836604275
0.0151214149364884
0.00508531701078911
0.0001818115126506
3.17561152853395e-05
3.22373632214988e-05
1.72616351069078e-05
7.53318019699922e-06
3.27275911872492e-06
1.83409458857788e-06
1.47309203590452e-06
1.51083797682515e-06
1.72724187294123e-06
2.07393908191117e-06
2.56073358538131e-06
3.18300494358302e-06
3.92428490044143e-06
4.74994079582415e-06
5.64261031054369e-06
6.63835567517135e-06
7.76715855571595e-06
9.07455072362717e-06
1.05659839739522e-05
1.21227613626598e-05
1.34179599563971e-05
1.39633380776706e-05
1.3302506254758e-05
1.12365673788209e-05
8.19051344893055e-06
5.26087197127925e-06
3.34149769639008e-06
2.76751712467614e-06
4.3833889502269e-06
1.02769194433618e-05
2.07442280226929e-05
3.86900073662626e-05
6.6001082020528e-05
0.000103446027633158
0.000148898026756325
0.000197450867204203
0.000242596708213611
0.000278268455005359
0.00030066302322629
0.000308967940380816
0.000304884526822344
0.000291480010315796
0.000272064175542876
0.000249473842270721
0.000225798773947505
0.000202400822657793
0.000180064324008592
0.000159171133853064
0.000139850777700276
0.000122092237392951
0.000105820536065631
9.09463949540638e-05
7.73970497727136e-05
6.5134388600031e-05
5.41644574926199e-05
4.45406420408595e-05
3.63615838944887e-05
2.97640900829401e-05
2.49108710327884e-05
2.19728765861288e-05
2.11062635712452e-05
2.24245860757361e-05
2.59676053552737e-05
3.16691791394907e-05
3.93280364723189e-05
4.85869711123044e-05
5.89283574554843e-05
6.96976734128288e-05
8.01730523898211e-05
8.97090020017758e-05
9.80013346447887e-05
0.000105544054367433
0.000114383621474503
0.000129375947129661
0.000159500107397419
0.000219967336625276
0.000333264404355612
0.0005331555106608
0.000851663038956341
0.00118296835615516
0.00128032549060863
0.00121335566845656
0.00112260211787487
0.00101443383141964
0.000897876713583486
0.000764025205763225
0.000614032870204732
0.000458090386669236
0.000314951161202204
0.000197426175131746
0.0001114189223344
6.0994409707005e-05
4.86623919776917e-05
7.26840944744839e-05
0.000123226795434377
0.000187825573969441
0.000261957045662082
0.000342717096325567
0.00042940042122499
0.000526168145451603
0.000647162693785984
0.000827605980909237
0.00113941594696603
0.00167453927796429
0.00255820333724451
0.00400110940799967
0.00642584417462757
0.0105730357777557
0.0169816627470696
0.0231312052563234
0.018729676892298
0.00554816000529422
7.1187132672246e-06
0.003022201882281
0.00497881903437189
0.00573693434780314
0.0131485519042355
0.0176834148644592
0.00940340630231389
0.000980852694473615
9.81654800391681e-06
3.43719252659417e-05
2.65150664915471e-05
1.41510838985768e-05
6.65801901394891e-06
3.71938233428228e-06
2.91835188754952e-06
2.95469991913526e-06
3.35074142050493e-06
3.98217282240279e-06
4.8551874417681e-06
5.95291902356156e-06
7.24575897471767e-06
8.69050473974133e-06
1.02987177399771e-05
1.21944241769705e-05
1.45141133856114e-05
1.73858661235846e-05
2.0838915529927e-05
2.46387212821473e-05
2.81301983934577e-05
3.03082766505134e-05
3.01895078353578e-05
2.72591293098327e-05
2.19835615649158e-05
1.61310696589893e-05
1.16841867253425e-05
1.03403041992261e-05
1.49072967903427e-05
2.95389464368863e-05
5.20828267553832e-05
8.50465182093795e-05
0.000127734695085368
0.000176781485986739
0.000225322455119682
0.000265363773258511
0.00029053859387449
0.000298219646403569
0.000289824812032149
0.000269464532572599
0.000242040256953798
0.000211817876899913
0.000181827333211161
0.000153880376476141
0.00012886356494856
0.00010706732643385
8.84483412800791e-05
7.28068966936786e-05
5.98945525554278e-05
4.94738807134865e-05
4.13481776778652e-05
3.53733586930091e-05
3.14595016982196e-05
2.9566243505628e-05
2.9694166538787e-05
3.18731173920041e-05
3.61477812514988e-05
4.25605926530095e-05
5.11320790903208e-05
6.18389580097845e-05
7.45906845666003e-05
8.92056050740511e-05
0.000105388378511004
0.000122710960931351
0.000140600282179089
0.000158336962413894
0.000175071339482752
0.000189866676114779
0.000201785718349476
0.000210046491111404
0.000214290004330478
0.0002150041325204
0.000214120732665618
0.00021606467902255
0.000228837143527533
0.000265339291436646
0.000343595015297314
0.000489560892729924
0.000728543971819994
0.000983628852878369
0.00105109959067297
0.000977140878305135
0.000872182133713412
0.000746955284799245
0.000616132469155733
0.000477827663267624
0.00033780712356919
0.000208320802618869
0.000104698820511974
3.55050552069324e-05
4.46786882855875e-06
1.36801155055046e-05
6.27258061445887e-05
0.000146135467448221
0.000251449987520625
0.000368570455729696
0.000497110012653121
0.000635495724614457
0.000785517589041266
0.000955416938890563
0.00116744561968883
0.00147088610254539
0.00195929991690865
0.00275383595157353
0.00402701288743171
0.00609642297277039
0.00956799192790636
0.015368936602905
0.0234979854353135
0.0289893667421291
0.021700739259077
0.00637564070993919
1.4245457047838e-05
0.00200869549742269
0.00384778130327213
0.00433570630317364
0.0113596921908992
0.0186210089915942
0.0135784713498237
0.00301004956966923
6.03934595533934e-05
1.90540350628707e-05
3.0094560230746e-05
2.19667152334673e-05
1.18654777731086e-05
6.7493966581055e-06
5.17650273067114e-06
5.15548234404022e-06
5.77978568331849e-06
6.77124574798569e-06
8.11096558193677e-06
9.7508987971063e-06
1.16384092570478e-05
1.37307491935436e-05
1.61086062464134e-05
1.90218946685739e-05
2.27812856083151e-05
2.76167484874598e-05
3.35686322785695e-05
4.02438111805691e-05
4.66041341447702e-05
5.10777163434861e-05
5.21418935201055e-05
4.90022619293773e-05
4.21648527629215e-05
3.4008919924742e-05
2.7256335015774e-05
2.59495392859221e-05
3.56661028198212e-05
6.21088023441358e-05
9.80565909271126e-05
0.000143260485019756
0.000192713169159453
0.000238889912164209
0.000272991681315087
0.00028889656937058
0.000285344028935229
0.000265755354995778
0.000236050024888165
0.00020215853257257
0.00016853879762152
0.000137864791918079
0.000111382620454297
8.94268824391353e-05
7.18452771420132e-05
5.82764481978016e-05
4.83078658729244e-05
4.15556083441389e-05
3.76987736052021e-05
3.64894037874863e-05
3.77497903313628e-05
4.13634611653895e-05
4.72629573028827e-05
5.54157841251806e-05
6.58090364034444e-05
7.84328187036519e-05
9.32624966693802e-05
0.000110239876301426
0.000129253575979818
0.00015011911341169
0.000172559532101265
0.000196187657415447
0.000220491320335797
0.000244823279098764
0.00026839819321973
0.000290300077547538
0.000309505493224709
0.000324931333910108
0.00033552215691795
0.000340400920920433
0.00033912049938612
0.000332030403026183
0.000320737158100121
0.000309047130415878
0.000303887899929355
0.000316066536655229
0.000360235722796688
0.000457231134809957
0.000628038097623514
0.000817175433573399
0.000856501394235513
0.000780778122997193
0.000673551145919637
0.000548355630398733
0.000422759823903268
0.000298881836587773
0.000184035619609718
8.95482840134211e-05
2.73218526350329e-05
3.58672000651751e-06
2.13417155297082e-05
8.17872673520369e-05
0.000183150309688512
0.00031825540898784
0.000473911479486466
0.000642519753299228
0.000826438018275868
0.00102512682532021
0.00124288265623569
0.00149267559438859
0.00180634606599508
0.00224982052038393
0.0029443846608499
0.00405353763163199
0.00581285114261152
0.00865823399194797
0.0133453846760595
0.0208406887551479
0.0301218173153441
0.0336804644564472
0.0235644782184252
0.00680130459733325
6.24997395841841e-05
0.0015377216298654
0.00320791308843098
0.00360167446448624
0.00969075776501771
0.0184608331822089
0.0168196609835109
0.00626814427890457
0.00042336914458711
1.15685755643073e-06
2.23914462738068e-05
2.67657924944464e-05
1.81784925299892e-05
1.09464891399574e-05
8.25893200532223e-06
8.06615577597036e-06
8.90578120370126e-06
1.02385990871195e-05
1.19830536390166e-05
1.40391494637159e-05
1.6332035763956e-05
1.88500088363893e-05
2.18014241094593e-05
2.56015286405817e-05
3.07653416591728e-05
3.76255271329769e-05
4.62073469420405e-05
5.59364634575649e-05
6.54046863374058e-05
7.25275097788565e-05
7.53221976168552e-05
7.28011377077593e-05
6.55576229750129e-05
5.64940492909619e-05
4.9035935254507e-05
4.96962022678585e-05
6.60571929601576e-05
0.000104221205752003
0.000149904124128701
0.0001988525275038
0.00024229806325743
0.000271693474084244
0.000281150000460716
0.000270478549458885
0.000244535668320565
0.000210418392817926
0.000174544955686203
0.000141219767836641
0.000112634717523806
8.95115938202704e-05
7.17616637065107e-05
5.89407633274526e-05
5.05047703407887e-05
4.59338268159269e-05
4.47834326430866e-05
4.66988820507382e-05
5.14123669422213e-05
5.87323812149703e-05
6.85298561630957e-05
8.0722955956535e-05
9.52612574543445e-05
0.000112109494188707
0.00013123082774379
0.000152569615181379
0.000176033751127616
0.000201476782044562
0.000228680146349086
0.000257336102069421
0.000287032116583839
0.000317237599737329
0.000347293933062521
0.000376409035410732
0.000403658261432023
0.00042799447262693
0.000448271920320531
0.000463292127592637
0.000471885601552012
0.000473050969186533
0.000466183571262055
0.000451389319268353
0.000429841496836425
0.00040471117927739
0.000381893564613831
0.000370491328636322
0.000382735234818987
0.000436058431829051
0.000548417425713902
0.000680920040929401
0.000696072821542353
0.000623478700501345
0.000522164244841329
0.000406810160704483
0.000295344621385184
0.000192079805779607
0.00010481219060923
4.37757080352165e-05
1.87094678058906e-05
3.50218310648901e-05
9.56825948205074e-05
0.000201692034894576
0.000350725580644243
0.000534843057662117
0.000740905420051149
0.000963537103078846
0.00120700201179045
0.00147184763628688
0.00176522971932114
0.00210588430813521
0.00253718771561097
0.00314477738276475
0.00408396746167429
0.00556855084012925
0.00790623591748395
0.011645115874314
0.0176609582048283
0.0267906185592217
0.0361977102880002
0.0372774574654257
0.0244901364712461
0.0069549536370816
0.000143784005030624
0.00132010831400094
0.00283808731501644
0.00325137984854708
0.00810824716674131
0.0177254187202895
0.0188802835785787
0.0101723157605217
0.00141851081437571
3.06785020990214e-05
9.3358875534158e-06
2.35479522838061e-05
2.29954610524353e-05
1.56100732236095e-05
1.17856826035635e-05
1.128122895154e-05
1.2231105996589e-05
1.37506506917167e-05
1.56612020563158e-05
1.78164113183303e-05
2.01573835740994e-05
2.27653763710587e-05
2.60311636054367e-05
3.05628631772358e-05
3.70427075069505e-05
4.58858289052986e-05
5.70731079728915e-05
6.98467081715482e-05
8.2481584848383e-05
9.24797094154106e-05
9.74894887216539e-05
9.63838622420369e-05
8.9870963178029e-05
8.13335640088304e-05
7.49791025546867e-05
7.94097556187993e-05
0.000102398748090806
0.000148816106999289
0.000196731219120418
0.000238731179185516
0.000265263290997766
0.00027116972399157
0.000256769315994543
0.000227820507242885
0.00019214604594203
0.000156425946197412
0.00012476890194311
9.89676598176819e-05
7.93576617351587e-05
6.55711605547695e-05
5.69935879974199e-05
5.29885314736116e-05
5.29897018254632e-05
5.65297137260893e-05
6.32412836607715e-05
7.28475924373936e-05
8.51485658426863e-05
0.000100005811948697
0.000117327125339741
0.000137050818740188
0.000159129888278937
0.00018351593496742
0.000210142766718897
0.00023890972544839
0.000269664929249725
0.000302188693778008
0.000336177496084163
0.000371229009759999
0.000406828902958426
0.000442340081783913
0.000476995006410628
0.000509891966349474
0.000539996747637109
0.000566152156547839
0.000587099617199134
0.000601520490455849
0.00060810989186995
0.000605702436061583
0.000593477089891888
0.000571230324135068
0.00053968776197558
0.000501402927709013
0.000461353992134164
0.00042732553022406
0.000409857184862923
0.000424111581055565
0.000485933018828143
0.000569821256502168
0.000564526427918261
0.000497380561534598
0.000405701508874761
0.00030427729034778
0.00020986025260988
0.000128100897324576
6.71675479259354e-05
3.66226904487094e-05