/*--------------------------------*- C++ -*----------------------------------*\
  =========                 |
  \\      /  F ield         | OpenFOAM: The Open Source CFD Toolbox
   \\    /   O peration     | Website:  https://openfoam.org
    \\  /    A nd           | Version:  7
     \\/     M anipulation  |
\*---------------------------------------------------------------------------*/
FoamFile
{
    version     2.0;
    format      ascii;
    class       volSymmTensorField;
    location    "20000";
    object      tauij_B_bouss;
}
// * * * * * * * * * * * * * * * * * * * * * * * * * * * * * * * * * * * * * //

dimensions      [0 2 -2 0 0 0 0];

internalField   nonuniform List<symmTensor> 
15600
(
(3.27911956897305e-06 -2.25751861485033e-08 -7.75222296299119e-29 3.2792858178966e-06 -1.49025911479893e-30 3.27919248739079e-06)
(2.48900082571281e-06 -1.78742552631293e-08 7.16538554738241e-27 2.49271340693794e-06 -1.15157691070896e-27 2.49081580619254e-06)
(1.16039066643866e-06 -3.87321989870956e-09 6.89197770060373e-29 1.16399401287172e-06 1.3473983763071e-28 1.16221335759772e-06)
(3.61849378161794e-07 1.33081830493338e-10 5.44661498867968e-30 3.61122259395278e-07 1.17887744806878e-30 3.61464982767286e-07)
(6.65813333274265e-08 8.85355994686056e-12 -4.96164704527092e-28 6.63235617340259e-08 -5.90972012992647e-28 6.64504070728543e-08)
(3.40465908913591e-08 -6.96597844204686e-12 -9.01118573649708e-30 3.39578034472101e-08 -1.97232848935033e-28 3.40016602321545e-08)
(2.55078989126843e-08 -6.51588782946194e-12 3.75152949133436e-30 2.5465751684128e-08 -8.33040211960566e-32 2.5486629585843e-08)
(1.14942900637558e-08 -2.91480775531407e-12 -1.56854822113449e-28 1.14800270211451e-08 -1.25577233806668e-28 1.14870780233277e-08)
(4.56292530356831e-09 -1.03338701926566e-12 -4.3536936195351e-29 4.55856125023715e-09 -2.1321150944216e-29 4.56072248793465e-09)
(2.08740255868187e-09 -4.13170517896472e-13 3.42416646273545e-29 2.08579965621757e-09 2.26500452581236e-29 2.08659418418235e-09)
(1.25401531173218e-09 -2.20095521098392e-13 2.13120954146368e-30 1.25320100612802e-09 -1.34647174921093e-30 1.25360538979514e-09)
(1.04459245790863e-09 -1.70899246102264e-13 3.28123543977233e-32 1.04396870110504e-09 1.75507848818981e-32 1.04427883586069e-09)
(1.08285235854929e-09 -1.71536060116904e-13 1.88463909926949e-29 1.08221322057702e-09 1.14185366853556e-29 1.08253130914719e-09)
(1.24329636285695e-09 -1.95504689252632e-13 3.78126082354161e-29 1.24254322276292e-09 2.28270955965476e-29 1.24291833640041e-09)
(1.48291411450121e-09 -2.36400296827849e-13 -2.82771175147984e-30 1.48197380940314e-09 1.77967546920241e-31 1.4824424468722e-09)
(1.80916541616742e-09 -2.9711402526008e-13 -4.33713832330271e-30 1.80794671898598e-09 3.09181911292965e-31 1.80855428514166e-09)
(2.2461214325135e-09 -3.82196307300791e-13 9.78656404725528e-30 2.24450717907254e-09 1.40998610144273e-29 2.24531199956286e-09)
(2.80966488283168e-09 -4.94055543034225e-13 3.02414795588616e-29 2.8075209593575e-09 1.41571343302416e-29 2.80858981466311e-09)
(3.51908516124932e-09 -6.3176288129847e-13 1.11897772268307e-29 3.51627401574724e-09 -4.68815125928885e-31 3.5176752275642e-09)
(4.39447910745255e-09 -7.85529748425734e-13 -1.32253092558824e-28 4.39090034234267e-09 -8.58573694406704e-29 4.39268386472719e-09)
(5.46329376832696e-09 -9.3000798739693e-13 6.55055149373235e-31 5.45895063094778e-09 2.82635151462398e-31 5.46111483537632e-09)
(6.706338286012e-09 -1.00859491810079e-12 -2.78730992073019e-29 6.70142063613432e-09 3.73480766399142e-30 6.70387244711832e-09)
(8.0789746188355e-09 -9.54960803536894e-13 8.71417707757473e-29 8.07393092049663e-09 7.0422925606351e-29 8.07644961003274e-09)
(9.52727187506367e-09 -7.12290286149743e-13 -2.0798147523074e-30 9.52289916128392e-09 1.95707449974786e-30 9.52509212699729e-09)
(1.09170234338442e-08 -2.63144278605382e-13 -4.46447735288213e-28 1.09145069590638e-08 -2.09300665292653e-28 1.09157895212071e-08)
(1.20444881917861e-08 3.06701730164507e-13 4.24662498444844e-28 1.20452292872116e-08 2.61809594100007e-28 1.20449084804667e-08)
(1.265425051959e-08 7.62982991760466e-13 2.66986704200796e-28 1.26593930577751e-08 -3.56707167218478e-29 1.26569002917627e-08)
(1.25180662534258e-08 7.71365855323451e-13 -3.19796358603122e-28 1.25277977781061e-08 -1.58722304242159e-28 1.25230338139867e-08)
(1.15464816812999e-08 1.34811413665381e-13 7.68545267642118e-28 1.15595055878736e-08 8.6209281644512e-28 1.15531026277568e-08)
(9.81886730785247e-09 -9.46804961430416e-13 1.14489180299523e-28 9.83253471186015e-09 -3.60288612880584e-30 9.82579874009585e-09)
(7.71361044332845e-09 -1.97109252219083e-12 1.32208572508268e-26 7.72516242961023e-09 -2.27024796350102e-27 7.71946134935359e-09)
(5.78495252357698e-09 -2.54794073612889e-12 -4.38435176796576e-27 5.79304384767544e-09 -3.00805926249377e-26 5.78904700894454e-09)
(4.43521848884952e-09 -2.70814949522394e-12 -1.92181840844629e-26 4.4400380479162e-09 -2.01803657429572e-26 4.43765964967871e-09)
(3.7983371797722e-09 -2.79106376079738e-12 -1.0107214891611e-26 3.80070694253248e-09 1.01639111894377e-27 3.79953819319761e-09)
(3.8439883573589e-09 -2.9971570439121e-12 7.04524795983564e-29 3.84439510611479e-09 1.38571014011185e-29 3.84419816281054e-09)
(4.79131666818961e-09 -3.63952139116823e-12 -4.09010420176781e-30 4.79130120278701e-09 -3.3770132486459e-30 4.79131283805504e-09)
(6.29338422357847e-09 -4.56284567865176e-12 8.41292998528156e-31 6.29331138419987e-09 1.93261004619306e-29 6.29335372227912e-09)
(8.31381053806138e-09 -5.57578578841949e-12 -2.59689790962813e-26 8.31365833533468e-09 2.34182187024537e-27 8.31373842342828e-09)
(1.09619770743285e-08 -6.4586458954089e-12 -3.18482360768564e-26 1.09616375545651e-08 9.69381477301233e-26 1.09618154215723e-08)
(1.44641490420246e-08 -6.70310072683053e-12 4.89040003044527e-26 1.44634606781526e-08 1.00639410083882e-25 1.44638147902634e-08)
(1.90467903051856e-08 -5.48866154344212e-12 6.14492512822847e-26 1.90455041938966e-08 -5.03602593545987e-27 1.90461648048245e-08)
(2.49363867300739e-08 -1.39362865943494e-12 3.58914683355675e-30 2.49341452420611e-08 -2.90927138618813e-29 2.49352952611311e-08)
(3.23527324442995e-08 7.60840077132539e-12 3.52869681094135e-32 3.23490648106663e-08 9.96134956393437e-29 3.23509495449612e-08)
(4.14973639751024e-08 2.42222433766968e-11 -1.1708230664304e-29 4.14917078289709e-08 -4.61820403229566e-29 4.14946198367049e-08)
(5.25146493022419e-08 5.16562067811581e-11 -2.9229895955406e-31 5.25064010898565e-08 -4.11039724451137e-29 5.25106570611214e-08)
(6.54759281188568e-08 9.33607673910302e-11 2.06543598271367e-25 6.54645114501424e-08 -1.19364341545641e-26 6.54704151990066e-08)
(8.03753948895432e-08 1.52648392653943e-10 3.43376069752608e-25 8.03603313537504e-08 -5.894375590656e-25 8.03681373934549e-08)
(9.71366840759758e-08 2.32353877626179e-10 -1.72779733649457e-25 9.71176447545631e-08 -5.66193400055225e-25 9.71275302097679e-08)
(1.15628364735037e-07 3.34591132182946e-10 -3.68738270350848e-25 1.15605190811793e-07 1.80933448810907e-26 1.15617244085631e-07)
(1.35685377722961e-07 4.60675074915935e-10 4.61354670616917e-41 1.35658067623786e-07 6.81468747534379e-29 1.35672294181529e-07)
(1.57131602561903e-07 6.11196159338906e-10 9.40685006244799e-41 1.57100273481764e-07 7.72988309922193e-29 1.57116615352646e-07)
(1.79799961427162e-07 7.86210567174386e-10 5.25136657860916e-25 1.79764797013034e-07 -1.73777797123051e-26 1.7978315960877e-07)
(2.0354797645496e-07 9.85487937526838e-10 1.14016859580345e-24 2.03509172073918e-07 -1.05257785717855e-24 2.03529452494458e-07)
(2.28268349358893e-07 1.20876897437932e-09 6.14109581095996e-28 2.28226062723535e-07 -1.00464025227742e-24 2.28248175388319e-07)
(2.53895174330055e-07 1.45600077135217e-09 -7.47044719249803e-25 2.53849485184286e-07 1.83882718677819e-26 2.53873382843396e-07)
(2.80406921596275e-07 1.7275364214207e-09 -5.15510351624418e-30 2.80357800879969e-07 -5.13194130778007e-29 2.80383490720236e-07)
(3.07827391395269e-07 2.02429853004104e-09 1.02378627081588e-29 3.07774678393957e-07 7.05972141988052e-29 3.07802233974135e-07)
(3.3622567374698e-07 2.34791423024252e-09 5.58961345850676e-41 3.36169058962864e-07 -3.85989063343429e-29 3.36198629102679e-07)
(3.65715894202099e-07 2.70083245146822e-09 8.88099520135543e-41 3.65654905675103e-07 4.15655909441836e-29 3.65686721431473e-07)
(3.9645728867818e-07 3.08643463516204e-09 3.3634133031912e-30 3.96391279859355e-07 -0 3.96425660524233e-07)
(4.28654967762798e-07 3.50914909814974e-09 -7.81078177120666e-31 4.28583105556962e-07 -4.47872969569004e-30 4.28620464338906e-07)
(4.62561615224887e-07 3.97457787746571e-09 -6.99490478289924e-30 4.62482867345235e-07 4.5957683157512e-30 4.62523717111998e-07)
(4.98480310928487e-07 4.48964365017968e-09 4.2174377860668e-30 4.98393432198855e-07 -5.67322070134165e-29 4.98438391385986e-07)
(5.36768668812736e-07 5.06276346550887e-09 4.60824098229765e-40 5.36672186539414e-07 1.82929760721786e-28 5.36721985054191e-07)
(5.77844525114649e-07 5.70405552003712e-09 -2.90419223377644e-40 5.77736724200872e-07 -1.30403473178006e-28 5.77792208833004e-07)
(6.22193496401646e-07 6.42558495037144e-09 -0 6.22072405585146e-07 -1.42793837481576e-28 6.22134544026904e-07)
(6.70378854822558e-07 7.24165448895325e-09 -4.89400832391706e-29 6.70242236401536e-07 3.05300327725503e-28 6.70312118414654e-07)
(7.23054348679694e-07 8.16914562556538e-09 -1.52808690293427e-30 7.22899695556132e-07 -4.52578717609404e-28 7.22978529001725e-07)
(7.80980851546593e-07 9.22791522788806e-09 1.15473226166763e-28 7.80805397753931e-07 6.7867580094596e-28 7.80894495917041e-07)
(8.45048078181695e-07 1.04412505592263e-08 -6.14688410578932e-29 8.4484883283378e-07 -3.92607276853365e-28 8.44949587432282e-07)
(9.16303132384944e-07 1.18363815097464e-08 4.97900978345554e-40 9.16076953051922e-07 2.04921250528111e-41 9.16190784069533e-07)
(9.95988506940045e-07 1.34450413324354e-08 -3.51027110127566e-24 9.95732238983886e-07 -1.73366795820004e-25 9.95860507066546e-07)
(1.08559364774928e-06 1.53040525143738e-08 -1.62526225788841e-23 1.08530437528137e-06 1.45856822659966e-24 1.08544823276163e-06)
(1.18692692964308e-06 1.74558928258294e-08 -1.93733550637584e-23 1.18660241281216e-06 4.71226655550354e-24 1.18676255367066e-06)
(1.30222075717758e-06 1.99491955605516e-08 -1.58127198922006e-24 1.30186017631426e-06 3.60882671107693e-24 1.30203642178395e-06)
(1.43429672008533e-06 2.28391743754601e-08 5.23822522430281e-24 1.43390197774578e-06 3.2192718564113e-25 1.43409257871811e-06)
(1.58684925919042e-06 2.61879945912353e-08 3.0605260093504e-28 1.58642733833022e-06 1.75345465489119e-27 1.58662775455455e-06)
(1.76497691531706e-06 3.00657918401542e-08 8.10366065286534e-29 1.76454379645756e-06 -2.06585994242838e-27 1.7647446326845e-06)
(1.9762918617742e-06 3.45564893553786e-08 -9.09412509407757e-24 1.97587902032148e-06 -7.10967204880011e-25 1.9760626117588e-06)
(2.23353643119937e-06 3.97773880970675e-08 -3.26039146879962e-23 2.23320703690875e-06 1.08479409605136e-24 2.23333997942535e-06)
(2.56124708365475e-06 4.59276000776878e-08 -1.32779295388547e-23 2.56113600956385e-06 7.81367298490486e-24 2.56114997902446e-06)
(3.00243782878725e-06 5.32575247526673e-08 1.41468686607961e-23 3.00280753291635e-06 1.22271047871157e-24 3.00256254190899e-06)
(3.53679540313673e-06 6.04393152206826e-08 -9.55614748814198e-28 3.53810634457429e-06 -9.04596072508173e-29 3.53735672990032e-06)
(4.11774093929752e-06 6.48650928213093e-08 2.4398213847977e-28 4.12108278496365e-06 -6.00228501920647e-27 4.11938355527316e-06)
(4.63991717329866e-06 6.07357057246388e-08 1.6271686241627e-26 4.6476184173845e-06 8.53541313951175e-27 4.64376273396657e-06)
(4.13454950523167e-06 3.603819674395e-08 -8.65951450325169e-26 4.14838238744068e-06 -1.91311212009943e-27 4.14112779297712e-06)
(1.86865472634511e-06 8.49452427099528e-09 -1.25701185412777e-26 1.87814982186019e-06 3.50999573327893e-26 1.87350095813001e-06)
(9.92637731605312e-07 2.74726863469236e-09 -1.15266117541434e-25 9.98147110680275e-07 2.50794040121103e-25 9.95385382454565e-07)
(6.45626113559651e-07 1.06809565711086e-09 -1.04841592791233e-25 6.49275362296229e-07 1.74689676587604e-25 6.47442244546695e-07)
(4.91528606938067e-07 4.84143240990092e-10 9.21794581248649e-26 4.94433902924653e-07 -8.55022111061808e-26 4.9297106705712e-07)
(4.41634995300372e-07 2.10290147379817e-10 4.07378144090905e-27 4.44422370110069e-07 -1.86211368178129e-26 4.43019178533917e-07)
(4.35590663090246e-07 1.23863244383039e-11 3.37475414177262e-26 4.38550616988764e-07 -4.07154187358711e-26 4.37061441987346e-07)
(4.52932334187627e-07 -1.78326611815479e-10 -3.49181689387202e-26 4.56256248322733e-07 3.13229975909248e-26 4.54586851371987e-07)
(4.91252818490193e-07 -3.89461809687132e-10 -2.5137796738986e-26 4.95162267334584e-07 4.99997748281922e-27 4.93203632440898e-07)
(5.48789700959164e-07 -6.35976859962171e-10 6.90144918790843e-26 5.53498210174668e-07 -2.93372306687872e-26 5.51145246848068e-07)
(6.20990987681882e-07 -9.18617308036826e-10 1.43431074717613e-26 6.26650064201973e-07 -1.05135632475267e-26 6.23829308559523e-07)
(7.05147951740155e-07 -1.22811839669395e-09 -6.28052791609901e-26 7.11864011227579e-07 2.89014555797675e-26 7.08524425288093e-07)
(8.00310132138732e-07 -1.55110808979231e-09 -4.30359414337413e-26 8.08157240868164e-07 2.85049583562113e-26 8.04263834683167e-07)
(9.07249137266931e-07 -1.8738015873748e-09 -1.683162658294e-26 9.16283410764672e-07 -1.75930661309271e-27 9.11810591685582e-07)
(1.02909727206224e-06 -2.18208832744939e-09 1.26017913446204e-25 1.03935082313669e-06 -8.20383314345572e-26 1.03428406075544e-06)
(1.15358533058715e-06 -2.4292396071681e-09 1.91350827906056e-26 1.16483294355256e-06 2.39786260399522e-27 1.15928293637488e-06)
(1.25458982492876e-06 -2.55871591367468e-09 -5.20046737558947e-26 1.26621818330647e-06 4.09978276317424e-26 1.26048751925992e-06)
(1.3256834495924e-06 -2.56515998646951e-09 3.81392780230153e-26 1.33706865595586e-06 -7.58895647161727e-28 1.33146384543043e-06)
(1.36814651043361e-06 -2.46310122330787e-09 2.73752084769634e-26 1.37877222253744e-06 -2.86704945027221e-27 1.37354653581734e-06)
(1.3851626147775e-06 -2.27363106890381e-09 7.40511401439199e-26 1.39465483503322e-06 -6.05496116938717e-26 1.38999118195351e-06)
(1.38114779518184e-06 -2.02059093749629e-09 -3.5260212192712e-26 1.38928159637762e-06 5.0664397113367e-27 1.38528964890491e-06)
(1.36333597834817e-06 -1.73028884389162e-09 1.7020153771069e-28 1.37003011179193e-06 -4.1420616076004e-29 1.36674835515101e-06)
(1.3425040774696e-06 -1.43001347870143e-09 6.52478152948798e-26 1.34781270627715e-06 -3.33787232194043e-26 1.34521459878984e-06)
(1.35647516811246e-06 -1.15513410513301e-09 2.91780054560364e-26 1.3606236143013e-06 -8.53388748115955e-27 1.35859816660575e-06)
(1.44172317540832e-06 -8.91574548371602e-10 4.84750513041547e-26 1.44488994641644e-06 -3.2848264346103e-26 1.44334882922129e-06)
(1.6314640339656e-06 -5.87359104798599e-10 8.76029691584952e-29 1.63352963745845e-06 1.24062886769104e-28 1.63253241303047e-06)
(1.99564832274237e-06 -1.36637312372452e-10 -2.56252911450112e-26 1.99585792570368e-06 2.13315139539912e-26 1.99577262309712e-06)
(2.65014642829519e-06 6.53453504540636e-10 -8.62861288234649e-26 2.64617156334699e-06 5.59036244581139e-26 2.64814307196678e-06)
(4.08253985130258e-06 2.24191379612785e-09 -2.91448691950381e-27 4.06552215463438e-06 -1.37474405782643e-28 4.073862612859e-06)
(7.40526620305357e-06 4.03915685669805e-09 3.23747242234101e-25 7.33918214187625e-06 -4.28531986148471e-25 7.37148120730017e-06)
(1.56696174395045e-05 -1.70207996311561e-08 1.60231847329136e-25 1.53843062809375e-05 4.37214809056189e-25 1.55229737621438e-05)
(2.01847679110652e-05 -1.63349490207762e-07 9.15728695528881e-26 1.96171106632469e-05 -1.8380813010632e-27 1.98947729217378e-05)
(1.25925204208406e-05 -2.06702488817741e-07 4.02760598373034e-25 1.23288526791789e-05 3.7346512923631e-26 1.24589881418482e-05)
(6.79604383461365e-06 -9.33756408778797e-08 1.28285989721507e-27 6.76180064345628e-06 -1.98749368242273e-26 6.77894030732468e-06)
(4.16356116629259e-06 -3.31629098053273e-08 -1.8462398849561e-29 4.16090575173179e-06 -1.51636882849614e-29 4.16205582084042e-06)
(0.000105684405936622 -4.86905309257912e-06 -1.06074668956216e-27 0.000105489858897518 7.59878051033734e-29 0.000105582126243293)
(8.01200791672301e-05 -3.41995028766028e-06 1.42076932851384e-24 8.05596548501805e-05 7.14349583023806e-26 8.03313231242581e-05)
(3.77308299458887e-05 -9.80981522033289e-07 -2.94981865431249e-24 3.83478004468484e-05 5.85374561177998e-25 3.80495786520057e-05)
(1.24443715113101e-05 -5.01480911509848e-08 -1.14313257001015e-25 1.24194240944397e-05 -3.0327457993624e-27 1.24336920683859e-05)
(2.49871930222206e-06 -2.08255437936278e-10 -1.3623181802327e-25 2.45569216045755e-06 1.06872746912835e-25 2.47760890190093e-06)
(1.16542238172461e-06 -1.08157526893718e-09 -1.20775974879876e-25 1.14952378937507e-06 -6.90426731926837e-26 1.15755975176452e-06)
(8.65807239532465e-07 -1.0949073359561e-09 -8.38625133613871e-27 8.5796943788285e-07 5.5366250698617e-30 8.61935893004293e-07)
(4.08189552624051e-07 -5.4382170821677e-10 -1.56185296659226e-27 4.05390630502161e-07 1.71335116603251e-26 4.06803714874071e-07)
(1.65570365632122e-07 -2.01428714212343e-10 1.30281855950482e-26 1.64678049531574e-07 4.39334752942967e-27 1.65128356037528e-07)
(7.46239111637039e-08 -8.06208482613421e-11 -5.36475587201774e-28 7.42965318620628e-08 -2.44094860197339e-27 7.44614661610933e-08)
(4.32620374065264e-08 -4.20930500478286e-11 -4.11996070184307e-27 4.31002675874745e-08 -2.24311670126051e-27 4.31816743846644e-08)
(3.47702173031743e-08 -3.19637091471099e-11 4.61317831503887e-28 3.46507213627276e-08 -1.62426088873012e-29 3.47107885640268e-08)
(3.53197366644501e-08 -3.17250122544163e-11 -2.61637843310425e-27 3.52000045493251e-08 -2.16815835943182e-27 3.52601361596134e-08)
(4.01895438087083e-08 -3.6058258084408e-11 -2.97273012627099e-27 4.00498220859951e-08 -2.00145427398755e-27 4.01199348942883e-08)
(4.77276650661413e-08 -4.36227968988949e-11 -8.19092383261675e-28 4.75541237413723e-08 5.1763140666786e-29 4.76411656698037e-08)
(5.80484402627179e-08 -5.48106729316021e-11 1.26464492240556e-27 5.78246262244012e-08 -9.01528020875263e-29 5.79368558601421e-08)
(7.1913173900637e-08 -7.03655071320774e-11 9.00399850671144e-27 7.16178626813072e-08 3.83457222802017e-27 7.17659284678624e-08)
(8.98445739331166e-08 -9.06020751935543e-11 -1.91791518491501e-26 8.945336038772e-08 -1.24732103969193e-26 8.96495324878123e-08)
(1.12460859140258e-07 -1.15061496938262e-10 -2.47913401244142e-26 1.11948253312907e-07 -1.14143445799025e-26 1.12205337097524e-07)
(1.40390261304446e-07 -1.4146676785191e-10 -1.92555950478847e-27 1.39736013389869e-07 1.53432384970009e-27 1.4006422174411e-07)
(1.74587013650986e-07 -1.64850624356767e-10 5.71320012366122e-27 1.7378532852523e-07 -6.02830105933512e-28 1.74187423206734e-07)
(2.14597958964171e-07 -1.7493849107206e-10 8.11965852575403e-27 2.13670424935685e-07 -9.96216847319845e-28 2.14135303888271e-07)
(2.59002795769004e-07 -1.59292543992705e-10 -1.59121850731186e-26 2.5801106828807e-07 -1.29946308958004e-26 2.58507205413807e-07)
(3.06177181714589e-07 -1.06821133921093e-10 -1.31757966295019e-26 3.05237295000251e-07 1.55052130694253e-27 3.05705523341395e-07)
(3.52030922401474e-07 -1.32685318827455e-11 9.5639360281901e-26 3.51324527829466e-07 3.73440899671686e-26 3.51672510721755e-07)
(3.90181885795816e-07 1.07111163404049e-10 4.0900215070906e-26 3.89938578663339e-07 2.90612090378595e-26 3.9005007695819e-07)
(4.12416427113487e-07 2.12047200646441e-10 -7.7327925059789e-26 4.12850946808498e-07 1.07077667508272e-26 4.12618168034199e-07)
(4.10912204723143e-07 2.37747263461414e-10 -2.81078069404107e-26 4.12114755640458e-07 -9.07267463612927e-26 4.11494157919584e-07)
(3.8199784592949e-07 1.38262954151386e-10 -4.01724676443219e-27 3.83827670378076e-07 -2.90043730527611e-26 3.82892473012307e-07)
(3.2737082682153e-07 -6.41765854962278e-11 -9.45498994372617e-26 3.29439212081767e-07 1.28708851947412e-26 3.28387200286862e-07)
(2.58570890735866e-07 -2.77776560209797e-10 -4.19669739903637e-24 2.60408838069011e-07 6.21257559690777e-25 2.59477050654724e-07)
(1.93814965655313e-07 -4.12647361984335e-10 -9.8098224414774e-24 1.95138344380373e-07 -1.07962191885544e-23 1.94468234100927e-07)
(1.47432161467592e-07 -4.56469850310214e-10 -1.2937651402409e-24 1.48224058721414e-07 -1.16471219127842e-23 1.4782361283329e-07)
(1.25177551979385e-07 -4.67208941144087e-10 2.79968324194077e-24 1.25560898158313e-07 -2.90175479740364e-25 1.25366221371991e-07)
(1.25850289080212e-07 -4.71398532913057e-10 -1.00467081881167e-26 1.2590371147777e-07 2.12300556022802e-27 1.25875741284265e-07)
(1.56104954126246e-07 -5.22791396366782e-10 4.004373916736e-28 1.56075830949384e-07 1.70439174064962e-27 1.56089414584975e-07)
(2.04825094413929e-07 -6.02586370820609e-10 -3.23982117454013e-28 2.04757781503678e-07 -8.04020839656557e-28 2.04790795269651e-07)
(2.70551424302793e-07 -6.46302818523944e-10 7.78603601304036e-24 2.70417841610114e-07 -7.0322978524226e-25 2.70483259857145e-07)
(3.56685753728407e-07 -5.80602732598338e-10 9.27882289956944e-24 3.56420100598825e-07 3.5916306882424e-23 3.56552056154335e-07)
(4.70594255402291e-07 -2.73081394575076e-10 -1.41965177292563e-23 4.70095573631838e-07 5.10978464670723e-23 4.70343255321958e-07)
(6.19605759382493e-07 4.82097676819504e-10 -1.72676591573278e-23 6.18727931366387e-07 1.42570147224939e-24 6.19164822318925e-07)
(8.11053385445359e-07 2.00152829466714e-09 9.91865570715887e-28 8.09595420112629e-07 -5.63651038032014e-27 8.10321115332695e-07)
(1.05201722764755e-06 4.7078068547427e-09 1.87744245895786e-28 1.04972926786788e-06 2.5620552141496e-27 1.05086826463223e-06)
(1.34898843988498e-06 9.12524298946412e-09 -3.59424013386083e-27 1.34558713793896e-06 8.42453481991026e-27 1.3472798633397e-06)
(1.70663887527228e-06 1.58351108055676e-08 1.11943087562757e-27 1.70183791617522e-06 -2.9115822766273e-27 1.70422617518528e-06)
(2.12719447260935e-06 2.54171823598099e-08 -5.79433023743558e-23 2.12073916472345e-06 3.33843665642392e-24 2.12394839829954e-06)
(2.61040374682126e-06 3.83848866777081e-08 -8.46794337169727e-23 2.60210210846793e-06 -2.65669853996663e-22 2.60622618384614e-06)
(3.15373666620436e-06 5.51358536018792e-08 6.16370808449509e-23 3.14347691438101e-06 -3.32608287421426e-22 3.14856941736627e-06)
(3.75289384936601e-06 7.59268832953142e-08 9.80393312346416e-23 3.74064563379756e-06 -4.83275876919443e-24 3.74671954394538e-06)
(4.40250521709858e-06 1.00878061770288e-07 8.96107035714309e-27 4.38830570602447e-06 5.08910475068957e-29 4.39534052827778e-06)
(5.09686082677338e-06 1.29999619621369e-07 -3.28052749009186e-27 5.08079125668315e-06 -1.23781873650272e-26 5.08874491068985e-06)
(5.83055891249875e-06 1.63232308363341e-07 -1.36817582114695e-22 5.81271763231153e-06 4.51877612116841e-24 5.82153998141642e-06)
(6.59900491335859e-06 2.00491461317206e-07 -2.52109845599525e-22 6.57948192193095e-06 -6.23280963419469e-22 6.58912748607019e-06)
(7.39874902629126e-06 2.41707955588609e-07 5.20697714162449e-23 7.37760478623952e-06 -7.12940531476083e-22 7.38804325263886e-06)
(8.22768291649918e-06 2.86862499798229e-07 1.88613221139786e-22 8.20493232829966e-06 -4.65809201883967e-24 8.21615645565767e-06)
(9.08513281640627e-06 3.36012511551804e-07 4.48988412513783e-27 9.06073390911466e-06 -1.29311001258974e-27 9.07276506925484e-06)
(9.97188784169708e-06 3.89312519090726e-07 2.18648410600994e-27 9.94573412058047e-06 4.58314806723733e-28 9.9586260290404e-06)
(1.08901968366154e-05 4.47029796171983e-07 -3.52795853350466e-27 1.08621120948013e-05 -2.18869585324574e-28 1.08759533398726e-05)
(1.18437587147352e-05 5.09557045904411e-07 3.81719269834555e-27 1.18134932697331e-05 3.60637842952622e-27 1.18284091700184e-05)
(1.28377235894208e-05 5.774237316855e-07 -2.43528209338811e-27 1.28049511726315e-05 -3.57868409092712e-27 1.28211053577319e-05)
(1.3878716097359e-05 6.51307303168825e-07 -7.00439936043129e-28 1.38430309162398e-05 -3.8094171037014e-27 1.38606268806463e-05)
(1.49748885993584e-05 7.32045208449444e-07 7.46030555183018e-28 1.49358023664026e-05 -4.23097800189705e-27 1.49550851122421e-05)
(1.61360101815397e-05 8.20648266170937e-07 1.0977004456439e-27 1.6092949158499e-05 8.53959013697795e-27 1.61142069207346e-05)
(1.73735973722289e-05 9.18315706446328e-07 1.11523084965642e-26 1.73258997338184e-05 1.09161042871706e-27 1.73494656608586e-05)
(1.87010938729855e-05 1.02645195539389e-06 -2.1521495855871e-26 1.86480079896641e-05 -1.0227594232286e-27 1.86742615146367e-05)
(2.01341092362237e-05 1.14668500641144e-06 3.87231436332354e-27 2.00747938574358e-05 -2.25921968613844e-26 2.01041613179997e-05)
(2.16907304084853e-05 1.28088596012435e-06 2.50962646943155e-26 2.16242582619895e-05 2.52408203444697e-26 2.16572120774591e-05)
(2.33919256735237e-05 1.43118897665168e-06 -1.3535468956177e-26 2.3317292790993e-05 6.67767533821979e-28 2.33543481336932e-05)
(2.52620684264869e-05 1.60001040608074e-06 2.5939201810133e-26 2.5178212744587e-05 -5.08057848593053e-28 2.52199200574783e-05)
(2.73296191446457e-05 1.79006513065366e-06 -4.92548000319421e-26 2.72354538928004e-05 -6.31992152252142e-26 2.72823846695111e-05)
(2.96280200561713e-05 2.00437703836264e-06 1.51286137790367e-26 2.95224906115379e-05 6.48618727170233e-26 2.95752123309999e-05)
(3.2196883049995e-05 2.24627892308164e-06 7.47824040322984e-22 3.20790612384822e-05 3.69338589445756e-23 3.21380948146528e-05)
(3.50835969230911e-05 2.51939509356942e-06 3.18495870482782e-21 3.49528355695885e-05 4.05170587425177e-21 3.5018584416076e-05)
(3.83455636916962e-05 2.82759799118819e-06 3.54881346681007e-21 3.82017485201641e-05 8.81664771539967e-21 3.82743811335931e-05)
(4.20534509266997e-05 3.17492929403355e-06 2.16046368014596e-23 4.18974127150505e-05 4.8069363642234e-21 4.19766681544908e-05)
(4.62962786403136e-05 3.56548524519511e-06 -1.14190332388215e-21 4.613047934003e-05 -7.07098297785149e-23 4.6215342344609e-05)
(5.11901372378923e-05 4.00331281889333e-06 1.11046217231824e-25 5.10198221622178e-05 5.49598616006498e-27 5.1107973752528e-05)
(5.68944944622282e-05 4.49247282236506e-06 -4.0059705113298e-25 5.6729632363385e-05 -3.62233944599961e-25 5.68164946481101e-05)
(6.36460011552023e-05 5.03765139956602e-06 1.83733782978781e-21 6.3504821275352e-05 1.44050174211049e-22 6.35817982106663e-05)
(7.18376375520679e-05 5.64670649721658e-06 6.1608544726339e-21 7.1753798658783e-05 1.0813771348789e-20 7.1804902794781e-05)
(8.22319260145538e-05 6.34124895254131e-06 2.32629768629005e-21 8.22683453300941e-05 1.2343595796469e-20 8.22635590918602e-05)
(9.58261051539586e-05 7.13595161173876e-06 -3.05896035960792e-21 9.61006624050416e-05 -2.64990149657668e-22 9.5981377184668e-05)
(0.000111262422747279 7.82499917686416e-06 -0 0.000111991052245872 7.01932370711009e-25 0.000111649512200958)
(0.000126750167708521 8.13264219765461e-06 -5.73404868208684e-39 0.000128336021470317 1.0963751563471e-24 0.000127590893896718)
(0.000137230899245329 7.67397857099449e-06 -2.37746338858724e-24 0.00014019132546784 -2.53463358347851e-24 0.000138758246741302)
(0.000118848584159966 5.37480680113447e-06 1.65592273987421e-23 0.0001227453047781 -1.5067653739244e-24 0.000120736730319437)
(5.66151323641139e-05 1.73408673963235e-06 1.71368271235022e-23 5.90040988623174e-05 4.21492216453337e-23 5.78291696508608e-05)
(3.05804201878394e-05 6.23350910526613e-07 1.7871829811853e-23 3.19148902495565e-05 5.1788795531281e-24 3.12501441372389e-05)
(2.01418351094434e-05 2.66591485126797e-07 -6.83582303521255e-24 2.10392531460512e-05 -1.77562934817405e-24 2.05941757359226e-05)
(1.55568103745364e-05 1.29992776096461e-07 -2.30505685935739e-23 1.6263644961628e-05 1.16624698227995e-23 1.59129871288484e-05)
(1.41276794787868e-05 6.41965140517713e-08 7.75330865003401e-26 1.4788518407557e-05 1.16811687256122e-24 1.44606198415128e-05)
(1.40313735889455e-05 1.84695753718668e-08 -5.29446166165165e-24 1.4709562989514e-05 6.60598186122561e-24 1.43726266857315e-05)
(1.46628094912244e-05 -2.26683665854391e-08 8.79836034033106e-24 1.53949296962341e-05 -5.69773224325844e-24 1.50307252278798e-05)
(1.59608293897748e-05 -6.52486739958738e-08 -8.21095881733146e-24 1.6784323165494e-05 6.30652792417343e-24 1.63738542950524e-05)
(1.7862064590105e-05 -1.124946116505e-07 4.15270578377115e-24 1.88102368309588e-05 -8.53347105366364e-24 1.8336393074785e-05)
(2.02214422478576e-05 -1.64661386380565e-07 1.28744170636896e-25 2.13145973979407e-05 -1.12072315375864e-24 2.07668498844235e-05)
(2.2959664704789e-05 -2.20103702441636e-07 -6.86024131758136e-24 2.42095719135312e-05 9.15996283964139e-24 2.35816002555584e-05)
(2.60535698762753e-05 -2.76654452277651e-07 5.738251461797e-24 2.74664621682818e-05 -5.64064871384372e-24 2.67547612756515e-05)
(2.95344748900501e-05 -3.32327450364952e-07 -2.38379106935731e-24 3.11129081886364e-05 -3.15295680624553e-25 3.03158969596419e-05)
(3.34774921005117e-05 -3.85219325952163e-07 -2.61572147435539e-23 3.5219209585696e-05 9.46067711564685e-24 3.43376465952298e-05)
(3.74063544681421e-05 -4.27003686530185e-07 2.7998196193144e-24 3.92677882323877e-05 3.09698921537955e-25 3.83235617682082e-05)
(4.05450875657243e-05 -4.48192556667629e-07 -7.46285537224168e-24 4.24297177511924e-05 2.64952582749934e-24 4.14722161301021e-05)
(4.27585728114502e-05 -4.48283148751238e-07 7.76415211228605e-24 4.45740835207483e-05 -1.16263942585075e-23 4.36503882616695e-05)
(4.40953481519428e-05 -4.299087200683e-07 2.84141124559427e-23 4.57676452011226e-05 -2.22912637103643e-23 4.4915697241184e-05)
(4.46536661822849e-05 -3.96635439245152e-07 -1.37684405558328e-23 4.61307210342343e-05 5.97667724940044e-24 4.53772530741779e-05)
(4.45736501012961e-05 -3.52515435018693e-07 8.58096223298177e-24 4.58257600452914e-05 -3.78032942184271e-25 4.51861546909473e-05)
(4.40919678008494e-05 -3.02044874340901e-07 -1.8941225785472e-23 4.51109818081442e-05 9.85664639082346e-24 4.45895573109019e-05)