/*--------------------------------*- C++ -*----------------------------------*\
  =========                 |
  \\      /  F ield         | OpenFOAM: The Open Source CFD Toolbox
   \\    /   O peration     | Website:  https://openfoam.org
    \\  /    A nd           | Version:  7
     \\/     M anipulation  |
\*---------------------------------------------------------------------------*/
FoamFile
{
    version     2.0;
    format      ascii;
    class       volVectorField;
    location    "20000";
    object      U;
}
// * * * * * * * * * * * * * * * * * * * * * * * * * * * * * * * * * * * * * //

dimensions      [0 1 -1 0 0 0 0];

internalField   nonuniform List<vector> 
15600
(
(0.0312172257828418 -0.000153431561537189 2.69504992748786e-24)
(0.0352942204645166 -0.00218621999095004 5.58356367084515e-21)
(0.0155426332192304 -0.00437173590892367 2.9771467480918e-21)
(-0.0087605134779086 0.00405809732627417 -1.0258905216449e-22)
(-0.0110218004918143 0.00937252887718549 8.8324233479441e-23)
(-0.0067972212084342 0.00760066990070093 -2.40236559211546e-19)
(-0.00418319032151573 0.00546423973356972 3.1340925355253e-23)
(-0.00310425218146659 0.00441822193154858 -2.593836217725e-19)
(-0.00231181442733994 0.00351303575469376 2.71888046869777e-19)
(-0.00178126511127559 0.00282670809958042 2.84420552391411e-19)
(-0.00143552643625582 0.00234442627812708 4.9828556353084e-22)
(-0.00125745561337892 0.00207329092849665 0)
(-0.00118122133369777 0.00193306416684671 -1.15399869205111e-22)
(-0.00115363404647775 0.00186349124370342 -3.57110894850884e-19)
(-0.00115405038620843 0.00184061735799174 7.32269099710615e-22)
(-0.00117717849363517 0.00185308889400022 0)
(-0.0012100512168775 0.00188109792029476 4.15127320562749e-19)
(-0.00124130656051805 0.00190783619485283 4.34095495286319e-19)
(-0.001258290169567 0.00191466686749147 -1.77392334042337e-21)
(-0.00124300197022091 0.00187663610285117 1.83245155383784e-21)
(-0.00117294124412969 0.00176206093141867 3.82718148961932e-21)
(-0.00103705686538256 0.00154914717517854 -3.95220840464417e-21)
(-0.00083272883263636 0.00123586725619127 5.32723733620269e-19)
(-0.000553698926226754 0.000826155857620495 -4.30502281696717e-21)
(-0.000199434163802351 0.000337204106929182 5.82585159567314e-19)
(0.000219875609361564 -0.000194444679711671 1.20884541026649e-18)
(0.000679311307536329 -0.00071029869843987 0)
(0.00113998668742986 -0.00113617394054128 -6.81905334210124e-19)
(0.00155499496420686 -0.00140713574711432 7.31129202325461e-19)
(0.00187443056959729 -0.00148684183384967 -6.00224214927404e-21)
(0.00205897176289779 -0.00136968551222412 0)
(0.00211096571561139 -0.00110151956735727 -1.15190357510441e-16)
(0.00206445347512616 -0.000748775753622007 -1.37920070706043e-16)
(0.00202374474116286 -0.000389610741253849 9.54855708876336e-19)
(0.00206022962515556 -5.96608159815646e-05 -5.30082162293892e-20)
(0.00208073453325213 3.44963738371208e-06 7.57511586928662e-21)
(0.00203926916791425 3.37576221708668e-06 -7.57541417508375e-21)
(0.00195352482211741 6.68279375911415e-07 -2.76391886227912e-32)
(0.00181159638805236 -1.85257247711432e-07 1.63965515952023e-16)
(0.00156645911405684 -9.42216906859033e-07 1.69364787481319e-16)
(0.00120503477734205 -5.43281972581231e-07 0)
(0.000704465407667549 7.4974223688744e-07 0)
(5.61382001548445e-05 3.20225513634844e-06 -7.55597956182449e-21)
(-0.000742052649997452 6.57258579793179e-06 3.55840772629257e-23)
(-0.00167965622332304 1.06322125244508e-05 7.49096550034451e-21)
(-0.00273756021754738 1.50182021353748e-05 0)
(-0.00388980063452139 1.93774526314853e-05 -1.6560027834417e-16)
(-0.00510777103161253 2.33930622987323e-05 -1.67420897165901e-16)
(-0.00636349638572416 2.68434636182272e-05 0)
(-0.00763236537159167 2.96064584198451e-05 1.30230372481571e-32)
(-0.00889464831104767 3.16513308887538e-05 -2.58646650312006e-32)
(-0.010136067879566 3.30147936018586e-05 0)
(-0.0113476132773702 3.37765093858648e-05 -1.53333620711576e-16)
(-0.0125249276130272 3.40374058329301e-05 -1.54468098074269e-16)
(-0.0136675072504845 3.39040553953443e-05 -2.59425532036366e-24)
(-0.0147778890481968 3.34785154370663e-05 1.74602958227391e-21)
(-0.0158609189527515 3.28525556892348e-05 2.5452087969803e-32)
(-0.016923141566482 3.21047276160236e-05 1.27487178137114e-32)
(-0.0179723135393652 3.12990611275799e-05 0)
(-0.0190170252592067 3.04844786819557e-05 0)
(-0.0200664074486104 2.9694351761343e-05 -4.453818787029e-22)
(-0.0211298980938191 2.89458537806968e-05 4.44172086952786e-22)
(-0.0222170470868202 2.82389358318959e-05 0)
(-0.0233373391542436 2.75548489334987e-05 -2.63856466468605e-32)
(-0.0245000186249368 2.68541807943811e-05 0)
(-0.0257139017407407 2.60743942880192e-05 0)
(-0.0269871633431841 2.51268660522191e-05 0)
(-0.0283270847399898 2.38934473212406e-05 3.83267237541121e-21)
(-0.0297397474868538 2.22225274565965e-05 -3.81890003680602e-21)
(-0.0312296524592863 1.99245211585612e-05 2.85279867743153e-32)
(-0.0327992351890177 1.67667418673053e-05 0)
(-0.0344482354663086 1.24676749726644e-05 0)
(-0.0361728469239496 6.68960124886614e-06 1.85035991932725e-16)
(-0.0379645209111044 -9.71610555270392e-07 3.76447462145496e-16)
(-0.0398083002116591 -1.09936853456729e-05 1.91743673247773e-16)
(-0.0416804692354967 -2.39356607505858e-05 -3.32537881547679e-32)
(-0.0435445671662305 -4.04978455982747e-05 0)
(-0.0453447761411972 -6.15661427254558e-05 -1.01259339763158e-20)
(-0.0469993355605587 -8.78932786192359e-05 1.00888116691545e-20)
(-0.0483898143079079 -0.000120130703938061 2.41564778373661e-16)
(-0.0493081295476406 -0.00016136475985549 2.47333146796949e-16)
(-0.0493849653360421 -0.000216731934149946 0)
(-0.0482179346223197 -0.000277785375115967 0)
(-0.0452199082468485 -0.000329499615752907 1.41813654442147e-20)
(-0.0377517623359124 -0.000513804426802633 -1.43398658407115e-20)
(-0.0234695775469087 -0.00142873290251327 -1.5867590070312e-19)
(-0.011202249543035 -0.00245288929893377 1.08477508256253e-18)
(-0.00784843276480367 -0.00325135813933889 0)
(-0.00621833379897223 -0.00377855685944218 1.93091420612657e-18)
(-0.0058956175847365 -0.00462036382511334 1.42277113074337e-20)
(-0.00617301223521189 -0.00578318068829434 -1.67699558564787e-18)
(-0.00678986578326509 -0.0072707805342587 1.56107189615148e-18)
(-0.00768618168002204 -0.00910225793976947 -1.44565170950983e-18)
(-0.00888590860931507 -0.0112883089278756 1.33613470710439e-18)
(-0.0102542579135768 -0.0136521320049514 9.8767455791818e-21)
(-0.0116288979810693 -0.0159791846119739 -1.20211316005321e-18)
(-0.0129230918219056 -0.0181247465281579 -7.74832893620662e-21)
(-0.0140851811880304 -0.0199853640655549 -1.13248165574787e-18)
(-0.0150924637783911 -0.0214909758418473 -8.74178568413805e-21)
(-0.0158727266897076 -0.0225324159446474 1.1466390857194e-18)
(-0.0162492983418066 -0.0229559803735776 -4.69408918036683e-21)
(-0.0161219307782147 -0.0227526156925733 -1.19105758160639e-18)
(-0.0155888501063661 -0.0220537165726568 -1.22235856147024e-18)
(-0.0147265506460073 -0.0209430130242929 -1.25766936070653e-18)
(-0.0135999281761238 -0.0194866480388791 0)
(-0.0122679008430816 -0.0177394655813165 1.28999253155419e-18)
(-0.0107749080348528 -0.0157445243868971 0)
(-0.00919949849802035 -0.0135716034077271 1.2937855480936e-18)
(-0.00760436226028412 -0.0112357351420909 -1.2908885927273e-18)
(-0.00588664516252434 -0.0085469438104244 1.28903545475035e-18)
(-0.00379280523577232 -0.00524147829981323 -6.40743997526473e-22)
(-0.000864473226084775 -0.000896767395996316 1.30533842658634e-18)
(0.00348835306350061 0.00494347851076203 -1.30319341284246e-18)
(0.0111910688369294 0.0136676171065264 1.59316290597745e-22)
(0.0255453613503637 0.0265623378919026 -1.20697626712824e-18)
(0.0562430397138967 0.0452538754997147 9.96559727927024e-19)
(0.100931333528217 0.0529267661767521 0)
(0.112800882272995 0.0294182651662678 4.02999077505508e-22)
(0.0691273289886997 0.00464623900832323 -6.42983425120208e-23)
(0.0329664472658119 2.02803568377221e-05 6.61752623699838e-23)
(0.104462515295436 -0.000121651566714115 0)
(0.107167544908364 -0.00531149866783716 3.56256560376802e-22)
(0.0591488958749241 -0.0118559377362406 -5.55622132713048e-21)
(-0.00983146593821184 0.00843037754802873 0)
(-0.0270707071896478 0.0253055926680316 3.27023443451699e-19)
(-0.0191102620790137 0.0220363635703961 3.66417012966844e-19)
(-0.0120708038007202 0.0162308006175932 -1.77745824669363e-22)
(-0.00888732860678474 0.0131725808885955 7.96359340921449e-19)
(-0.00671232491133306 0.010570693282223 -4.99725002583221e-23)
(-0.00522726705780489 0.00855091135893929 -8.77412381730329e-19)
(-0.00424239363094491 0.00710497231812354 6.73692617982633e-22)
(-0.00371202328035931 0.00626977046248896 -9.57549564661868e-22)
(-0.00348193438956799 0.0058317274186728 -5.17104204315654e-19)
(-0.00340153693708624 0.00561128782818944 -5.47858921059332e-19)
(-0.00340188985984974 0.00553219885847255 -1.12719566687157e-21)
(-0.0034646591006234 0.00555923645309092 0)
(-0.00355692371789743 0.00563538132356229 -6.40639825719342e-19)
(-0.00364651443944921 0.00571060596389788 -6.61163366863293e-19)
(-0.00369999244555172 0.0057312427016842 -2.70313619045729e-21)
(-0.00367199951697214 0.00562765896989387 7.27207459613672e-19)
(-0.00350777726650844 0.00531279890837593 -5.82639926276896e-21)
(-0.00318046218630519 0.00472366041944916 0)
(-0.00268336312144279 0.00385057458684887 -8.09314350581914e-19)
(-0.00200017471341428 0.00270288209387249 0)
(-0.00112308592250475 0.00132474472685457 -6.91908588149361e-21)
(-6.46302601742132e-05 -0.000188624423002631 -1.85213590348154e-18)
(0.00113214526046272 -0.00168252491337433 7.62287338998025e-21)
(0.00238798973579315 -0.00295287235278368 1.02174719994323e-18)
(0.00359131300669841 -0.00380863487820062 -2.17480865243208e-18)
(0.0046066727527371 -0.00413044354289638 -9.07256710009628e-21)
(0.00530316567228505 -0.00388089612571498 1.23507245636896e-18)
(0.00563252736814306 -0.00316713684587426 1.83200598791884e-16)
(0.00563580946987993 -0.00217555160725788 1.97512317883594e-16)
(0.00555396761228764 -0.0011436615631998 -7.09896340691641e-19)
(0.00551902175962517 -0.000183870703854334 3.25059695231743e-23)
(0.00536735766733752 9.69588581540601e-06 2.77100109456163e-23)
(0.00507765753181611 2.98319701124341e-05 -2.27639552804767e-20)
(0.00462566241542678 4.70492110562074e-05 1.14086611609999e-20)
(0.00396146211880866 8.06888344676804e-05 -2.55014773904434e-16)
(0.00296431198935625 0.000122469425271635 -2.47327660052167e-16)
(0.00159614003195908 0.000172715865164104 -1.1522503715221e-20)
(-0.000193650914914918 0.000228151395382188 1.14741926382584e-20)
(-0.00241325208487557 0.000285871843384092 -2.27244003401957e-20)
(-0.00504723247532343 0.000341538965399588 1.12025391723014e-20)
(-0.00804598166599563 0.000391284023253237 -1.99594550871635e-32)
(-0.0113385345147819 0.000432010632857036 5.36453403539549e-21)
(-0.0148407552670289 0.000461986658720136 2.42575375506399e-16)
(-0.0184676495026015 0.000480877439813293 2.32882957892209e-16)
(-0.0221420868189475 0.000489553870149366 1.01350159146205e-20)
(-0.025800857393392 0.000489687996928329 -4.9853388844292e-21)
(-0.0293971011701152 0.000483340115503038 -4.88304494517085e-21)
(-0.0329002094391061 0.000472615687468606 4.82107790969545e-21)
(-0.0362940378453859 0.000459441220121691 2.09244716608915e-16)
(-0.0395743807852555 0.000445449681536825 2.04461725146659e-16)
(-0.0427463150539205 0.00043194914210274 2.32444615260312e-21)
(-0.0458217866088061 0.00041994200413726 6.20142574795263e-24)
(-0.048817592498451 0.000410168704906821 -2.28187214630869e-21)
(-0.0517537817742434 0.000403157871094908 1.13951218047738e-21)
(-0.0546524257203571 0.000399272747552347 -1.12814436641432e-21)
(-0.0575366796994452 0.000398749158259344 0)
(-0.0604300539702412 0.000401723640799907 5.6519519975064e-22)
(-0.0633558182135378 0.000408252154805192 -5.59542177863269e-22)
(-0.0663364760880416 0.000418320554564275 1.13037820423471e-21)
(-0.0693932580069492 0.000431848147345128 -3.38278885996213e-21)
(-0.0725455899540988 0.000448685424977354 2.24004832601016e-21)
(-0.0758105027726978 0.000468606692233514 2.27805948058933e-21)
(-0.0792019498209155 0.000491297893616172 -4.54141492407537e-21)
(-0.0827300007527793 0.000516339416785195 2.26244184552782e-21)
(-0.086399873716778 0.000543182714100115 -4.6419973375195e-21)
(-0.0902107554502505 0.000571118403554533 4.58502256313592e-21)
(-0.0941543377323158 0.000599231987135524 0)
(-0.0982129628882638 0.000626340353817076 0)
(-0.102357204585109 0.000650896370909974 -2.08691449790429e-16)
(-0.106542626887622 0.000670845693691369 -4.29318807657283e-16)
(-0.110705390171597 0.000683416284151644 -2.21903638080164e-16)
(-0.114756048000949 0.000684765942158076 1.00871896904183e-20)
(-0.118570138376354 0.000669374392237196 -1.08348537552679e-20)
(-0.121974752106079 0.00062931624470416 2.19832821204535e-20)
(-0.124731292897412 0.000553136065592452 -1.11708291611747e-20)
(-0.126501683169689 0.000421210238601629 -2.59046122309945e-16)
(-0.12677132923578 0.000196098180045347 -2.8302209551401e-16)
(-0.124786130780684 -0.00017801837975423 0)
(-0.119588265328449 -0.000761355065975014 0)
(-0.109499357557315 -0.00170069424660024 0)
(-0.0908377966505346 -0.00356590689710799 0)
(-0.0622828817975853 -0.00715461819432667 1.47053335231645e-19)
(-0.03699565985589 -0.0100136044236214 -1.31828810770254e-18)
(-0.0282508427592059 -0.0119475921358405 -2.80962054032278e-18)
(-0.0239192708396505 -0.0137584596223747 -5.44037413063654e-18)
(-0.0229174243069801 -0.0164644334586854 2.57231111488167e-18)
(-0.0235018968520826 -0.020099346808265 2.38417417573952e-18)
(-0.0250009022162863 -0.0246325557528776 -3.27693862556487e-21)
(-0.0271732036271719 -0.0300467878191379 1.58959044511911e-20)
(-0.0299168569509049 -0.0362555433070512 -1.91984421865229e-18)
(-0.0328508694808187 -0.0427366765778115 1.79642528492544e-18)
(-0.0356171125296743 -0.0489303226196501 1.73274326840683e-18)
(-0.0380576104964737 -0.0544780009600819 -1.67904243512018e-18)
(-0.0400936970228663 -0.0591312746577401 0)
(-0.0416711352320433 -0.0627053738927447 1.31144260846194e-20)
(-0.0426240920387297 -0.0649310832035383 1.67122082271562e-18)
(-0.0426366749324755 -0.0655018167795164 -1.29910800770136e-20)
(-0.0415586852856542 -0.064471089705178 0)
(-0.0396115553199743 -0.062169451068473 1.79396567047262e-18)
(-0.0369539381819326 -0.0587963793084618 1.85026993501001e-18)
(-0.0337257301110324 -0.0545129027695386 1.89214902417214e-18)
(-0.0300519871453189 -0.0494499631516946 -1.92317248730347e-18)
(-0.0260403442777556 -0.0437174249561348 3.91084023761716e-21)
(-0.0218426097899345 -0.0374643651952944 -3.74926794897412e-21)
(-0.0175332981854785 -0.0306560087442543 1.96368441286986e-18)
(-0.0128456214497951 -0.0227482411956472 0)
(-0.00713460131455207 -0.0130246653552309 -9.84629129888571e-22)
(0.000702151946367959 -0.000375271121334063 -1.99867324542255e-18)
(0.0122242686867406 0.016416202838035 3.33681713219193e-21)
(0.0318758852460996 0.0406281110256826 0)
(0.0669226355150529 0.074316968836368 3.43657003182191e-18)
(0.135045844858926 0.117577462075351 -1.33409568745737e-18)
(0.23018776342799 0.132209996741914 -4.91803176249196e-22)
(0.274793183228311 0.0811748066728731 1.2269874197297e-19)
(0.206923647526196 0.0203144434640048 5.84655558532146e-20)
(0.124376311321153 0.00271790342597743 0)
(0.189931159886978 0.00137173268526671 0)
(0.183142035052075 -0.00702818887042511 6.46915590227227e-22)
(0.114262634548091 -0.0189501813574962 -2.45830753417553e-21)
(0.00430370048632837 0.00645918261047303 0)
(-0.0378747158401237 0.0366806050531393 -6.23664080652574e-21)
(-0.0309054131517591 0.034855594388931 3.66722469617371e-19)
(-0.0201902486591686 0.0263957414519125 4.88848492777343e-23)
(-0.0148636125568149 0.02155717885285 -4.10580377532178e-19)
(-0.0113214907412079 0.0174835785593613 0)
(-0.00886967780601823 0.0142473464450634 4.54604095500202e-19)
(-0.00720857875791896 0.0118902782787056 4.79926818789619e-19)
(-0.00627942292687729 0.0104969637119428 -9.81997685132192e-22)
(-0.00586191356854185 0.00975841441905161 5.37480295958567e-19)
(-0.0057095120555869 0.00938583997682452 3.13363544546097e-22)
(-0.00569654738576425 0.00924778209989897 0)
(-0.00578824682359363 0.00928304591367477 0)
(-0.00593367407432868 0.00940063284797261 -2.59042044264154e-21)
(-0.00608036578057819 0.00951833076475569 1.38001495212911e-18)
(-0.00617624898942021 0.00954998017934175 7.21206367146623e-19)
(-0.00615273358997866 0.00938752108949612 -6.11995910710658e-21)
(-0.00592777820954386 0.00889962811165873 6.02416326766052e-21)
(-0.00545916320847711 0.00798941180259977 0)
(-0.00473632774540062 0.00663960871738734 8.42316096573722e-19)
(-0.0037356832315176 0.0048651698329304 -6.80456902302159e-21)
(-0.0024423308928165 0.00273148193290333 0)
(-0.000866573776273391 0.000377341842303419 9.68821811907462e-19)
(0.000942427158282653 -0.00197245730064077 -1.57866467372361e-20)
(0.00288319676475362 -0.00401454488821923 8.31017954610612e-21)
(0.00480069156010387 -0.00545161405758444 1.12115430514738e-18)
(0.00649728537698538 -0.00608356744484687 -1.8545906408515e-20)
(0.00775779845913415 -0.00582477604804184 -1.24220123067378e-18)
(0.00845492137589444 -0.00480545765886394 0)
(0.00858629404796538 -0.00330448737604977 -1.41634801184332e-18)
(0.00846518361317935 -0.00171238715118689 7.23060790814937e-19)
(0.00823448189735344 -0.000224581287316842 -6.94037051504001e-20)
(0.00773109834527807 8.31608200555974e-05 -1.15648582362176e-20)
(0.00701689181374118 0.000143134871182303 0)
(0.00597585454305444 0.00020998422388475 -1.1681298645408e-20)
(0.00451851460837326 0.00031974488103231 1.17247713795927e-20)
(0.00246699750150388 0.000453817803967591 1.17844815842706e-20)
(-0.000234309471835884 0.000608433319693994 -1.17741854652494e-20)
(-0.00364328681541644 0.000773373105040081 1.15494415591347e-20)
(-0.00774454689183376 0.000938077156376288 -1.12984591776159e-20)
(-0.0124794403896286 0.00109014613218258 -1.09382776468829e-20)
(-0.0177380432601701 0.00121916586764455 1.06681869653613e-20)
(-0.0233832269218863 0.00131802861875519 0)
(-0.0292676600886293 0.00138394437766647 4.98746708247952e-21)
(-0.0352533723271586 0.00141812036402363 -4.86731821676034e-21)
(-0.0412239286745618 0.00142475978120578 -4.70576015427914e-21)
(-0.0470909591661376 0.00140974167135526 1.91532500260446e-23)
(-0.0527949215698173 0.00137943933657083 4.48841730392684e-21)
(-0.0583023771327844 0.0013398681137507 -4.37705563956002e-21)
(-0.0636014272135107 0.00129620734147623 4.29599200217174e-21)
(-0.0686967444863236 0.00125262311278972 -2.10871515956324e-21)
(-0.0736049831453925 0.00121228951499434 -3.06027219759441e-24)
(-0.0783509426061939 0.00117751315978321 2.04285952600324e-21)
(-0.0829645503070907 0.00114989345166542 0)
(-0.0874785779310356 0.00113047781565768 0)
(-0.0919269391559097 0.00111989209822155 -4.96395391103946e-22)
(-0.0963434083930822 0.00111843949125612 4.89013280091834e-22)
(-0.100760615690079 0.00112616850517888 0)
(-0.1052091982328 0.00114291368801614 9.73420744882368e-22)
(-0.109717014391288 0.00116831373044371 -9.58769678318615e-22)
(-0.114308348389282 0.00120181120870889 0)
(-0.119003050622488 0.00124263718364321 0)
(-0.123815570431211 0.00128978266403574 1.92425882436764e-21)
(-0.128753845132594 0.00134195760925165 -1.89334006765943e-21)
(-0.133818011055903 0.00139753651027521 3.85346926568018e-21)
(-0.138998897682645 0.00145448707627671 -3.78964046786271e-21)
(-0.144276252986731 0.00151027531408523 3.88407788322977e-21)
(-0.149616625674053 0.00156173581121145 -3.81887583224046e-21)
(-0.154970792897065 0.0016048891268237 0)
(-0.160270560848954 0.00163467675639552 4.0014091905617e-21)
(-0.165424689805422 0.00164456998931248 -3.937323615898e-21)
(-0.170313607003949 0.00162599116567539 -8.3016631852669e-21)
(-0.174782302149925 0.00156742858490926 8.18392949190654e-21)
(-0.178630323438702 0.00145301699732651 0)
(-0.181598115290577 0.00126024089864438 0)
(-0.183348927287771 0.000956042659229016 0)
(-0.183437356902541 0.000490109121480846 0)
(-0.181254765801818 -0.000215593712732817 0)
(-0.176026090287741 -0.00128388892441535 1.09786573475383e-20)
(-0.166775755804744 -0.00287769428569728 -1.08748346312666e-20)
(-0.151933811272531 -0.00522314016164173 0)
(-0.128656508116983 -0.00897644473753059 1.28823947733859e-20)
(-0.0963939085434459 -0.0149246141947878 -1.25907793911325e-19)
(-0.0666020065338146 -0.0199855215020935 2.7970242999134e-21)
(-0.0535780430779075 -0.023579728287558 4.41526508673353e-21)
(-0.0468088578884064 -0.0272572782326362 2.46450176338648e-18)
(-0.0447779585980446 -0.0321311491158669 -2.35570971639151e-18)
(-0.0451680065294097 -0.0383395303702116 -2.23624019108471e-18)
(-0.0469865511252526 -0.0458080365902758 -3.65334811931617e-20)
(-0.0497775753798567 -0.0543975304838405 1.50021636616644e-20)
(-0.0532720658810516 -0.0638264691652287 -1.41369034053604e-20)
(-0.0569039774963181 -0.0733018083946353 1.72110115111092e-18)
(-0.0601997747739681 -0.0820548296945306 -1.65391549023062e-18)
(-0.0629693305776127 -0.0896169820374307 -1.60347002877063e-18)
(-0.065114972952236 -0.0956712599960091 0)
(-0.0665417816464674 -0.0999669985491359 0)
(-0.0670136748745012 -0.102179917548473 -1.61378578171941e-18)
(-0.0661617691445436 -0.102031546361509 -6.66107316201084e-21)
(-0.0638522375006057 -0.0996968554912585 -1.70790818569803e-18)
(-0.0603827453862914 -0.0956095479068776 7.09831988055737e-21)
(-0.0559528943820084 -0.0900198893928884 1.82157965059804e-18)
(-0.0507444914874845 -0.083132128536351 -1.87140487880916e-18)
(-0.0449201358219008 -0.0751077824501791 1.92258610640226e-18)
(-0.038623429820447 -0.0660862715219371 -1.96379828520848e-18)
(-0.0320338611823258 -0.0562135584232386 -1.98635938780185e-18)
(-0.0251634445439688 -0.0453305249765081 -2.00369455232441e-18)
(-0.0175569767324885 -0.032611225186977 2.00166634357834e-21)
(-0.00822526010043635 -0.0170341070404821 2.03341719834964e-18)
(0.00448365176315432 0.00291539288226644 0)
(0.0229457602767765 0.0288523563391347 1.9634384555286e-18)
(0.0533095188306549 0.0644843914033513 0)
(0.104473391902808 0.110386840340264 -1.5604755861616e-18)
(0.193872346803453 0.160486029872766 0)
(0.309122374781091 0.170824206541732 0)
(0.377931109850228 0.112311437435108 0)
(0.325126280213384 0.0371426675262004 -4.84702844981753e-20)
(0.229593142475513 0.00851862797166057 0)
(0.276477918535165 0.00445738410579232 0)
(0.260075587128848 -0.00695426139993349 -3.73848612011872e-21)
(0.177759892922657 -0.0247959628437687 -4.03963875692514e-21)
(0.033794197813437 -0.000362925720915254 5.20439796549899e-23)
(-0.0415015421841046 0.0433483849288624 -3.31640406610021e-19)
(-0.041385459882009 0.0458394426321692 -4.07236041913829e-21)
(-0.0282860422278694 0.0358358177880029 0)
(-0.0208985777725394 0.0295167149109777 -1.04884052077541e-22)
(-0.016049602965058 0.0242059874150121 1.06152574065322e-22)
(-0.0126540694842768 0.0198869591523558 0)
(-0.0103032350929117 0.0166816554493171 0)
(-0.00893918706017866 0.0147445830186 5.24653563017917e-19)
(-0.00830384936062889 0.0137066752928994 -5.5917369083932e-19)
(-0.00806184350830299 0.0131823106608639 5.92309571561234e-19)
(-0.00802366561891549 0.0129837073736155 0)
(-0.00813382001788223 0.0130221447779223 -2.56260957651733e-21)
(-0.00832544275894583 0.0131753142849724 2.66273979444089e-21)
(-0.00852684148426884 0.013330184290615 -1.42717250686539e-18)
(-0.00866954409453663 0.0133706141084937 -7.42794977774491e-19)
(-0.00866631211830228 0.0131557103122975 -7.77706558516043e-19)
(-0.00841375591067874 0.0125199464789314 1.24797843203096e-20)
(-0.00785676571379273 0.0113400885634563 -1.29349329664955e-20)
(-0.00698180190197827 0.00959246021311733 -8.54381824641583e-19)
(-0.0057609748882208 0.00729798495832834 -8.98098959545445e-19)
(-0.00417309757856745 0.00453887209995199 0)
(-0.00222250658256317 0.00148491064741578 0)
(4.59216443235681e-05 -0.00159111032358492 -8.11484997349339e-21)
(0.00252763585663678 -0.00431723837360869 8.54670271907735e-21)
(0.00504725611294666 -0.00631252696728262 1.15030016350876e-18)
(0.0073726923003843 -0.00730522943406 0)
(0.0092215180041679 -0.00715190759464451 -1.28896304552368e-18)
(0.0103700413696681 -0.00597083938993138 1.39199367579699e-18)
(0.0107211604424343 -0.00410023801005054 -4.55015572667796e-20)
(0.0105890188150468 -0.00206703321844511 7.71573817806328e-19)
(0.0100662706181675 -0.000152193235357628 9.4236149128979e-20)
(0.00903160340780892 0.000257651367667904 -1.18217935093789e-20)
(0.00769457873961967 0.000387511667534991 1.18531955311904e-20)
(0.00580844770417301 0.000548282178128159 0)
(0.00325339712585268 0.00078915505281528 0)
(-0.000187597852961869 0.00107739781576673 -1.19487769833745e-20)
(-0.00456993637313262 0.00139984959700137 2.33323097088971e-20)
(-0.00992889453288454 0.00173389465853091 -2.25057312048853e-20)
(-0.016193989974031 0.00205574654797939 4.13947766963386e-23)
(-0.0232321864661331 0.0023409824110233 2.07270203008987e-20)
(-0.0308509035523461 0.00257070398875272 -5.27657913094544e-23)
(-0.038835923387175 0.00273424746760797 -9.53129004694368e-21)
(-0.0469781205086645 0.00283001652035736 -9.08852435850994e-21)
(-0.0550975952976752 0.00286400235219863 8.78242869499058e-21)
(-0.0630555387621936 0.00284715492868968 0)
(-0.0707573378100928 0.00279258908472693 0)
(-0.0781487183401964 0.00271336066491697 -3.94036437944948e-21)
(-0.085208576830311 0.00262106151896272 -2.25362076810387e-16)
(-0.091940843726729 0.00252517371961445 -2.22502765286059e-16)
(-0.0983669722387283 0.00243296539800894 -1.8226949968137e-21)
(-0.104519710487177 0.00234969884831352 1.78212070597991e-21)
(-0.110438300252372 0.00227897013254535 1.75130873334488e-21)
(-0.116164940622843 0.00222306535565109 -2.57593917759411e-21)
(-0.121742249734556 0.00218327299105417 8.4351148584063e-22)
(-0.127211445554847 0.00216012871451134 -4.18082334976172e-22)
(-0.132611003788337 0.0021535901547407 4.0991029039884e-22)
(-0.137975600750713 0.00216314892190056 0)
(-0.143335197861639 0.00218789065554945 0)
(-0.148714165746368 0.00222651389791884 8.0129278454179e-22)
(-0.154130378846919 0.00227731693548289 -7.85620125414235e-22)
(-0.159594236176601 0.00233815942551408 1.57938936993204e-21)
(-0.165107581891762 0.00240640328738867 2.27360844043112e-23)
(-0.170662511973608 0.0024788349543958 -1.53908410220855e-21)
(-0.176240060824644 0.00255156834069097 1.84269346454786e-16)
(-0.1818087632054 0.00261992396871121 1.81400886561442e-16)
(-0.187323081719282 0.00267827482821087 0)
(-0.192721678050843 0.00271984302129793 0)
(-0.197925484753859 0.00273642212795995 3.14762610327106e-21)
(-0.202835498215131 0.00271798545560302 -3.08360332697039e-21)
(-0.207330169945281 0.00265211808850575 0)
(-0.211262228720973 0.00252318499659332 6.52998142607107e-21)
(-0.214454603299017 0.00231109443049396 -1.30676357456749e-20)
(-0.216694801677272 0.00198936647056934 1.33662351440138e-20)
(-0.217727452924007 0.00152203419703844 -6.71024685642214e-21)
(-0.217245491496883 0.000859326208891017 0)
(-0.214877972339306 -6.70153393135834e-05 0)
(-0.210183056167666 -0.00135619302879787 0)
(-0.202604737707734 -0.00317430561493036 -7.95756935142416e-21)
(-0.191459486439642 -0.00574957877162424 1.59038723613487e-20)
(-0.175719415112749 -0.00933121143967857 -8.00025731918039e-21)
(-0.153405681910227 -0.0145617568535597 0)
(-0.12407750676492 -0.0224787228761943 0)
(-0.0964415173877514 -0.0306348836175895 3.56475543379478e-21)
(-0.0817246436896581 -0.0369925226916885 3.8273170317166e-18)
(-0.0734561362790261 -0.043281660676285 2.04147466408745e-18)
(-0.0703305687354688 -0.0506276905055462 2.05438258184087e-18)
(-0.0700552099556188 -0.0593498055363496 -1.92814102345017e-18)
(-0.0715142586758685 -0.0693658000775475 -3.37927390903262e-20)
(-0.0740735580424022 -0.08038900494559 0)
(-0.077327861518346 -0.091938410805584 1.62126938940649e-18)
(-0.0806220732453532 -0.103077155942672 -3.09227465182677e-18)
(-0.0834515113886082 -0.112976223329531 -1.4939881334936e-18)
(-0.0856270407711333 -0.121153076738976 1.47363687984127e-18)
(-0.0870396991835718 -0.127289314561816 -1.12256533452891e-20)
(-0.0875631984470041 -0.1311329023537 1.16709509267048e-20)
(-0.0869380895563424 -0.132409908899014 -1.49462050969665e-18)
(-0.0848277436364968 -0.13098493283406 0)
(-0.0811440135811897 -0.127150580215247 3.12100828071561e-18)
(-0.0761970458714984 -0.121345618649989 -1.61447653745643e-18)
(-0.070181010045789 -0.113809528827519 -3.37644941615394e-18)
(-0.0632802101931371 -0.104736783894406 1.76134004910004e-18)
(-0.0556596339729004 -0.0942734594812235 -1.81142359084629e-18)
(-0.0474619234292105 -0.0825392274233845 3.72562514195396e-18)
(-0.038841405771002 -0.0696092206776489 1.8947898728722e-18)
(-0.0296884218937754 -0.0551627225098338 3.8638025645673e-18)
(-0.0193692748203287 -0.0381849526248273 0)
(-0.00663411653456467 -0.0175193417607726 -1.95478983728297e-18)
(0.0105629731097694 0.00847177345809318 -1.90857242188193e-18)
(0.0351397684325741 0.0413603907167433 0)
(0.0738589989747332 0.0839716575164466 -7.23101952061614e-22)
(0.13501466234166 0.133992313217223 -1.20261031427105e-18)
(0.23125802840131 0.179105464876156 -4.3518382560412e-22)
(0.346820930423967 0.180151357657833 0)
(0.424689943706684 0.122214691022662 4.49813907453668e-20)
(0.402728501073523 0.0488571115721984 0)
(0.323222841702009 0.0154943609684435 0)
(0.345355420998398 0.00794961469234956 -4.60744399855259e-24)
(0.326407765729433 -0.00527058917834775 -4.51324580536589e-21)
(0.242943997429966 -0.0284545812128065 8.26567235851018e-21)
(0.0765410388519151 -0.0100841812816841 1.58492976115025e-19)
(-0.0359366485662688 0.0447707472939392 0)
(-0.0496081146246922 0.0546788605116642 -4.43713186719978e-21)
(-0.0360852576632869 0.0443922315127696 2.36521820871339e-22)
(-0.0268878330753514 0.0369633295798904 -4.27575269087796e-19)
(-0.020829560346329 0.0306751631068776 -2.26538779903498e-22)
(-0.0165416770460404 0.0254291037152545 -4.83093849075977e-19)
(-0.0135061627792941 0.0214519972696611 0)
(-0.0116800335199302 0.0189947387976241 -5.44061619906474e-19)
(-0.0107984636967924 0.0176635647752144 0)