/*--------------------------------*- C++ -*----------------------------------*\
  =========                 |
  \\      /  F ield         | OpenFOAM: The Open Source CFD Toolbox
   \\    /   O peration     | Website:  https://openfoam.org
    \\  /    A nd           | Version:  7
     \\/     M anipulation  |
\*---------------------------------------------------------------------------*/
FoamFile
{
    version     2.0;
    format      ascii;
    class       volScalarField;
    location    "20000";
    object      Dk;
}
// * * * * * * * * * * * * * * * * * * * * * * * * * * * * * * * * * * * * * //

dimensions      [0 2 -3 0 0 0 0];

internalField   nonuniform List<scalar> 
15600
(
0.000694828922815962
0.000626696751499166
0.000373930728499534
0.000166360560539081
5.22058300479233e-05
2.87221275944321e-05
2.61458706942239e-05
1.54482398984253e-05
8.04153181244633e-06
4.81607367813695e-06
3.1683617652479e-06
2.43919115660701e-06
2.26478050608469e-06
2.39422360299479e-06
2.76646057201258e-06
3.38451293913163e-06
4.24774516887722e-06
5.30682944545865e-06
6.53163990504408e-06
7.84890232967077e-06
9.1345769844381e-06
1.02715831991813e-05
1.1276243762198e-05
1.21454639205059e-05
1.27535062442182e-05
1.31447521901109e-05
1.37180679732381e-05
1.5520198760711e-05
2.09078794683147e-05
2.8988610098265e-05
3.77548068755224e-05
4.70531042324392e-05
5.66519313563639e-05
6.64271025419546e-05
7.6278825202145e-05
8.61628458984489e-05
9.60410896569637e-05
0.000105892949469042
0.0001156975217244
0.000125437157661209
0.000135092322416484
0.000144643920567249
0.000154074005495918
0.000163368155171961
0.00017251554920483
0.000181520800839517
0.000190395374238761
0.000199126282950422
0.000207591251300247
0.000215683891761713
0.000223363977628153
0.000230604614685988
0.000237381806345468
0.000243675029329579
0.000249467581790148
0.000254746475580092
0.000259502665344102
0.000263730880944959
0.000267429278472219
0.000270599406537836
0.00027324564365183
0.00027537512884226
0.000276997359598944
0.000278123941106268
0.00027876836380626
0.000278945723932809
0.000278672560676681
0.000277966435667776
0.000276845427128529
0.000275327200003733
0.000273427684697925
0.0002711597321034
0.000268533161793184
0.000265555682624999
0.000262236991794531
0.000258589843901582
0.000254627904324965
0.000250363261454916
0.000245801595730807
0.000240938538318708
0.000235758505985125
0.000230230321688513
0.000224320137492373
0.000217965538713325
0.00021110854615003
0.000203624982005634
0.000195428745192831
0.000186283712671942
0.000176119746119603
0.000164619711130015
0.000151997441090263
0.000137627136693411
0.000128432625628386
0.000135221139634527
0.000150664495202643
0.000174759886106773
0.000204625983927588
0.000241926888956088
0.000288211356927268
0.000346776061219107
0.000412507573744978
0.000482906321527679
0.000552872329786494
0.000616803994598288
0.000660384487452256
0.000694209112637054
0.000730082243069511
0.000775067756602699
0.00084108730765663
0.000950125138468839
0.00114367707751229
0.00140130431387942
0.0017503482714589
0.00224291413373756
0.00277865411403945
0.00282788277036721
0.00194518813741752
0.00129770741507925
0.000854165288750378
0.000703661777345568
0.00379212068447397
0.00342798026478067
0.00205946756111267
0.000922101192300528
0.000293265053928684
0.000158493762997927
0.000143864345142993
8.62149572395594e-05
4.51239411317931e-05
2.69069836747167e-05
1.76214778387556e-05
1.34662417204626e-05
1.24154409129956e-05
1.30600892028619e-05
1.50403133547793e-05
1.83656349570291e-05
2.30416159199717e-05
2.88079977782703e-05
3.55036191759993e-05
4.27403183226224e-05
4.98461023558344e-05
5.61610329721593e-05
6.17266335714201e-05
6.65238911920395e-05
6.99137340839055e-05
7.21320914409235e-05
7.54522012289708e-05
8.56539602468749e-05
0.000115394248102831
0.000159696241978546
0.0002078459941325
0.000258879190121977
0.000311529833834541
0.000365124118345288
0.000419121237142979
0.000473279580557685
0.000527390146276975
0.000581337593652051
0.000635004469445565
0.000688290693086593
0.000741086064350298
0.000793283170503712
0.000844781381176776
0.000895499956303122
0.000945378435934929
0.000994441590479259
0.00104275266956311
0.00109024262472822
0.00113596552837652
0.00117954188095052
0.00122082781973762
0.00125968448406616
0.00129598943713951
0.00132963952634291
0.00136055241094855
0.00138866595168724
0.00141393912090967
0.00143635090467093
0.00145589841086741
0.00147259639421558
0.00148647433597051
0.00149757588111565
0.00150595669245133
0.00151168307442514
0.00151483074305559
0.00151548336618912
0.00151373162769547
0.00150967102035303
0.00150339912346971
0.00149501066494332
0.00148459056450443
0.0014722071180756
0.0014579123035697
0.00144174724663862
0.00142376330600297
0.00140402741965148
0.00138261091891709
0.00135957606676419
0.00133495077322226
0.00130870964180324
0.00128076665000242
0.00125095515329167
0.00121908920879808
0.00118483794181458
0.0011478800906671
0.00110756206805618
0.00106339709451804
0.00101414787387224
0.000959374285485146
0.000897413695355127
0.000829214480599072
0.000752329527724496
0.000704540672816388
0.000742962365176121
0.000828097913913511
0.000959756786835677
0.00112312712145249
0.00132689452348443
0.00157970502637435
0.00189756669184229
0.00225298060713329
0.00263246567773347
0.00300919631534711
0.00335249208212969
0.00359043392661291
0.00377923564727249
0.00398030187985736
0.00423207744001837
0.00459933662973719
0.00520173114382331
0.0062522321193887
0.00764697347540044
0.00952473334017592
0.0121305626912301
0.0149133907543823
0.0152630736710105
0.01071864154064
0.0071996765576909
0.00473188321496442
0.00386556843535155
0.00929129573552712
0.00839883940901371
0.00514740965985469
0.00231084415656039
0.000735224185916182
0.000384877389067494
0.000347507983982322
0.000211552543677229
0.0001115200844661
6.62845417147629e-05
4.32620535769197e-05
3.28514478678467e-05
3.00970064222257e-05
3.15094183633126e-05
3.61763392498605e-05
4.41018953585623e-05
5.53143419856767e-05
6.92054638127022e-05
8.53775214424375e-05
0.00010289984855682
0.000120157912008889
0.000135553247341415
0.000149127085885166
0.000160525561511204
0.000168785032419325
0.000174694908128586
0.000184273699702138
0.000211912221658564
0.000286447338958674
0.000394602722540519
0.000511805830680746
0.000635257203292332
0.000761863967783897
0.000890066840594463
0.00101860353648638
0.0011469200899871
0.00127452984885659
0.00140116350722403
0.00152654540047606
0.00165044272961711
0.00177260350665773
0.0018927879393501
0.0020107776146294
0.00212640732866622
0.00223955910150085
0.00235032604562337
0.00245892346326026
0.00256345532853065
0.00266284952984515
0.00275699982961995
0.00284565005988126
0.00292857611204507
0.00300559108518046
0.00307654926103928
0.00314134721614527
0.00319992184009966
0.00325225044263042
0.00329834740304563
0.00333825999461382
0.00337206618559723
0.00339986906401617
0.00342179502719011
0.00343798957482971
0.00344861456872684
0.00345384577700766
0.00345387026693825
0.00344888444664062
0.00343908994447936
0.00342468815660685
0.00340587046617275
0.00338280464421038
0.0033556226096986
0.00332442144544922
0.00328927675121105
0.00325028241191956
0.00320756035575239
0.00316123884777332
0.00311142388531565
0.00305814881101288
0.0030013362889526
0.00294077756353882
0.00287610359620018
0.00280687852859245
0.00273238995096834
0.00265187508412819
0.00256395401897558
0.00246741955098325
0.00235967540271896
0.0022393666772655
0.00210289977593362
0.00195108904061634
0.00178044397571584
0.00167505913659997
0.00176360419232257
0.00195921286053906
0.00225720688185674
0.00262934351576139
0.0030930251558149
0.00366845397802637
0.00438477951452166
0.00518457241691623
0.00603968093835443
0.00689516633306793
0.00768533615845284
0.00827215482732306
0.00876200058518744
0.00927993615370604
0.00991365248660044
0.0108056234332367
0.0122178121444708
0.0145840629834321
0.0177103557018375
0.0218250963144471
0.0272990353553696
0.0329424498392565
0.0343379112240616
0.0260209073467227
0.0183028070448128
0.0121924836458884
0.00971167839390884
0.0167805368762679
0.0149460197869801
0.00958815442951452
0.00435878312839723
0.001366666928456
0.000671474712280428
0.000597675531703306
0.000370352510369956
0.000196944024701941
0.000116782581197005
7.60428195920179e-05
5.74511996246675e-05
5.23496932673511e-05
5.45784205970663e-05
6.25126315139581e-05
7.61141413092654e-05
9.54161340687709e-05
0.000119370562468085
0.000147217800129457
0.000177292410910549
0.000206832487341941
0.000233245875766947
0.000256605124670113
0.000276117969549844
0.000291009459287297
0.000304328230014784
0.000326550776821021
0.000384482870681444
0.000518498387000272
0.000700974927561261
0.000893802858621269
0.00109114324785995
0.00128838354777343
0.00148366458897734
0.00167551649889813
0.00186352372052994
0.00204731462277724
0.002226793204926
0.00240182980331352
0.00257233649926327
0.00273819246677713
0.00289928725200059
0.00305553608830783
0.00320693188629386
0.00335351122766239
0.00349565610150143
0.0036309874165459
0.00375858305242688
0.00387896082381838
0.0039920205301877
0.00409765585833501
0.00419578807568405
0.00428636930654035
0.00436938494263069
0.00444485331565682
0.00451282380797133
0.00457337569056361
0.0046266145609249
0.00467266869886945
0.00471168627096616
0.00474383113657476
0.00476928086952048
0.00478822345211195
0.00480085509986467
0.00480737826772427
0.00480799980712327
0.00480292910013944
0.00479237452597099
0.00477653805775317
0.00475560565859085
0.004729733995125
0.00469903970791358
0.00466360043902034
0.00462347055656439
0.00457871766125973
0.00452943252559921
0.00447570826578432
0.00441760818386595
0.00435511337429022
0.00428808096661527
0.00421621147966329
0.00413903074728997
0.00405594168390987
0.00396606436557929
0.00386833923687907
0.00376110538482092
0.00364259075682635
0.00350966011796711
0.00335978773075408
0.00318821695397479
0.00299315097887814
0.00276899427252435
0.00262559011577955
0.00273985873208626
0.0030114410395223
0.00342220839367168
0.00394505362743165
0.0045998492996823
0.00541495258378682
0.00641476550509364
0.00753861269004191
0.00874824816471496
0.00998208026214928
0.0111614910225939
0.0121467031755809
0.0130438024417171
0.0139956298462581
0.0151215800597964
0.0166068615862618
0.0187892039230218
0.0221642999687236
0.0265078847333912
0.0319122298567334
0.0384512008970052
0.0445106264997328
0.0463228770222905
0.0393074921956144
0.0309626070341118
0.0225984828116694
0.0181806151365368
0.0245797472205213
0.0215382348155027
0.01510697472579
0.00732247030503934
0.00229371586658532
0.00100978746545594
0.00086893534783396
0.000549621509224366
0.000295575486478957
0.00017508838308766
0.000113916516167666
8.57756352817124e-05
7.78278466997801e-05
8.08801074987032e-05
9.24896506076957e-05
0.000112480079727997
0.000140754509877263
0.000175647096091793
0.000215759862019467
0.000258411174511133
0.000299674002111586
0.000336383681857051
0.000368984712779861
0.000397330708934872
0.000421656302390728
0.000448113029784925
0.000493436079135102
0.000592027723582634
0.000777319480236118
0.0010037115451747
0.00123174597362523
0.00145323223228733
0.00166635099638459
0.00187095970370206
0.00206718213474244
0.00225563456608721
0.00243682252994716
0.00261123616946531
0.00277924993474037
0.00294115246109124
0.00309715403767787
0.0032474144142783
0.00339208399078395
0.00353138369914213
0.00366552173342585
0.00379270838928264
0.00391241289093766
0.00402531871262508
0.00413155635682131
0.0042311192038276
0.00432400375540624
0.00441021862071627
0.00448978846394334
0.00456275596724488
0.00462918221153494
0.0046891465896276
0.00474274565382787
0.00479009128868726
0.00483130878251517
0.00486653447995819
0.00489591394303676
0.00491960001999745
0.00493775099899211
0.00495052900688721
0.00495809845494564
0.00496062479707311
0.00495827269051781
0.00495120353191701
0.0049395713036227
0.0049235158890894
0.00490315409232751
0.00487857330175641
0.0048498317949345
0.00481697026979927
0.00478003323726004
0.00473907702749248
0.00469415654800694
0.00464530012355959
0.00459247262331398
0.00453554371027946
0.00447425703183681
0.00440822677432081
0.00433693917145913
0.00425969306744762
0.0041755614208483
0.00408325417829363
0.00398116790926885
0.00386687282941452
0.00373770340329697
0.00358965256405811
0.00341889915005651
0.00321867433291287
0.00308261191246921
0.0031751868480349
0.00343935163527175
0.00384395022248326
0.00437344519933107
0.00504267029606862
0.00587409853563055
0.00688348895479087
0.00802412666579167
0.00925962863311498
0.0105440790191393
0.0118150184245086
0.0129922455718412
0.0141537268289595
0.0154128420861184
0.0168833801784742
0.0187276759658303
0.0212345672055473
0.0247246574237109
0.028996622030147
0.0339076200614982
0.0391026636866331
0.0432832797790204
0.0441723785455923
0.0414070822039479
0.0371490948413486
0.0313499875783074
0.0269496058923111
0.0292396050716807
0.0254705344476582
0.020117187312526
0.0111874675865361
0.00369385134203037
0.00140525646755357
0.00113573026215859
0.000735708214219771
0.00040188909631751
0.000238393633602709
0.000155358039569019
0.000116857603325705
0.000105723725712206
0.000109616698208427
0.00012517276210949
0.000151839912751068
0.000189015767093884
0.000234009692252815
0.000284263654395644
0.000335777147594849
0.000383881090988447
0.000425943383282089
0.00046358142391497
0.00049858291945157
0.000534216441714698
0.000579527737354513
0.000653982047443269
0.000786140545621043
0.000982704730001029
0.00119663276048869
0.00140837093072809
0.00160633338407265
0.00179472340863141
0.00197364975820398
0.00214462719806004
0.00230827142619721
0.00246540858946035
0.0026164746044653
0.00276190219443162
0.00290194889814763
0.00303683429946189
0.00316670656772502
0.00329170696827087
0.00341208055033026
0.0035267477395974
0.00363499513943077
0.00373735461353417
0.00383404165724664
0.00392509398906981
0.00401050556578791
0.00409027742132688
0.00416441984293552
0.00423295594781267
0.00429592273018644
0.0043533715765149
0.00440536853600594
0.0044519929772044
0.00449333654463571
0.00452950177038875
0.00456059995521603
0.00458675022096981
0.00460807749977388
0.00462471126787055
0.00463678406448827
0.00464443002583593
0.00464778378461776
0.00464697863158069
0.00464214468384764
0.00463340575276437
0.0046208749109938
0.0046046486917007
0.00458480345511385
0.00456139511913683
0.00453446640063352
0.00450405852592103
0.00447021838071591
0.00443299084638096
0.00439240034086445
0.00434842621582469
0.00430097976451844
0.00424987989578172
0.00419485588570349
0.00413553139228581
0.0040714187426029
0.00400183207197863
0.00392590029044875
0.00384243385365985
0.0037498236213875
0.00364591989163852
0.00352799155853384
0.00339225625231324
0.00323386539754054
0.00312053219656336
0.00318199920898252
0.0034053356364573
0.00375583027831314
0.00422468928928803
0.00481800108343673
0.00555453403086498
0.0064391308037732
0.00743867185439466
0.00852269234692215
0.00965925609917921
0.0108039238018034
0.0119236582878699
0.013074832640847
0.0143391977789327
0.0158108545368487
0.0176106732795839
0.0199445845329263
0.0229406384567421
0.0264460539202512
0.0302546770140173
0.0338611496423163
0.0365810192974052
0.0368109604451612
0.0365256927001633
0.0356853750203676
0.0342781668214307
0.0316455662404259
0.0300479659718333
0.0262417551304637
0.0230608744988015
0.0153151382737246
0.00574758223623872
0.00189935881238269
0.00137042002866682
0.000909018906355473
0.000507690230767953
0.000302729460533765
0.000198335070594102
0.00014948211184729
0.000135027202199125
0.000139722936308089
0.000159123552011749
0.000191838334041822
0.00023609709680248
0.000287638159470855
0.000342339001440114
0.000395240990026133
0.000442373526893832
0.000483292421344549
0.000521483037914249
0.000561200895314412
0.000608449300423174
0.000673161111456251
0.000771701382582992
0.000918452811405452
0.0010929991773607
0.00127174242001789
0.00145511429210256
0.00162397521037204
0.00178698472093835
0.0019419893505841
0.00209116031076314
0.0022343507549774
0.00237237738735748
0.00250537326713552
0.00263368334291362
0.0027574331074951
0.00287677789518398
0.00299180091647847
0.00310257973356277
0.00320894015210664
0.00330970306939975
0.00340524091145201
0.00349576783775314
0.00358136374989774
0.00366203108945264
0.00373775764032071
0.00380853971217744
0.00387438246699968
0.00393530286819788
0.00399133018119182
0.00404250650025848
0.00408888695422547
0.0041305383556704
0.00416753849384581
0.00419997491341655
0.00422794302480881
0.00425154542226659
0.00427088994367779
0.00428608861216591
0.00429725622596618
0.00430450892958313
0.00430796317227814
0.00430773395659623
0.00430393340856683
0.00429666840315755
0.00428603758974389
0.00427212747799726
0.00425501013161684
0.0042347424349336
0.00421137018187415
0.0041849348761668
0.00415548072964131
0.0041230503830242
0.00408767113328078
0.00404933763295697
0.00400799438982083
0.00396351670384277
0.00391571444948354
0.00386431425534571
0.00380897393709645
0.00374919239589352
0.00368437572839328
0.00361366704133869
0.00353599598763055
0.00344971738496849
0.00335301974316855
0.00324278694678764
0.00311656174080073
0.00302289864492808
0.00306230679498458
0.00324728502064124
0.00354567369576079
0.00395013610718
0.00446359366388973
0.00509851541902267
0.00585400492287052
0.00670546787126005
0.0076274995430582
0.00859612895179425
0.00957866046033923
0.0105650475880732
0.0115975536074482
0.0127351345128273
0.0140519844687552
0.0156363517729573
0.0176341432353561
0.020071890567364
0.0228400948657542
0.0257761556940364
0.0283824132186255
0.0303806428666578
0.0303820935177026
0.0309173880683291
0.0312764242195789
0.0327572830480499
0.0318558589766939
0.0285573793974381
0.0251774924273147
0.0236737172222718
0.0188918457509238
0.00844688703460231
0.00259300571759466
0.00156158518196612
0.00104700660761699
0.000601788402565953
0.000362426823838675
0.000239842990052409
0.000181793366283481
0.000164128037386027
0.000169394470752502
0.000191838457924893
0.000228627719762291
0.000276189947228448
0.000328628265614585
0.000380828139481307
0.000428427256327095
0.000469915749778245
0.00050756812737189
0.000546042794763579
0.000590909233951244
0.00064898193654283
0.000728847350072673
0.000841304345116217
0.000987643965275579
0.0011334023925988
0.00128457533535626
0.00144648011524306
0.00159469483380527
0.00174032299748928
0.00187901269132954
0.00201342421456989
0.00214275096974055
0.00226781009049171
0.00238851059795032
0.00250513942524292
0.00261773389912111
0.00272640746633273
0.00283120344357561
0.00293220192196674
0.0030284414952228
0.00311990746118662
0.00320678563445369
0.00328917528443019
0.00336710487172887
0.00344056391705897
0.00350953859404831
0.00357402348251683
0.00363402167468324
0.00368954718883104
0.00374062527757237
0.00378729297510274
0.00382959921085611
0.00386760357773628
0.00390137578791964
0.00393099453949236
0.00395654584025256
0.00397812238135163
0.00399582174493062
0.00400974540647595
0.00401999740317252
0.00402668292615455
0.00402990732925342
0.00402977448776729
0.0040263856499531
0.00401983763127459
0.00401022082083969
0.0039976164139018
0.00398209477372837
0.00396371430886464
0.00394252328519884
0.00391856407271424
0.00389188024464516
0.00386251446610825
0.00383049802171236
0.00379583797449021
0.00375850324398307
0.00371840922162515
0.00367542096453802
0.00362933824135948
0.00357991645313134
0.00352678653607727
0.00346953498554651
0.00340754696813595
0.00334009630628296
0.00326593092176302
0.0031838532473014
0.00309146002551342
0.00298830132915968
0.00290999181069676
0.00293538155834335
0.00308980421493735
0.00334636903917754
0.0036983281089661
0.00414628013872259
0.00469796379019577
0.00534951626238219
0.00608152117956131
0.00687244028862496
0.00770293950060677
0.00854796192083281
0.00940796272519262
0.0103162265887576
0.0113166971849672
0.0124678192763971
0.0138359731840207
0.0155288807846976
0.017531367740809
0.0197622940134617
0.0221136448079624
0.0241340253932254
0.0257506732514494
0.0256933723633485
0.0264064675880343
0.0268925177989201
0.0295335113753502
0.0297520314524525
0.0262007092696594
0.0235126695277863
0.0225528574697624
0.0214029953093728
0.0115033863182474
0.00363491642739462
0.00173902340382733
0.00113745589557225
0.000673762314892658
0.000411259720771995
0.000276164357248662
0.000211323064023647
0.000190832468518772
0.000196185247314032
0.000220162949487786
0.000258112393111651
0.00030463554097347
0.000353081310494188
0.000398732519582376
0.000439222372585726
0.000475685980271538
0.000511915855820335
0.000552518757510966
0.00060314942184144
0.000670064044411046
0.000759654886263071
0.000877552297735535
0.00101660229512848
0.00114004716156344
0.00127526150066492
0.00142249193651886
0.00155725669305428
0.00169125200089667
0.00181894887080578
0.00194329060531213
0.00206308063948755
0.00217913885189175
0.0022912480491539
0.00239966094335964
0.00250436719102607
0.00260545575931733
0.00270294396715978
0.00279664247036162
0.0028858243369953
0.00297070323699018
0.00305138395756974
0.00312791405481095
0.00320029934163631
0.00326852504256512
0.00333257781569351
0.00339245215529444
0.00344815070999214
0.00349968628206384
0.00354708212244856
0.00359037249629626
0.00362960273198626
0.00366482814578907
0.00369611357308896
0.00372353229985847
0.00374716455937727
0.00376709688313607
0.00378342047234358
0.0037962301902936
0.003805623311469
0.00381169811573218
0.00381455294703638
0.00381428466976295
0.00381098772817442
0.00380475277486991
0.00379566537674214
0.00378380397758123
0.00376923861698743
0.00375202947754488
0.00373222699530665
0.00370987470403135
0.00368501654106164
0.00365769623593849
0.00362794925464445
0.00359579285658283
0.00356121468082489
0.00352415988863002
0.00348453345981428
0.00344218911492333
0.00339695164164032
0.00334854914455552
0.00329669265836958
0.00324094711674925
0.00318081943600813
0.00311542816954647
0.00304389015836058
0.00296444956549314
0.00287812917713667
0.00281181563050342
0.00282830717458601
0.00295907648331302
0.00318294438135669
0.00349348496245234
0.00388977906435364
0.00437617859137697
0.00494724334106939
0.00558684726555176
0.00627640029069918
0.00699955736900797
0.00773662257949915
0.00849299620423815
0.00929617949266733
0.0101803695398017
0.0111924637824655
0.0123845215735256
0.0138394474686452
0.0155276012552716
0.0173852768071619
0.0193440101904999
0.0210013350933651
0.022376776762628
0.0223111500379357
0.0229959779776518
0.0233318451569789
0.026125570044161
0.0269982877597293
0.0237199640590078
0.0218567381861137
0.0205152789175209
0.0226969283490725
0.0145834212882788
0.00508948372900754
0.0019707977016151
0.00119156499967792
0.000720795241894911
0.00044562903209181
0.0003042749900261
0.000235759150802526
0.000213079630583056
0.00021794057223269
0.000241764470799867
0.000278232708215859
0.000320798253247358
0.000363252662588504
0.000402208453939688
0.00043736598680276
0.000471427101367304
0.000508425803198216
0.000552366635009558
0.000608435029779716
0.000681818009032195
0.00077676103218258
0.000895012839349559
0.0010251262712947
0.00113435534828014
0.00126093903629897
0.0013977353439434
0.00152362923011864
0.00164949634508669
0.00176955378534884
0.00188677005849252
0.00199978389225481
0.00210938911999592
0.002215309792097
0.00231777097081903
0.0024167385396084
0.00251228514564619
0.00260443953193783
0.00269264270767602
0.00277670174855812
0.00285675886873731
0.00293287444661259
0.00300506920041517
0.003073337999359
0.00313766497552769
0.00319803777672736
0.00325445131180103
0.00330690833291794
0.00335542112795485
0.00340001188182673
0.00344071325185156
0.00347756837741003
0.00351062996046252
0.00353995982107797
0.00356562788202095
0.00358771079551571
0.00360629123818534
0.00362145643977851
0.00363329712481824
0.00364190634109127
0.00364737803419929
0.0036498061577619
0.00364928320172986
0.00364589941141286
0.00363974175185256
0.00363089314107173
0.00361943089365685
0.00360542564325804
0.00358893960962433
0.00357002537684567
0.00354872792895628
0.00352509223421412
0.00349916373735163
0.00347098213315006
0.00344057340963844
0.0034079402922119
0.00337305112223009
0.00333584132887828
0.0032962061068339
0.00325402236151478
0.00320909228273164
0.0031612175483061
0.00311014216609057
0.00305550207391033
0.00299665361659609
0.00293299295944926
0.00286331591596018
0.00278962665343477
0.00273277261929332
0.00274361623524515
0.00285596894039834
0.00305396739981366
0.0033315605016841
0.00368684230738906
0.00412173429810217
0.00462994393752926
0.0051975415456236
0.00580821336631623
0.00644773154574997
0.00710041156549345
0.00777404359619729
0.00849225407345712
0.00928279100845606
0.0101841642787363
0.0112388523676864
0.0125128652017243
0.0139736587257945
0.0155686272006913
0.0172535041285939
0.0186693493548808
0.0198693228638026
0.0198065622077121
0.0203929292760058
0.0205735323374193
0.0230815016427343
0.024315115725384
0.0214138146251631
0.0203724662144704
0.0182623267554187
0.0228611391838545
0.0173699248981359
0.00695083862264251
0.00232743296492038
0.00123947326258612
0.000750538400447236
0.000467335331701304
0.000323684623868653
0.000254154819403711
0.000229996301282707
0.0002339191876333
0.000256343006054057
0.000289846316276514
0.000327573615276089
0.000364446496648959
0.00039846926163382
0.000430736680330132
0.000464502350727734
0.000503460314467185
0.000550979821703316
0.00061160465076308
0.000689372804892511
0.000786734050916129
0.000902804904064291
0.00102467489275476
0.00112584086437182
0.00124750902119096
0.00137659928293692
0.00149650632593754
0.0016165013154683
0.00173114386412062
0.00184321322702548
0.00195133806339854
0.00205625221223047
0.0021576630591508
0.0022557675362324
0.00235052092193699
0.00244197980811508
0.00253009619809311
0.00261427892181437
0.00269456965557535
0.0027710597280979
0.00284378238482661
0.00291274300273203
0.00297793075823609
0.00303932978260275
0.00309692862624152
0.00315072264543844
0.00320071480121978
0.00324691713462123
0.00328935122843501
0.00332804878397147
0.00336305160885906
0.00339441084173591
0.00342218649863311
0.00344644650234224
0.00346726540186431
0.00348472359424283
0.00349890599934271
0.00350990092183674
0.00351779895860872
0.00352269153004062
0.00352467004554141
0.00352382447371411
0.00352024268748404
0.0035140096900462
0.00350520726735417
0.00349391275408171
0.00348019808231133
0.00346412781116538
0.00344575681223025
0.00342513181322943
0.00340229932634134
0.00337730699430927
0.00335019878178832
0.00332100843810573
0.00328975137130709
0.00325641471116743
0.00322095811091772
0.00318330975045061
0.00314338741745857
0.00310105121972
0.00305622859432255
0.00300870109068752
0.00295823994786856
0.00290439868439484
0.00284678717908319
0.00278466435602976
0.00272065265441684
0.00267133704751158
0.00267859794708625
0.00277643281174045
0.00295359944429921
0.00320453778968073
0.00352670476754755
0.00392025886141169
0.00437845348514705
0.00488888720922292
0.00543702958880648
0.00601027223097543
0.00659607498732256
0.00720337509782508
0.00785307344323961
0.00856851697693017
0.00938204438986974
0.0103295082239444
0.0114649664764521
0.0127577932734619
0.0141628397548061
0.0156488141751631
0.0168936489652541
0.0179540781957845
0.0178929363243939
0.0183620808045757
0.0184321407692578
0.0205216593278621
0.0219226976201366
0.0193827141103643
0.0190320280411999
0.0162461104392924
0.0221000686764542
0.0195618374792709
0.00914263015153489
0.00287755023990474
0.00131516204569162
0.000776280472403066
0.000482553397381525
0.00033680638405589
0.000267428901517283
0.000242261195463197
0.000244973134205944
0.000265359517036312
0.000295506010513653
0.000328817952065737
0.000361437934209935
0.000392414676919117
0.000423581328560424
0.00045819797369101
0.000499491338128315
0.000550301737968047
0.000614496898308886
0.000695054786550419
0.000793030040700618
0.000905904434708008
0.00102101808840473
0.00111814526423289
0.00123668627465105
0.00136003148362524
0.00147585628640367
0.0015915696614079
0.00170237971338095
0.0018107390743836
0.00191536045365901
0.00201689176721534
0.00211504837324357
0.00220999721806731
0.00230169024450666
0.00239017393996978
0.00247527386910311
0.00255653967979536
0.00263407991864096
0.00270795450276679
0.00277817882294941
0.00284474875699407
0.00290765026238163
0.00296686771890614
0.0030223903102121
0.00307421370844205
0.00312234102938096
0.00316678416385307
0.00320756435489643
0.00324471276795635
0.00327827046781199
0.00330828777557851
0.00333482378036398
0.00335794540725056
0.00337772619855247
0.00339424544992513
0.00340758702335808
0.003417838103158
0.00342508818580895
0.00342942754111309
0.00343094644050958
0.00342973373652888
0.00342587631033224
0.00341945850116016
0.00341056210935241
0.00339926537621371
0.00338564212500873
0.00336975959341705
0.00335167517465294
0.00333143763804655
0.00330909547145633
0.00328469891476449
0.00325829626697676
0.00322992839833581
0.00319962175567072
0.00316737921377503
0.0031331803512399
0.00309698029333907
0.00305873390380669
0.00301838856078873
0.00297587846831254
0.00293106775900958
0.00288383029951452
0.00283387851199516
0.00278099051021346
0.00272480929569807
0.00266831705673127
0.00262504844181171
0.00263005109972447
0.00271630191643503
0.00287641499042193
0.00310541960758582
0.00340037290178542
0.00376014311076055
0.00417775742310085
0.00464191426918669
0.00513950179294934
0.00565923078784671
0.00619111289429229
0.00674460166200907
0.00733858425557059
0.00799329878248507
0.00873645990044745
0.00959918940471708
0.0106268842074388
0.0117927210542145
0.0130566932599125
0.0143928901786495
0.0155098063290813
0.0164527813174719
0.0163882102597442
0.0167418266519086
0.0167394780332321
0.0184143961981988
0.0198501661659772
0.0176442923821918
0.0177699067269507
0.0146679592388849
0.0206465465313483
0.0210249947946848
0.0114972232099118
0.00369159445560045
0.00144996223258218
0.000811109887202276
0.000498333009671309
0.000347452023138545
0.000277657819025994
0.000251469182635582
0.000252757007751071
0.00027087513921772
0.000297849194958696
0.000327591417203533
0.000357254919453604
0.00038656438631108
0.000417667479125973
0.000453612382647861
0.000497192305106234