/*--------------------------------*- C++ -*----------------------------------*\
  =========                 |
  \\      /  F ield         | OpenFOAM: The Open Source CFD Toolbox
   \\    /   O peration     | Website:  https://openfoam.org
    \\  /    A nd           | Version:  7
     \\/     M anipulation  |
\*---------------------------------------------------------------------------*/
FoamFile
{
    version     2.0;
    format      ascii;
    class       volTensorField;
    location    "20000";
    object      gradU;
}
// * * * * * * * * * * * * * * * * * * * * * * * * * * * * * * * * * * * * * //

dimensions      [0 0 -1 0 0 0 0];

internalField   nonuniform List<tensor> 
15600
(
(0.0369750876025715 -0.00437722940258181 1.11169828682065e-19 12.9021508164993 -0.0304975005166625 1.37393201632116e-21 0 0 0)
(0.314901006953695 -0.0210662949924811 -4.95374896627357e-19 14.3899693317541 -0.338486047260998 2.30823636047418e-18 2.28527665543398e-21 -1.4763710947106e-22 -3.72389642813934e-39)
(1.00004795084928 -0.114383643776988 -2.21659705794535e-18 9.49471538300727 -0.981632708527903 4.8309530860151e-18 -2.2930076724842e-21 1.48136561039802e-22 3.73649424937502e-39)
(-0.28920473720106 0.112097039467062 1.55739643543239e-14 -0.362511982135429 0.221714171724116 5.52197217391915e-14 0 0 0)
(-2.49147677443965 1.19473242618857 3.2506367175435e-14 -5.14645628748522 2.43110025782601 6.85048800089876e-14 0 0 0)
(-2.96112013359255 1.84120186042679 -5.63305059200601e-17 -4.73588675650684 2.91104227082773 -7.2595622929114e-17 3.79631159517685e-17 -2.33331177184404e-17 5.80738408831393e-34)
(-2.45691607901737 1.78177087920112 -1.25853866350355e-16 -3.36588593627741 2.42373608499514 -1.57196581584985e-16 5.44090233556456e-22 -3.50770098386557e-22 4.06993506054902e-39)
(-2.04592893313216 1.61965345165646 -1.9445442787231e-16 -2.5565579717473 2.01623614798482 -2.37816983783469e-16 0 0 0)
(-1.61811349470624 1.34313905008476 -1.25394525489986e-16 -1.93116313016254 1.59978710218007 -1.64290346403377e-16 0 0 0)
(-1.28459336916858 1.07691023267101 1.71456595109249e-16 -1.51605031056667 1.2704879384254 1.66922512288173e-16 0 0 0)
(-0.998482325355792 0.824388028143758 1.31591477732716e-16 -1.1997709762386 0.991214444165831 1.72214491752098e-16 -2.50523689712563e-21 2.03819510929916e-21 7.38148384325223e-37)
(-0.833517158712936 0.674509540007061 -2.26894193679362e-16 -1.02394782143732 0.829319349617868 -2.59930144276602e-16 2.37457125874615e-21 -1.931888968988e-21 -6.9964877976994e-37)
(-0.735316993525156 0.585860220646961 -2.36618982897643e-20 -0.920101426896779 0.733581711541693 1.32004228722793e-21 0 0 0)
(-0.69848372040225 0.5505899384503 -1.77407984083993e-17 -0.885559183590653 0.698446264483522 6.72974201832376e-19 -3.86675086695765e-21 3.03752176146722e-21 -1.55527596163966e-36)
(-0.713806877205015 0.558513896080326 6.71255753988449e-17 -0.91294253886315 0.71470275922416 8.77580991297212e-17 -7.82986673389056e-18 6.12948858302973e-18 7.5273065545748e-34)
(-0.770034682829519 0.599189361621163 -1.91941418929235e-16 -0.990483733232254 0.77124187888865 -2.72691840802399e-16 0 0 0)
(-0.841208329118807 0.648611065278436 -3.86469306132289e-17 -1.09034722238568 0.841835071730246 3.06566009979733e-18 0 0 0)
(-0.899997142904615 0.677423586101059 -9.6851000156504e-17 -1.19278462531474 0.900089683915812 -9.84483228595216e-17 -1.00944865754893e-17 7.61628228917175e-18 -8.49236919139399e-34)
(-0.934550981121862 0.674012563833194 9.98484783212824e-17 -1.28978945119317 0.933999665894936 8.53793970919919e-17 -1.07767862656695e-17 7.80183719725988e-18 7.33806603254058e-34)
(-0.929037038353107 0.628199505078932 -1.79345384872546e-18 -1.36451882236336 0.928223711920864 6.19568248311938e-19 1.06308162205591e-20 -7.40607566984378e-21 2.97672275777265e-36)
(-0.872826490049586 0.53851364420869 -1.27526695832401e-16 -1.40126230902854 0.872232863028563 -2.03617668971672e-16 0 0 0)
(-0.773691434656608 0.420902287879283 -1.48098872943553e-16 -1.40500498639894 0.774291846048464 -3.08872314150988e-16 0 0 0)
(-0.653265094989154 0.30270306171485 -2.27889963571968e-17 -1.3878620008854 0.655053665974344 2.54207859243874e-18 9.80913551557063e-21 -4.29160320130797e-21 3.2403981932642e-36)
(-0.519849275797529 0.196909831687733 3.84408605138377e-17 -1.3420182636747 0.522487071626192 1.01315894914246e-16 -9.75519896705376e-18 3.79520916927759e-18 7.3622893917917e-34)
(-0.383978849848741 0.111534061897693 -5.7282162395364e-17 -1.27200911569096 0.387049908841182 -3.42108599668327e-16 4.49436931871459e-18 -1.36545782817814e-18 1.19384774323138e-33)
(-0.25915608449248 0.0512087627504036 -1.69408881614081e-15 -1.21504519115409 0.263575034483255 2.13548799434232e-16 4.20955350957506e-18 -9.11663179965603e-19 -2.27901668683339e-34)
(-0.148494800161534 0.0140360611637461 -7.06455565269415e-16 -1.1483136382161 0.148857055672458 8.42831633843049e-15 -5.723262230332e-16 7.40745087149891e-17 4.28828623625011e-30)
(-0.0762905876570546 4.90210057123831e-05 1.9556069855012e-15 -1.40539785491631 0.0803621041740364 6.96833077916708e-15 -7.04303755406616e-16 4.01545190897457e-17 3.40693415841118e-30)
(-0.0403729170402094 -0.000942323849843032 1.72165255155361e-15 -2.16921749039598 0.0451674457633938 -1.39833032864937e-16 4.48884561992522e-22 -9.31772696586806e-24 1.17161051374279e-42)
(-0.0379082061298929 5.88254492796104e-05 -6.98981147606706e-22 -2.94190155584995 0.0412271058314758 -6.38937868373832e-19 -1.41672353919373e-31 1.9837608368523e-33 -3.07447857635681e-50)
(-0.033201561745797 7.06723513250883e-05 -1.91512704164489e-15 -3.59001877015834 0.0376099071516843 1.40958892705218e-16 0 0 0)
(-0.0295312165517025 4.6096957379668e-05 -1.95792371077072e-15 -4.17056845723038 0.0336954294553819 7.51763336410553e-15 -2.37946565004004e-15 1.92582101162101e-17 4.38460742580161e-30)
(-0.0256155441895998 3.49699424575847e-05 1.91512704164475e-15 -4.6667514287513 0.0300131066854124 6.41862261764095e-15 -2.68114763717716e-15 1.72133438687602e-17 3.59721039597593e-30)
(-0.0222591169698491 2.35572332443004e-05 1.95792371077087e-15 -5.09525845216154 0.0266784825288804 -1.33533263819647e-16 0 0 0)
(-0.0192955769470339 1.62050940475278e-05 2.3861580860742e-20 -5.46292975837904 0.0238043838359266 -6.33626375141562e-19 0 0 0)
(-0.0167634715936908 9.1968364152005e-06 -4.82492788884174e-20 -5.779801354619 0.0213092772089644 2.51591073490108e-19 2.05149575969728e-20 -5.85237166950024e-23 1.65051288230757e-39)
(-0.0145637320576979 3.18034760342534e-06 2.55875148898772e-20 -6.05266115332214 0.0191414364530341 -5.04219716234572e-19 -4.20155607988886e-20 1.17262673249197e-22 -1.56931156575714e-39)
(-0.0126425572854397 -2.63263737248584e-06 2.10241342906573e-15 -6.28755368387612 0.0172230830000163 -1.16876615176585e-16 4.38568305642838e-20 -1.17299741231205e-22 -1.42287492870298e-34)
(-0.0109349415136395 -8.13986373271644e-06 2.1848056466943e-15 -6.48893127236311 0.0154979346283032 -7.06593098895667e-15 3.56375514838359e-15 -8.50919415701299e-18 3.95657069021462e-30)
(-0.00939503266394628 -1.3503645649954e-05 -2.10239165088757e-15 -6.66035738943942 0.0139151166908598 -6.40153060957691e-15 3.67818664105705e-15 -7.68774476671463e-18 3.46453465996035e-30)
(-0.00798445163966029 -1.86592138212845e-05 -2.18485509579011e-15 -6.8045378498998 0.0124381529662059 1.10259886332947e-16 -2.37321212353251e-20 5.70959932492334e-23 1.47865033698224e-34)
(-0.00667618818267254 -2.35994173283706e-05 2.64711007337149e-20 -6.92362319661376 0.0110398213913611 3.66621138338217e-19 0 0 0)
(-0.00544978433148908 -2.82873976927289e-05 -2.99562212854141e-20 -7.0193255534243 0.00970085613445615 1.29250682330369e-21 0 0 0)
(-0.00429108814230796 -3.2660089932998e-05 2.99452386679249e-20 -7.09305172975859 0.00840809681324431 -3.13377941274485e-19 -2.53835690409695e-20 5.01111999990256e-23 -7.43282602144894e-43)
(-0.0031907929641876 -3.66774025828726e-05 6.18789371822959e-20 -7.14599603233855 0.00715443873027459 3.09615675178123e-19 2.53835690413137e-20 -5.01111999993704e-23 7.43282587134571e-43)
(-0.00214284382087381 -4.03711392025656e-05 -2.79837191291804e-15 -7.1792216604179 0.00593442827974565 9.97656885631696e-17 2.57445394045237e-20 -4.48967016632031e-23 1.89384285989671e-34)
(-0.00114332693429961 -4.37684569857622e-05 -2.90743233459633e-15 -7.19370093687259 0.0047443109336309 8.76581554481134e-15 -4.11037335717197e-15 2.70245416548819e-18 5.07497509364059e-30)
(-0.000189188976218117 -4.68402500187914e-05 2.7983765202516e-15 -7.19035723782865 0.0035821273381631 8.38859360804385e-15 -4.12286308658068e-15 2.06064507893486e-18 4.75115874997106e-30)
(0.000721600806917518 -4.94981646733872e-05 2.90738286413418e-15 -7.1700435553739 0.00244823986021312 -8.81883139565102e-17 2.58103032564673e-20 -3.70895065287471e-23 9.83819123117112e-35)
(0.0015892670740265 -5.17171102858071e-05 -5.32108596761806e-20 -7.13360451605967 0.00134490648262546 -4.24342388087986e-19 -1.28929424870414e-20 1.77072679229414e-23 5.75427079636477e-40)
(0.002413497013501 -5.35345301735753e-05 3.62106950892003e-20 -7.08188281960346 0.000274173891807149 2.98260509592319e-19 -1.275749276835e-20 1.41456527949588e-23 1.57724203370774e-43)
(0.00319377272038709 -5.49614030787926e-05 -3.24544811577088e-15 -7.01572072476115 -0.000761794421449071 6.60983868916832e-17 1.27574927676677e-20 -1.41456527949316e-23 -1.57724174581049e-43)
(0.00392922458186357 -5.59995133152769e-05 -3.35349918687146e-15 -6.93596805132707 -0.00176041129748389 1.00318910071189e-14 -3.81597018690137e-15 -9.73654523441175e-19 5.56169870580089e-30)
(0.00461890751515014 -5.66618376227882e-05 3.24546677405827e-15 -6.8434866516187 -0.00271898308216718 9.97550564424474e-15 -3.77228810834266e-15 -1.49544256091592e-18 5.46603666959743e-30)
(0.00526202305554699 -5.69645599857328e-05 3.35348052392299e-15 -6.7391480297789 -0.00363514154088107 -5.10674217176504e-17 0 0 0)
(0.0058578916403879 -5.69248116167135e-05 -5.53708533595184e-21 -6.62383106919214 -0.00450657671891898 5.62131731339113e-23 0 0 0)
(0.00640610116276986 -5.65688820687325e-05 5.54093023478725e-21 -6.49841994227913 -0.00533136793666601 -5.77419610820262e-20 -2.94177356104251e-21 6.76328486559518e-25 3.25269329188173e-44)
(0.00690655905471652 -5.59212214369252e-05 8.45340008375295e-21 -6.3637973692944 -0.00610807364335573 -1.9323002364117e-20 2.94177356166761e-21 -6.76328486046379e-25 -3.25269273677833e-44)
(0.00735942968224052 -5.50099011897332e-05 -8.45958458624535e-21 -6.22084111544357 -0.00683548393769732 1.07649154148721e-19 1.41054334927455e-21 1.31061180426983e-25 9.89624453617991e-45)
(0.00776518272213846 -5.38638694488262e-05 -2.91631474780165e-21 -6.07041915719572 -0.00751296614305149 -3.04067386260807e-20 -1.41054334927448e-21 -1.31061180426977e-25 -9.89624453617943e-45)
(0.00812450427330347 -5.2509892158689e-05 2.91865435145738e-21 -5.91338502808776 -0.0081400833847824 0 0 0 0)
(0.00843829093680717 -5.09772645195933e-05 6.41818563305611e-21 -5.75057567922059 -0.00871681266120948 3.25791060016768e-23 0 0 0)
(0.00870764461261796 -4.92927043263232e-05 6.70002595341795e-21 -5.5828070762515 -0.00924341694208874 6.69323835481911e-20 2.54161320886426e-21 2.01027904816422e-24 -1.1097694210285e-40)
(0.00893382499826609 -4.74834515797063e-05 -1.95554661688815e-20 -5.41087230050203 -0.00972043107931782 6.963607527438e-20 2.39045714975248e-21 2.81367640396041e-24 2.19892219833808e-40)
(0.00911825629769975 -4.55749589097072e-05 -6.70002595341855e-21 -5.23553858319837 -0.0101486917248673 -1.36966413599716e-19 -4.93207035913719e-21 -4.82395545305975e-24 -1.08915277724238e-40)
(0.00926251341098734 -4.35922933738564e-05 1.31372805358255e-20 -5.05754515982975 -0.0105292517088121 1.66714115013766e-22 0 0 0)
(0.0093683636676252 -4.15603133499734e-05 0 -4.8776005705239 -0.0108635014191405 0 0 0 0)
(0.00943777860677044 -3.95024221733872e-05 0 -4.69637919396451 -0.0111531084287783 0 0 0 0)
(0.00947294851592387 -3.74416978531098e-05 0 -4.51451818947708 -0.0114000761268253 0 0 0 0)
(0.00947627681320596 -3.53999089899461e-05 2.27030189438024e-33 -4.33261382410461 -0.0116067030236552 4.14121570659587e-19 0 0 0)
(0.00945009147883815 -3.33876528003457e-05 1.144597482109e-33 -4.15121980342572 -0.0117754135794754 -4.15923852796902e-19 0 0 0)
(0.00939627101313769 -3.14092725146211e-05 5.16317647699403e-15 -3.97085392382472 -0.011908073262526 1.5638833742827e-16 0 0 0)
(0.00931576888733342 -2.94516239878673e-05 1.04636027942048e-14 -3.79200944911711 -0.0120059607444222 -1.8395706916095e-14 2.09215728008688e-15 6.62247353649771e-18 1.00466089397953e-29)
(0.00920844849375869 -2.75042546007944e-05 1.32525259427626e-16 -3.61517623607635 -0.0120688073697232 -3.93870021605587e-14 3.982195601832e-15 1.32930064929315e-17 4.34104608114655e-29)
(0.00907425480950304 -2.55924519623624e-05 -1.04636680232159e-14 -3.44085283976325 -0.0120965601615507 -2.11223577080135e-14 1.89118119377864e-15 6.64834038255915e-18 1.17440774497944e-29)
(0.0089140370538597 -2.37425777361679e-05 -5.29570262167254e-15 -3.2695284617445 -0.0120903191604422 -2.02289575622789e-16 -1.21825119039363e-20 -4.7325341895832e-23 -4.47448716660992e-39)
(0.00872939240117059 -2.19793884377122e-05 1.98585819676504e-19 -3.10167063606864 -0.012051814925775 -8.22117363025586e-22 5.90788626154864e-22 -1.48752308317573e-24 1.34399094677869e-38)
(0.00852252365346817 -2.03209221638314e-05 -6.62913049111214e-20 -2.93771389499982 -0.0119836622850666 1.3866277154886e-18 2.26066584116426e-20 9.90010112073362e-23 -1.34443755384577e-38)
(0.00829488900205903 -1.87409630066903e-05 5.73427349593616e-15 -2.77805637665898 -0.0118880583596871 2.76803230176641e-16 -1.10149351338637e-20 -5.01881462283399e-23 4.47895323728182e-39)
(0.00804730873678095 -1.72512144132439e-05 5.7511782114392e-15 -2.62309228869239 -0.0117652411632149 -2.21180208774294e-14 1.44883976994791e-15 6.50021468904568e-18 1.20293928995751e-29)
(0.00777714674972222 -1.5734550343753e-05 -5.73440685274399e-15 -2.47321180829114 -0.0116154468417109 -2.47138377642285e-14 1.35810831032892e-15 6.37418284612901e-18 1.37809343702228e-29)
(0.00748120236519281 -1.42848594494879e-05 -5.7511825297939e-15 -2.32891825467083 -0.0114306847240018 -3.0754792565197e-16 0 0 0)
(0.00715160805474453 -1.26941650314748e-05 1.43869065865482e-19 -2.19074113324156 -0.0112122847058601 -7.36621818571664e-19 -8.39226321045818e-21 -5.55148014068658e-23 4.8981447481612e-39)
(0.00678328196656167 -1.12612543913824e-05 -1.4711279009006e-19 -2.05947688077293 -0.0109399582966795 1.49006002012578e-18 1.63254468367167e-20 1.11791743029788e-22 1.60023515275282e-40)
(0.00635895732916594 -9.42358574183535e-06 2.47364468015542e-21 -1.93588519418109 -0.0106230634321327 -1.28496717277253e-19 -2.29388266744702e-20 -1.70106365483269e-22 -1.48396816834931e-38)
(0.00586996994351027 -7.96721871006552e-06 6.92765405171231e-20 -1.82139698733904 -0.0102094982016338 -6.27618647215059e-19 1.5005643048214e-20 1.13829423860365e-22 9.7815134200581e-39)
(0.00527947915895216 -5.5376419138098e-06 3.08025661453155e-21 -1.71717538510878 -0.00973307297748181 -3.76211357191093e-18 -1.34964961534662e-20 -1.1565739027262e-22 1.24265945179122e-41)
(0.00457042831189451 -3.95843038826053e-06 1.49331160535161e-19 -1.62600585097021 -0.00906731276367678 6.01525885636414e-18 1.34964961534663e-20 1.1565739027262e-22 -1.24265945179122e-41)
(0.00369586343205744 -1.05492521674779e-06 4.25989236791947e-21 -1.54979377961053 -0.00832025978189792 -2.24017578627874e-18 0 0 0)
(0.00260732811225004 -4.06340200990517e-06 -3.08784981310299e-19 -1.4932204764323 -0.00726532144826305 1.57795699998539e-18 1.2024684453189e-20 1.16885985555043e-22 2.09940314813024e-38)
(0.00182890627706244 -6.76632099358819e-06 1.40454549659231e-21 -1.45939956428801 -0.00643830219298406 -3.21722535757417e-18 -2.38018151300933e-20 -2.3468783450589e-22 -4.17979490426051e-38)
(0.000207135621163076 -0.00140142689710412 3.08938294742963e-19 -1.44012623738702 -0.00546417105698541 1.6404092143956e-18 1.17771390988411e-20 1.17801933192056e-22 2.08039324383797e-38)
(0.0529232787640293 -0.00304961107023254 -6.92619461292008e-20 -1.46741641071277 -0.0552000240405936 -2.3651590920247e-18 0 0 0)
(0.187524645517445 0.0167932035084378 7.99267904490147e-17 -1.46027680391346 -0.186780291644458 1.1653152218932e-17 0 0 0)
(0.310641249228263 0.0600673475998308 -1.82119551912528e-16 -1.41186885623144 -0.304616288110609 8.3014029935476e-16 4.89410662142835e-18 1.05385676422622e-18 -2.87719629127406e-33)
(0.411311572071965 0.118201972260638 -1.61947016088425e-16 -1.3254916032807 -0.401754551497123 -1.29845211170719e-17 -4.6846912637954e-18 -1.41775132393933e-18 1.64236120335612e-35)
(0.46719802780185 0.175067458267503 2.27898320921661e-17 -1.16994940477948 -0.452821808125637 3.68678873628354e-16 -1.13170062656276e-20 -3.61826311423433e-21 -1.1420978231138e-35)
(0.466084950059889 0.213660024447973 2.36490231219735e-17 -0.955794036534964 -0.448009013315418 4.60771817703442e-16 7.16069715337567e-18 3.3534460920561e-18 -3.24679514269452e-33)
(0.389124559811774 0.209728709369968 -4.06776002108093e-16 -0.669776214431439 -0.367260007370316 4.1188759691621e-16 5.20154780072744e-18 2.84880732088108e-18 -3.35461262077476e-33)
(0.206380470617116 0.128276271349638 -8.62162884287557e-17 -0.289113931358927 -0.183553284583486 -8.01597779820628e-18 0 0 0)
(-0.100422469065434 -0.0610344025217508 -4.3910378313864e-16 0.197648577914042 0.121681925963148 7.59855698823293e-16 -2.06890728334816e-21 -1.97090206266644e-21 -2.31734528292129e-35)
(-0.535867568495365 -0.368503647287881 -6.15206571041906e-16 0.800363425093721 0.551164313134277 7.33962620606793e-16 2.16281699428417e-21 2.06036322145199e-21 2.42253183594356e-35)
(-1.09258233524055 -0.788787514350789 -7.94007243382766e-16 1.52122837524871 1.09879587968631 1.05457068485113e-15 0 0 0)
(-1.76158150762693 -1.30547099835448 -6.28538189227022e-16 2.36737049898208 1.75423878213702 7.23799673609121e-16 0 0 0)
(-2.48359286459387 -1.86390457812893 4.20782907565012e-16 3.28309796399732 2.46375341039659 -7.3383488361213e-16 2.80490141363782e-17 2.10490440441511e-17 -6.19227458142222e-33)
(-3.22850287145368 -2.44916143833345 -1.59574623865231e-16 4.2118846751942 3.1960249583282 3.06811039376226e-16 3.61054203078326e-17 2.73967639501677e-17 2.58359659269767e-33)
(-4.0409616687659 -3.10836453033017 -6.58375292351195e-16 5.18930740853528 3.99404591318641 1.00955222166639e-15 0 0 0)
(-4.96620555060646 -3.8877397801742 2.27227715077867e-16 6.25757396530416 4.90260032532438 -2.89156977329244e-16 -5.42899163531855e-17 -4.25326630422093e-17 2.50341024059479e-33)
(-6.08928878431434 -4.86564460839026 -1.1445176596069e-16 7.50416705978801 6.00163244408115 -6.24558468530402e-18 1.85653014575287e-20 1.46217624290419e-20 -2.61161117710854e-36)
(-7.53309173445679 -6.1600557133572 1.29748279228941e-15 9.05831267533014 7.41126927655997 -1.54425422477777e-15 -1.95868951274332e-20 -1.54263548012439e-20 2.75532042163062e-36)
(-9.59537796657503 -7.96817783222216 7.81836690394631e-16 11.3347384922325 9.40580348083702 -8.48929591331482e-16 -1.01040348948167e-16 -8.384534568622e-17 7.58285500388464e-33)
(-12.3069805908298 -10.0949850128743 -6.93871792384991e-16 14.7004636293867 12.0300143387192 7.78521572392789e-16 1.30485097278185e-16 1.06783083558408e-16 6.91274560371848e-33)
(-15.4932197784853 -12.1317428137254 -1.50535630651725e-16 19.3858108434692 15.1142462740162 1.88179835272218e-16 1.68939985921532e-16 1.31715624059167e-16 1.63595244775203e-33)
(-19.0943817814658 -13.6692022555005 3.60759770062715e-17 26.1475994332709 18.584846816659 1.55726432180407e-19 0 0 0)
(-22.0500075883882 -13.5338714887961 -1.1723157901191e-19 35.3681397807797 21.4428450034645 -8.31855921351798e-21 1.11186669347667e-20 5.57792566951409e-21 -9.82780963413844e-40)
(-21.9371741897298 -10.2672684454037 3.14353954123599e-18 46.4767624996113 21.3069128333462 -6.64442833276854e-18 -3.48808097059051e-16 -1.59884930414421e-16 4.98632139730112e-35)
(-14.0480253795711 -4.14231612339909 -2.5483945147711e-20 48.9530527843874 13.7811800710107 5.04904739956074e-19 -1.72439134196293e-16 -4.85346856512693e-17 -1.78537456330301e-36)
(-5.18408654860168 -0.816350233580649 7.99243933298269e-21 37.6546931432841 5.09070477985813 -1.17154892195932e-20 -5.97347308715223e-21 -5.5846621078865e-22 -3.55270262823781e-44)
(-0.873926033451455 -0.080576904728229 3.42207780422913e-19 21.8755380970853 0.889110357908284 -1.39072756902531e-17 5.9533331535451e-21 5.56583307452013e-22 3.54072447180944e-44)
(-0.0961967097741928 -0.00752782866697005 -5.69130297726418e-22 13.2144609812375 0.075834932257613 2.88894048309973e-24 0 0 0)
(0.0207789494148039 -0.0160852713189804 -4.03523101962248e-23 15.6463048930188 -0.00700438666181919 2.83402343942676e-23 -4.23469058912193e-21 5.49291033809451e-23 2.6605907834345e-46)
(0.258264609816066 -0.0415156748546615 7.62530111427553e-19 15.7317675023754 -0.284091355925074 -2.22462533245016e-18 4.23368625483291e-21 -5.49160759399009e-23 -2.65995977569106e-46)
(0.930203361886495 -0.0912825446682834 2.88157286895788e-15 11.7453052859234 -0.885861847517111 2.26185190143365e-17 -3.5713138747212e-17 3.13061501789191e-18 2.39095179482189e-35)
(0.239162004080426 0.0747763216646247 -1.04413484011392e-14 2.90385874486473 -0.212427817923221 -5.04213567845484e-14 -6.39638253111035e-15 -7.42216144335376e-19 -7.22317631258189e-30)
(-1.78444311364794 0.989935785828355 -3.37800364710012e-14 -3.33802178417273 1.84388365861581 -6.47532272923462e-14 2.07561925490775e-14 -1.04712828286151e-14 -3.17452247818652e-30)
(-2.44441702755793 1.57416051950212 -3.99497373353216e-15 -3.97786051471212 2.48653409825399 1.46997167669297e-17 -3.66052233540075e-17 2.24985373436546e-17 -5.59962047133341e-34)
(-2.10797078914111 1.54698603616976 1.08432207244562e-16 -2.98347161846785 2.14378495417683 1.51729938148129e-16 -1.11514980415503e-21 8.43217991177227e-22 -6.3682819772803e-38)
(-1.79256979773056 1.42852287444411 1.8289782024593e-16 -2.30429583383394 1.81559157497573 2.27432883899324e-16 -4.15383174735853e-17 3.27459373916738e-17 -1.87490053235873e-35)
(-1.4505636053496 1.20444670501382 1.51454073546516e-16 -1.77848531555716 1.46926540143293 1.57877820158987e-16 -2.1162110446721e-21 1.85847937141074e-21 2.40351544017592e-37)
(-1.17225455708922 0.977642826402694 -1.38154746171994e-16 -1.41832531887652 1.18326856877955 -1.61776717643405e-16 5.26630777263394e-21 -4.40864340421664e-21 -6.37283174415627e-41)
(-0.934370691232176 0.764028295561567 -1.62651357778944e-16 -1.14724808279398 0.94138337322716 -1.64685102471744e-16 0 0 0)
(-0.795269494499932 0.638409957981589 2.02851027364941e-16 -0.99164930212209 0.798923361628306 2.5029760336008e-16 -1.73082278938894e-17 1.39802011643712e-17 -9.74365472424289e-36)
(-0.716567073762395 0.567666515090187 2.32595487915647e-16 -0.903899168898738 0.718012912817144 2.62634737981977e-16 0 0 0)
(-0.692589772321827 0.54537741301522 -1.81398884751819e-16 -0.877943204043408 0.69257325772884 -2.67918165177932e-16 -1.12784869139271e-20 8.86189845570738e-21 2.29547656444648e-36)
(-0.714381299629706 0.561373158310138 1.16993300272668e-16 -0.906774941593765 0.713453169235324 1.87729793666365e-16 7.55183860343787e-18 -5.91190056515281e-18 -7.26578717108136e-34)
(-0.769335456798452 0.603696414065426 -3.38240917725876e-17 -0.977957285686926 0.768568507009511 -8.09490530574605e-18 -1.65277937586015e-17 1.29291708425376e-17 -2.32274322568363e-33)
(-0.834710665046697 0.649502058033056 5.60704246783691e-17 -1.06828952826902 0.834262852358765 -4.32238296981114e-18 0 0 0)
(-0.887080453389515 0.672613245679545 3.09147825672235e-16 -1.16169712178282 0.887390809112697 3.70224144226078e-16 9.73376012129281e-18 -7.34411445935823e-18 8.18889439817591e-34)
(-0.915476776038796 0.662496865805786 1.12558836375882e-16 -1.25083358190819 0.916482293453697 1.97794844036148e-16 1.0381602318318e-17 -7.5160368453527e-18 -7.10628520486536e-34)
(-0.907557765032389 0.611332992471287 -2.98983780366583e-17 -1.3240074855343 0.909097246727127 1.62566001613697e-18 0 0 0)
(-0.857675596878654 0.521183860060775 8.90418210721117e-17 -1.37280030100079 0.858651869456171 2.00119869148634e-16 0 0 0)
(-0.772198302676209 0.407710403270178 1.56304303175148e-16 -1.40236510582296 0.772442765442346 2.87637950629118e-16 -2.13223831533904e-17 1.17321408716201e-17 -6.69272333899702e-35)
(-0.666232137673226 0.293950779920775 2.10581682855977e-16 -1.42017091960917 0.665743778504365 3.01239383478198e-16 0 0 0)
(-0.546896720772824 0.191609127515426 1.78925900148832e-16 -1.42257327329537 0.5455962932588 5.51006439542046e-16 9.41102433564796e-18 -3.66059271794993e-18 -7.1020333890925e-34)
(-0.423186389959786 0.108300402108751 4.36555332163733e-17 -1.41543960025802 0.421061849303423 3.18903700771773e-16 -1.3699718621729e-17 4.12586710869033e-18 -1.19683199098107e-33)
(-0.301864761344738 0.0475738467226098 2.58793854292955e-15 -1.42260910732309 0.302155844811928 -4.64260726594249e-16 -4.08609375320889e-18 8.83843183627523e-19 5.60020106261508e-34)
(-0.205788404439102 0.0121243712631877 4.79948185430516e-15 -1.48414401210979 0.200741650488196 1.76092740047277e-14 5.67221163336779e-16 -7.30080725233478e-17 -4.25711539269876e-30)
(-0.141597828154054 -0.00225308028372093 -1.92838510529773e-15 -1.81892068350168 0.141747650107065 1.83625382008841e-14 6.70483065225606e-16 -3.78991983768403e-17 -3.22365138445495e-30)
(-0.110682731466912 -0.00291006971497223 -2.49418119879803e-15 -2.47043136683457 0.110133132612409 2.02562139284662e-16 1.40228829551569e-20 3.88796257792346e-22 3.25672356652003e-34)
(-0.102002126708202 -0.000804999994279421 1.28891495190683e-21 -3.09708916880362 0.0986189701295146 -2.26304151261385e-20 -5.04401421274515e-20 1.03975665298646e-21 -8.47177727300563e-39)
(-0.0877571314680341 -0.000822979636629822 2.72047415300301e-15 -3.61103656418543 0.0852984122538211 -2.00234932202882e-16 0 0 0)
(-0.0764540577578318 -0.000804137076174294 2.6828112705604e-15 -4.04841172251417 0.073030930577611 2.0024256160223e-14 2.33114769619e-15 -1.88382367342092e-17 -4.29829847145097e-30)
(-0.0653902952371589 -0.000734776499601065 -2.72034716141166e-15 -4.41140391534959 0.0618593303603194 2.08262389294993e-14 2.55186468043221e-15 -1.63533575243569e-17 -3.40339952434984e-30)
(-0.0560924278282359 -0.000642468291127243 -2.68287417847543e-15 -4.71538824377272 0.0522581663567767 1.83871169817779e-16 1.01062744707194e-19 -5.42357211705929e-22 -6.41126142101473e-41)
(-0.0480649590127893 -0.000551254682437303 -6.3398925354513e-20 -4.9693416697386 0.0441173959045368 -1.81027985479258e-20 -1.01062744707193e-19 5.42357211705922e-22 6.41126142101465e-41)
(-0.0412633198252807 -0.000473682844313319 6.29079153053984e-20 -5.1820219901818 0.0372132570808968 -2.43858817218332e-19 0 0 0)
(-0.0353925216211838 -0.000410029578926179 4.88822970731368e-31 -5.35955841378757 0.0313114072797147 4.85023287611936e-19 0 0 0)
(-0.0302762930058095 -0.000359934103370746 -2.87189262794321e-15 -5.50690586876511 0.0261985657710746 1.59859860199353e-16 5.83801094354988e-31 -1.59897535840679e-33 -4.78338764401463e-50)
(-0.0257353044709731 -0.00032082070045341 -2.91405891460986e-15 -5.62773218677199 0.0217039301652738 -2.19960245798032e-14 -3.47641459200052e-15 8.29475748903504e-18 -3.86602439546395e-30)
(-0.0216435553548088 -0.000290550156383229 2.87185591888002e-15 -5.72490778813442 0.0176917382652766 -2.31485698337208e-14 -3.51137180128768e-15 7.33375547802528e-18 -3.29464456935362e-30)
(-0.0179004165353896 -0.000266834764697574 2.91409552783862e-15 -5.8006490792073 0.0140609379071315 -1.47668098439836e-16 -6.49124363904755e-20 9.66609281813249e-23 -6.25668302590188e-42)
(-0.014435162582506 -0.000247969384184779 3.67090632291809e-20 -5.85673546410293 0.0107372275502165 1.12007804073216e-20 6.49124363904762e-20 -9.66609281813259e-23 6.25668302590195e-42)
(-0.0111951015681012 -0.000232592631512281 -3.6613228913959e-20 -5.89461793129077 0.00766611254592462 3.34181703699955e-19 0 0 0)
(-0.00814346064761037 -0.00021955972232047 -2.96953003054541e-31 -5.91551520656496 0.00480820161732438 -2.98831809342885e-20 0 0 0)
(-0.00525575237272212 -0.000208145715742521 6.20211662590711e-35 -5.92047498709379 0.00213550688177923 -6.52580067025055e-19 -3.31720594235652e-31 3.3199903686927e-34 1.44835494425284e-50)
(-0.00251620065216117 -0.000197984477688512 3.76487707169225e-15 -5.91043444926097 -0.000373390422724305 -1.33745725910225e-16 0 0 0)
(8.50296696831077e-05 -0.000188699842633607 3.85917168079495e-15 -5.88625536133414 -0.00272894808151578 2.93366362765431e-14 3.9926472340688e-15 -2.62239006536604e-18 -4.93706947726712e-30)
(0.002556634449368 -0.000179911941115861 -3.76487707169263e-15 -5.84877879642098 -0.00493747417939483 3.07178971531879e-14 3.95160860731584e-15 -1.97348742353139e-18 -4.54449641566931e-30)
(0.0049043315318917 -0.000171292812380758 -3.85919585647659e-15 -5.79883890156876 -0.0070062335260063 1.16795553088877e-16 0 0 0)
(0.00712890365537553 -0.000162701292102862 4.91194442496923e-20 -5.73721284369977 -0.00894049814571846 5.59899034191479e-19 -3.33333671756939e-20 -1.07164962324036e-23 8.14244959493018e-40)
(0.00923090926376926 -0.000154108035713594 2.49296551019888e-20 -5.6646477386384 -0.0107432987000396 -4.41436384540354e-21 6.63654076662745e-20 2.64635763896241e-23 -2.44227436331088e-39)
(0.0112101767463428 -0.000145447741505243 4.35814080802083e-15 -5.58187700636267 -0.012416559092365 -8.8467422967578e-17 -3.65936368438086e-22 4.74788395654168e-24 -1.42263789101207e-34)
(0.0130656587862227 -0.000136665782139367 4.476262051748e-15 -5.48962504913968 -0.0139612786279907 3.40893324603493e-14 3.69518243637367e-15 9.44044329615009e-19 -5.39045583154386e-30)
(0.0147961795851816 -0.000127770493058915 -4.35818992746523e-15 -5.38860899935459 -0.0153782235542275 3.53739194005382e-14 3.62673523628436e-15 1.43837993808479e-18 -5.25012176602576e-30)
(0.0164008745703449 -0.000118783248592525 -4.47626280572169e-15 -5.2795378825395 -0.0166685133883433 6.81653579945298e-17 0 0 0)