/*--------------------------------*- C++ -*----------------------------------*\
  =========                 |
  \\      /  F ield         | OpenFOAM: The Open Source CFD Toolbox
   \\    /   O peration     | Website:  https://openfoam.org
    \\  /    A nd           | Version:  7
     \\/     M anipulation  |
\*---------------------------------------------------------------------------*/
FoamFile
{
    version     2.0;
    format      ascii;
    class       volScalarField;
    location    "20000";
    object      k;
}
// * * * * * * * * * * * * * * * * * * * * * * * * * * * * * * * * * * * * * //

dimensions      [0 2 -2 0 0 0 0];

internalField   nonuniform List<scalar> 
15600
(
2.0662005871573e-06
1.86544676586054e-06
1.10644764220955e-06
4.75170509964197e-07
1.37917432177644e-07
7.15634926443515e-08
6.45490792812427e-08
3.94389831153865e-08
2.1921642080106e-08
1.43807884876882e-08
1.05538579558405e-08
9.04405485960018e-09
9.26282805276088e-09
1.07134208224043e-08
1.34439425312475e-08
1.77434818672116e-08
2.39498926336554e-08
3.23463406293698e-08
4.32916659933367e-08
5.68574286176533e-08
7.26168205911169e-08
8.97818214742153e-08
1.07736189049299e-07
1.25409657355738e-07
1.40370551244988e-07
1.51677676094266e-07
1.62749636012416e-07
1.85205256393768e-07
2.48693222304722e-07
3.44811686670893e-07
4.49083229397781e-07
5.59683964787892e-07
6.73859420577062e-07
7.90132441345345e-07
9.0731602122583e-07
1.02488377752146e-06
1.14238281870259e-06
1.2595680299677e-06
1.37619076851907e-06
1.49204110710202e-06
1.60688668379794e-06
1.72050036370896e-06
1.83266867666653e-06
1.94322007651297e-06
2.05202585762574e-06
2.15914089330787e-06
2.26470154667848e-06
2.36855334739715e-06
2.46924185934801e-06
2.56550163164071e-06
2.65685417846536e-06
2.74297960041644e-06
2.82359246454031e-06
2.8984486520013e-06
2.96734949882672e-06
3.03014051451506e-06
3.08671410700856e-06
3.13700758944872e-06
3.18099902901871e-06
3.21870684603913e-06
3.25018312170453e-06
3.27551277282483e-06
3.29480876947609e-06
3.30820915219185e-06
3.31587438613628e-06
3.31798403693251e-06
3.31473483378809e-06
3.30633566754688e-06
3.293001573781e-06
3.27494267223722e-06
3.25234845077453e-06
3.22537176728588e-06
3.19412942293881e-06
3.15871311251448e-06
3.119238181536e-06
3.07585634252254e-06
3.02873014146405e-06
2.97800336649685e-06
2.92374358491268e-06
2.86589883061214e-06
2.8042837452425e-06
2.73852748631607e-06
2.66822744177078e-06
2.592641205808e-06
2.51107913148918e-06
2.42206415746348e-06
2.3245721345552e-06
2.21579444298947e-06
2.09489680635582e-06
1.95810699656175e-06
1.80796850398591e-06
1.63703526953691e-06
1.53260906806453e-06
1.60424859387183e-06
1.73852197224776e-06
1.92348214511145e-06
2.11289372710564e-06
2.31143291989316e-06
2.51919690399639e-06
2.7567532755756e-06
2.98820382052312e-06
3.20069989796671e-06
3.36988344690408e-06
3.47770142965328e-06
3.46209938895633e-06
3.37359133521974e-06
3.26689549597181e-06
3.16998461412554e-06
3.11859106718624e-06
3.16488030554671e-06
3.41501796881025e-06
3.82002985633386e-06
4.46859683550502e-06
5.53731959945337e-06
6.92324036919796e-06
7.47070451384639e-06
5.55598055355514e-06
3.83986979474726e-06
2.54253731425557e-06
2.0924666918272e-06
6.66813435167729e-05
6.02973437027175e-05
3.58379214311198e-05
1.55492944187642e-05
4.59670268055751e-06
2.34785648716203e-06
2.10993567250186e-06
1.30606466556973e-06
7.29118995626352e-07
4.75781750602751e-07
3.47363692934151e-07
2.95437754621683e-07
3.00465614401705e-07
3.45796070158794e-07
4.32469034053838e-07
5.69650085411825e-07
7.68444396042855e-07
1.03817114983538e-06
1.3907516480189e-06
1.82932312326914e-06
2.34092746378663e-06
2.89986846138063e-06
3.48458637764246e-06
4.05997088634959e-06
4.54896872582473e-06
4.91986632199691e-06
5.28700143613334e-06
6.01744000200182e-06
8.07094219752099e-06
1.11769867222136e-05
1.45489389740255e-05
1.81244506653036e-05
2.18144865972978e-05
2.55715120188753e-05
2.93572557695402e-05
3.31548258501808e-05
3.69496364023422e-05
4.07338319586582e-05
4.44994217643073e-05
4.82396747771584e-05
5.19471314933061e-05
5.56145058893642e-05
5.92349536327901e-05
6.28029860787287e-05
6.63144848447043e-05
6.97712704715104e-05
7.31778111813361e-05
7.65292262290664e-05
7.97590555407982e-05
8.28405129956021e-05
8.57632950823046e-05
8.85174068673291e-05
9.10939664730848e-05
9.34854155540269e-05
9.56856380527789e-05
9.76899222267827e-05
9.94950362075206e-05
0.000101099159157405
0.000102501752583633
0.000103703537021089
0.000104706287503678
0.000105512801103764
0.000106126747943078
0.000106552576925109
0.000106795431446317
0.000106861046829702
0.000106755686445373
0.000106485985174535
0.000106058757091394
0.000105480644483427
0.000104757621331468
0.000103894500490206
0.000102894951816406
0.000101761876834304
0.000100498920892507
9.91108610945155e-05
9.76028072578127e-05
9.59792498556798e-05
9.42422537768746e-05
9.23901008391161e-05
9.04167893570188e-05
8.83105444571947e-05
8.60583273699714e-05
8.3636665374221e-05
8.10230582493025e-05
7.81710001718338e-05
7.50465719191071e-05
7.15615647316468e-05
6.76861402242272e-05
6.33017057768753e-05
5.84794975090601e-05
5.30173326973029e-05
4.972949455071e-05
5.21134101245038e-05
5.64995335882425e-05
6.24845026822379e-05
6.86184850850756e-05
7.50395159419152e-05
8.17696844939728e-05
8.94079810857193e-05
9.68132218776383e-05
0.000103576458849379
0.000108936096307117
0.000112289462494192
0.000111770084155177
0.000108982093230947
0.000105627474199875
0.000102603967002299
0.000101062324203724
0.000102699867625776
0.000110762366530859
0.000123774083658011
0.000144481381918346
0.00017804742369856
0.000220700899030733
0.000237855274330802
0.000177684937727991
0.00012319606351383
8.19608390261329e-05
6.76618231688917e-05
0.000482934525969925
0.000437528980998309
0.00026144922867367
0.000115025972535665
3.46814959361378e-05
1.73494322705582e-05
1.55255677837953e-05
9.75107389685763e-06
5.47656882062707e-06
3.55940008535734e-06
2.5877642721359e-06
2.18579778910011e-06
2.20806414804915e-06
2.52766539478643e-06
3.14945251705664e-06
4.1388755419179e-06
5.5787216414498e-06
7.53870584531418e-06
1.01076692269788e-05
1.33142624051945e-05
1.7069729471085e-05
2.11838209971561e-05
2.54932319268482e-05
2.9682442515698e-05
3.32639066727778e-05
3.60280609783615e-05
3.8828647479482e-05
4.41702046409366e-05
5.90414587088289e-05
8.14724724399545e-05
0.000105787010300275
0.000131482785614273
0.000157915844367813
0.000184749338903848
0.000211712827146946
0.00023869117527366
0.000265584459094114
0.00029234162405982
0.000318910126047089
0.000345246783169518
0.000371303150432932
0.000397032124772451
0.00042238960775578
0.000447341179178457
0.000471860458212459
0.000495963795256409
0.000519689450026519
0.000542631878674399
0.000564557736598018
0.000585434860011889
0.000605198674063145
0.0006237906525432
0.000641159611697879
0.000657262875698199
0.000672066819288887
0.000685546589252871
0.00069768641727345
0.000708479075560659
0.000717925065457094
0.000726032345839924
0.000732815113882715
0.000738293547700829
0.000742492900500524
0.000745442932273432
0.000747177394959685
0.000747733441632291
0.000747151219445192
0.00074547292058095
0.000742741556928415
0.00073899872259823
0.000734281436609596
0.000728619154566131
0.000722033892987986
0.000714542958605416
0.0007061682994826
0.000696938861602834
0.000686885569724894
0.000676034970979571
0.000664397639235255
0.000651959417293017
0.000638677174393164
0.000624470947902877
0.000609248368747365
0.000592852246845972
0.000575120836785533
0.000555745752610836
0.00053447428181712
0.000510722344921541
0.000484225046901767
0.000454178217200556
0.000420866335749506
0.000383116971242335
0.00036031577257202
0.000377330730433671
0.000408144131247517
0.000449505831998006
0.00049212085683045
0.000536687126444703
0.00058352539306671
0.00063605647431737
0.000686860209603874
0.000733299298704911
0.000770365306361762
0.000793881181263609
0.000792418419322881
0.000775581147139495
0.000754285411210026
0.000734841181031409
0.00072511610272205
0.000736662656864398
0.000790199478440158
0.00087722071009371
0.00101354129002309
0.00122753810524363
0.00149094146495037
0.0016132944956793
0.00123955943847647
0.000871424716631827
0.000589409623018299
0.000490816281976664
0.00172297875044016
0.00156815943930096
0.000961648873676947
0.0004370339027006
0.000136533808038512
6.60759917753991e-05
5.86352771642061e-05
3.7433284360056e-05
2.11784941325158e-05
1.37192007116096e-05
9.93707645689982e-06
8.33866686224698e-06
8.36664531852935e-06
9.52145896724655e-06
1.1812828443887e-05
1.5477596375531e-05
2.08269423259996e-05
2.8121267067259e-05
3.76883592981515e-05
4.9641114304228e-05
6.36542479950565e-05
7.90061091201446e-05
9.50691196861818e-05
0.000110544765354222
0.000123752490279221
0.000134381698375216
0.000144945677422775
0.000164782998070714
0.000218151196115243
0.00029721760815666
0.000381534910361544
0.000469195038086184
0.000557937396188874
0.000646748593910749
0.000734804169108199
0.000821839153680876
0.000907613409110224
0.000992053341486252
0.00107506844690288
0.00115659809534737
0.00123655977599359
0.00131487292248157
0.00139146211674701
0.00146628147922016
0.00153929211167873
0.0016105921032946
0.00167904455787339
0.00174418131342116
0.00180617780763991
0.00186492513991132
0.0019203123398133
0.00197224231013381
0.00202063409905527
0.00206542524459399
0.00210657249323355
0.00214405094851
0.00217785443900353
0.00220799395194078
0.00223449572544771
0.00225740041731583
0.00227676043273166
0.00229263934441063
0.00230510992026245
0.00231425297748769
0.00232015632415626
0.00232291362462901
0.00232262355291366
0.00231938775815057
0.00231330804286727
0.00230448105370988
0.00229299063915084
0.0022789008523337
0.00226225606247699
0.00224308814186964
0.00222143876294494
0.00219736543422675
0.00217092959537187
0.00214218015611906
0.00211112413664782
0.00207770370874205
0.00204178120853989
0.0020031223651239
0.00196144350271814
0.0019162958513
0.001867175559699
0.00181321309566465
0.0017535807880918
0.0016866155860072
0.00161123469587624
0.001524963732778
0.001427560609453
0.00131411671536844
0.00124321930568928
0.00129369125362981
0.00138777742940137
0.00151288347684403
0.00164450404844486
0.00178368449287734
0.00193174759914693
0.00209504791109755
0.00225539845151177
0.00240375027841833
0.00252615852620901
0.00261021223290394
0.00262637711497727
0.00259661018686887
0.00254992906202546
0.00250546259434415
0.0024868284376946
0.00252863568443324
0.00268977945862213
0.00294912634473678
0.00333972735766208
0.00391902234606876
0.00458837707971319
0.00493894258505246
0.00398090977910735
0.00289089662891293
0.00203904586268416
0.00174376971742602
0.003886135677809
0.00359422898033228
0.00234837051066133
0.00114506416091433
0.000388366307643456
0.000179625899824783
0.000156479890562855
0.000101741899188918
5.80757964445356e-05
3.75275783828677e-05
2.7095399641496e-05
2.25960518184001e-05
2.25125971876199e-05
2.54511130999496e-05
3.14121245931422e-05
4.09806989947596e-05
5.49457275796543e-05
7.39396712992773e-05
9.87301441963359e-05
0.000129507804258295
0.000165308648543056
0.000204152973732187
0.00024436238326786
0.000282887291583331
0.000315584137238914
0.000342050728985476
0.000368669108184791
0.000417654159161646
0.000541192128797513
0.000716608431303335
0.000896871538030483
0.00107846168586696
0.0012569321473996
0.00143124211593417
0.00160034156506341
0.0017643672709378
0.00192331362086756
0.00207745531046198
0.0022269465372192
0.00237195831491778
0.00251257802233634
0.00264886683682334
0.00278086525181578
0.00290866168313304
0.00303228973642966
0.00315021928889503
0.00326201446599262
0.00336817042395573
0.00346870699247577
0.00356354886340751
0.00365262386943065
0.00373587343373258
0.00381325604838557
0.00388475069475436
0.00395035782060339
0.00401009848702863
0.00406401479684399
0.00411216780730576
0.00415463517359721
0.00419150994132578
0.00422289729594363
0.00424891380834849
0.00426968496605757
0.00428534379260814
0.00429602949395959
0.00430188614610466
0.00430306155587417
0.00429970473326316
0.0042919621967767
0.00427997096486983
0.00426384821578461
0.00424368203281118
0.00421953102503938
0.00419143411781759
0.00415944000056343
0.00412361639067988
0.00408403459735268
0.00404074601717956
0.00399374106829326
0.0039429158740035
0.00388804566310376
0.00382876515976159
0.00376461538414867
0.00369490731502606
0.00361881423873378
0.00353501438747044
0.00344210152276865
0.00333752428828917
0.00321915238135345
0.00308290012109526
0.00292674685838101
0.0027387162396985
0.0026152861404787
0.00269343460216937
0.00285553398749175
0.00307340912394733
0.00331163428673433
0.0035696382825541
0.00384732249006851
0.00415302713432551
0.00445894447005189
0.00474758805463594
0.00499706260785966
0.0051867292623624
0.005274681525978
0.00528843092566319
0.00527040618908617
0.00525200583257549
0.00527229168236887
0.00538942510134063
0.00569881685426095
0.00617044234124209
0.00683547129046187
0.00775375592151855
0.00874264030016697
0.00930467746684858
0.00793769710453519
0.00602766858264642
0.00444343180308836
0.00390964401244632
0.00636320140253443
0.00598760019175826
0.00425930674194305
0.00229994677292221
0.000890972356144153
0.000398261446923991
0.000337564494653164
0.000224090501400887
0.000129402405617063
8.35240613693781e-05
6.01611739772082e-05
4.98761440491398e-05
4.93098622057043e-05
5.53107954539805e-05
6.77951039507551e-05
8.78449505747441e-05
0.000116928835640444
0.000156059057750432
0.000206334073304781
0.00026749949593899
0.000336916779882458
0.000410197408299751
0.000484015045875251
0.000553306475965591
0.000612030011073334
0.000660648481262607
0.000711832718199967
0.000802814908648734
0.00101158097769625
0.00129165166213091
0.00156900861157941
0.00184052753610065
0.00210072718560532
0.00235011205819537
0.00258818266100339
0.00281609834163175
0.00303445367014885
0.00324412351410048
0.00344567956492562
0.00363964857944218
0.00382638608259693
0.00400617018408655
0.00417920798297526
0.00434579302633515
0.00450458455331895
0.00465486347420092
0.00479735236313515
0.00493228234994352
0.00505968120704698
0.00517953282091896
0.00529182188137558
0.00539654314572814
0.00549370606320691
0.00558333900199788
0.00566549065058767
0.00574022955499619
0.00580764463098337
0.00586784305277746
0.00592094787995591
0.00596709663900697
0.00600643806048551
0.00603913117301252
0.0060653426838038
0.00608524549100501
0.00609901710683795
0.00610683830022924
0.006108891690765
0.00610535911240654
0.00609641764496923
0.00608223218527395
0.00606294417129393
0.00603866165904938
0.00600945823146408
0.00597538321538812
0.00593649292931369
0.00589286256532373
0.00584457041808558
0.00579167133443942
0.00573415125158443
0.00567188929851399
0.00560462377467112
0.00553193495741318
0.00545328118797088
0.0053678764542705
0.00527473620357445
0.0051723696552576
0.00505908406377695
0.00493201095161351
0.00478839259123046
0.00462349920143926
0.00443384008463
0.00420231973948908
0.00404402569581858
0.00412993383969608
0.00433797618411263
0.00462394250025176
0.00494830114594159
0.00530439281227069
0.0056946407215606
0.00612333447519396
0.00655768022211201
0.00697359009584517
0.00734477111218804
0.00764583025811393
0.00783307464309538
0.00793450335586132
0.00799804136736842
0.00806229233716653
0.00817434945487456
0.00840451394978516
0.00886235262916734
0.00951727405488775
0.0103845570713694
0.011508540058988
0.0126629385832805
0.0133585098647505
0.0119652136679355
0.00955103730463034
0.00727279278042704
0.00643473233443173
0.00868046422978509
0.00823049043875468
0.00632414563678398
0.00377344272637351
0.00171505014090516
0.000769543154992944
0.000626747534915014
0.000425944989728748
0.000249964631418447
0.000161546160138752
0.00011623281630176
9.58328449623877e-05
9.39038406024813e-05
0.000104302222643638
0.000126606136725074
0.000162281373371392
0.000213278771634094
0.000280370993145789
0.000364038015874074
0.000462188873606719
0.00056916283089419
0.000677785761305036
0.000783834875707389
0.000881859751575902
0.000966398683896874
0.0010408685278773
0.0011248247282686
0.00126733087843336
0.0015585129553398
0.00192728537598675
0.00228369300035092
0.00262573934304269
0.00294841383390954
0.00325427242646054
0.00354369531399632
0.00381886027877407
0.00408095564900971
0.00433136803081911
0.00457102434059395
0.00480073657170303
0.00502107761473549
0.00523249639750422
0.00543530585479965
0.00562932133817851
0.00581286613913245
0.00598683026854973
0.00615163763876549
0.006307453999659
0.00645433577946698
0.0065923106518494
0.00672140477350609
0.00684165163087701
0.00695309756795778
0.00705580655989029
0.007149862016436
0.00723536669650783
0.007312443262504
0.0073812322524504
0.00744188973427536
0.00749458569838904
0.00753950085576097
0.00757682555333975
0.0076067570337823
0.00762949783174492
0.00764525393117353
0.00765423336195869
0.00765664450855843
0.00765269348590093
0.00764258014728867
0.00762649077736031
0.00760458656819782
0.00757699356242077
0.0075438007410532
0.00750506948936455
0.00746086470467379
0.00741126920876308
0.00735636897403049
0.00729622545800633
0.00723082882656531
0.00716005800509058
0.00708364200272665
0.007001145907897
0.00691199692009834
0.00681538364402198
0.00671025882551689
0.00659510051358998
0.00646810999887824
0.00632638310986438
0.00616685447811429
0.00598470461008161
0.0057755787208438
0.00552036456126714
0.00534031781828259
0.00542281947466657
0.00565922633117414
0.00599190421394395
0.00637852850063975
0.00680971885767334
0.00728673296778653
0.0078095720373594
0.00834305898891053
0.00885840159758955
0.00932685370185766
0.00972065767730991
0.00999903976143538
0.0101893121756493
0.0103412964428536
0.0104978336902852
0.0107096891257961
0.0110520167149909
0.0116341648551898
0.012429672366094
0.0134385631913506
0.0146840979967976
0.0159269265510372
0.0166949207667927
0.0154558757607211
0.0129237751436614
0.0101504094673457
0.00891443357932154
0.0107899140883367
0.0102096756337581
0.0083165316206617
0.00537581816954149
0.00283160048786317
0.00134164432499821
0.00103413008643602
0.000720238835191419
0.00043234158150315
0.000280813989371723
0.000202246242152573
0.000165939713528722
0.0001608917782471
0.000176493187632303
0.000211380445612973
0.00026673324316518
0.000344069803569259
0.000442573395359182
0.000560661638405567
0.000693312740451237
0.000832055156688723
0.000968675849087227
0.00109997540714653
0.00122203196973682
0.00133180296078362
0.00143644572172442
0.00156136740192993
0.00176191327842665
0.00212640229103631
0.00256424258164325
0.00298125870165819
0.00337622990216814
0.00374590670229011
0.0040944285376037
0.00442301654944828
0.0047345107124826
0.00503051348245765
0.00531271728324684
0.00558227390270619
0.00584016701997732
0.00608710742923468
0.00632365518572027
0.00655027096264576
0.00676519139237994
0.00696890984612366
0.00716202661174522
0.0073448519085802
0.00751753869268439
0.0076801684155574
0.00783279955510423
0.00797548767863855
0.00810829405062892
0.00823129180974375
0.00834457111814202
0.00844824127950508
0.0085424309263298
0.00862728859072411
0.00870298073516238
0.00876968939867837
0.00882761040003595
0.00887695014638449
0.00891792438243207
0.00895075528282598
0.00897566973360242
0.00899289717680613
0.00900266816398423
0.00900521237034589
0.00900075603396785
0.00898951806657515
0.00897170312410646
0.00894749008821769
0.00891702203768414
0.00888040346868364
0.0088377083490401
0.00878901045693454
0.00873440039145171
0.00867397234703067
0.00860779627674326
0.00853587102072687
0.00845808335435162
0.00837416612743374
0.00828368678830475
0.00818606616940473
0.00808049826417613
0.0079659192931343
0.00784083134375303
0.00770341991982627
0.00755085314527367
0.00737992711123194
0.00718596319024775
0.00696414231834184
0.00669548724598712
0.00650139682064414
0.00657610511624293
0.00682944707035866
0.00719471355108364
0.00762820452713032
0.00811723326591139
0.00866113653209383
0.00925605903869845
0.009865540451798
0.0104573594611309
0.0110011871571078
0.0114681874301804
0.0118217732125197
0.0120884822179001
0.0123185199344554
0.0125572842505437
0.0128572876396132
0.0132954612376674
0.0139759102580291
0.0148773095944615
0.0159888961312733
0.0173120380374689
0.0186072492640939
0.0194089574415535
0.0183392159096796
0.0158921123081925
0.0129060257040566
0.0112774469446581
0.0127594609479411
0.0119902555355507
0.0101713766339408
0.00698224021804894
0.00411876369906716
0.00215126862642463
0.0015501468751627
0.00110163974094787
0.000680813979479774
0.000446507983227629
0.000322814421770408
0.000263871322593016
0.000252751107475004
0.000273103718419323
0.000321620336731444
0.000397960203750017
0.000501832311600167
0.000629569748850075
0.000776888343818151
0.000936331478075693
0.00109844706081732
0.0012560669023206
0.00140800413372811
0.00155246645715728
0.00168918780839965
0.00182874236316875
0.00200051021679877
0.0022608173084324
0.00268742350659437
0.00317800379304405
0.0036417564430578
0.0040776578583985
0.0044846097725491
0.00486750718667355
0.00522820574038804
0.00556984067389608
0.00589426210928862
0.00620330740755309
0.00649825838697672
0.00678019349391409
0.00704990918655761
0.00730802755586159
0.00755441641701972
0.00778776087767181
0.00800908616632048
0.00821885948867012
0.00841734623619037
0.00860470300172347
0.00878103272854259
0.00894641807569364
0.00910093784261401
0.00924467546303742
0.00937772568097079
0.00950020002035579
0.00961222915986691
0.00971396332821819
0.00980557291031268
0.00988724649857101
0.00995918851363416
0.010021617226314
0.0100747615189094
0.0101188595145335
0.0101541554432743
0.010180897836586
0.0101993370147698
0.0102097236208041
0.0102123063298145
0.010207329384804
0.0101950288867879
0.0101756264000327
0.0101493175357754
0.0101162620174809
0.010076580033664
0.0100303584529226
0.00997768016095047
0.00991864377372345
0.00985335223058887
0.00978188532653509
0.00970425331420241
0.00962035548877875
0.00952993598235228
0.00943257403717814
0.00932769817905704
0.00921452361861212
0.00909199594945269
0.00895866676832686
0.00881275731702736
0.00865155366220545
0.00847198503943733
0.00826933244304253
0.00803860848061973
0.0077620829869212
0.0075586833398587
0.00762410409645947
0.00788738559210155
0.00827631040060655
0.0087460822818222
0.00928084094389365
0.00987764282776557
0.0105292226957765
0.0111982890937937
0.01185003971771
0.0124530342507449
0.0129781443885743
0.0133931147837904
0.0137238634634448
0.0140202741587185
0.0143292174412569
0.0147039951182015
0.0152218745368899
0.0159805403200764
0.0169631859699124
0.0181517780249137
0.0195268712194332
0.0208533306463902
0.0216651791940777
0.0207326224308609
0.0184200742006185
0.0154366354580228
0.0135198091506572
0.0146219450737177
0.0136458684132633
0.0118874986406029
0.00854293240228831
0.00547445242411345
0.00316619385459267
0.00215926286351481
0.00154766666296276
0.000987463642072334
0.000656590876574121
0.000477939005034641
0.000389868812289725
0.000368630022516071
0.000391714150253884
0.000452717982741633
0.000548409602262066
0.000675519060555309
0.000827120211866288
0.000996699822817903
0.00117571691864531
0.00135537830485797
0.00153045757045772
0.00170171409650784
0.0018693320297936
0.00203553432212834
0.00221352948860566
0.00243452912998194
0.00275191630839649
0.00322969234694527
0.00376148762540526
0.0042628052322472
0.00473234330373905
0.00517086215409009
0.00558336286386276
0.0059721371091534
0.00634037469574237
0.00669006628075054
0.00702310055212568
0.00734083477855281
0.00764440017151054
0.00793465158726966
0.00821233104836217
0.00847621145243305
0.00872642572561175
0.00896379295999646
0.00918871398509475
0.00940143819586006
0.00960213225325865
0.00979091869694252
0.00996790111523328
0.0101331784381896
0.0102868534133289
0.0104290397054984
0.0105598676925442
0.0106794870561516
0.0107880673533183
0.0108857986998149
0.0109728898005022
0.0110495655456714
0.0111160648608597
0.0111726373660442
0.0112195419510115
0.0112570433465697
0.011285410280346
0.0113049125540136
0.0113158195990406
0.0113183978591977
0.011312908449487
0.0112996036726713
0.0112787212799427
0.0112504731827736
0.0112150356586247
0.0111725448759135
0.0111231009521999
0.0110667961699584
0.0110037375194997
0.010934037261682
0.0108577861708528
0.0107750079222738
0.010685617555502
0.0105893754377226
0.0104858786551449
0.0103745726880912
0.0102547037878738
0.0101252434625551
0.00998480616588387
0.00983180363854652
0.00966354956834905
0.00947701149556424
0.00926765708082024
0.00903052343909277
0.00874954057288392
0.00853989649564946
0.00859599065133207
0.0088647177682189
0.00927117581215228
0.00976967714145912
0.0103414545767101
0.0109811204412539
0.0116783585278085
0.012395223937271
0.0130949262623496
0.013745242849342
0.01431731048228
0.0147830347948996
0.0151678990396597
0.0155211030431571
0.0158902404928287
0.0163288342021607
0.0169136381002017
0.0177359561012677
0.0187824346897286
0.0200298241776141
0.0214395873054115
0.0227821997620671
0.0235890773779854
0.0227526016283595
0.0205706948583692
0.0176970336208311
0.0156178176249737
0.0163748517416022
0.0152174346194874
0.0134745997592089
0.0100522141946278
0.00684094668038611
0.0043250168103997
0.00285027020885485
0.00203470621545015
0.00133640715959863
0.000902454803303322
0.00066273636429014
0.000540577471018656
0.000504788556701312
0.000527478869994232
0.000598257311871826
0.000709945376892832
0.00085565224910557
0.00102550054954161
0.00121162198256661
0.00140552121971271
0.00159982669616632
0.00179127652815008
0.00198219296111822
0.00217441019843056
0.00237215336106431
0.00259030620787725
0.00285998327164869
0.0032294667908536
0.00374948837743381
0.00431509402729877
0.00484819278531472
0.00534705440213026
0.0058137611813908
0.00625305894218757
0.00666751563894513
0.00706024412620667
0.00743330852213665
0.00778859906099823
0.00812751704323662
0.00845122408694254
0.00876060909316658
0.00905621021246629
0.00933662053588481
0.00960269138464346
0.00985509307474871
0.0100941935840986
0.0103202401437658
0.0105334125931512
0.0107338521865965
0.0109216818305078
0.0110970190066865
0.0112599842886641
0.011410708836288
0.0115493405523328
0.011676046849765
0.0117910153850211
0.0118944548741609
0.0119865930522882
0.0120676742598414
0.0121379571265205
0.0121977110719321
0.0122472149105214
0.0122867530428834
0.0123166136424267
0.012337085251575
0.012348455420383
0.012351007721676
0.0123450195582057
0.0123307589305578
0.0123084794645378
0.0122784092336795
0.0122407411565409
0.0121956277725414
0.0121431828773478
0.0120835085142751
0.0120167205037576
0.0119429410633351
0.0118622729850044
0.0117747550034337
0.0116803203872888
0.0115787493954064
0.0114696613162448
0.0113525252865196
0.0112266255762153
0.0110909702808224
0.0109444370808931
0.0107852915655225
0.0106110309231791
0.0104187349072735
0.0102041003489868
0.00996233507795101
0.00967916459048587
0.00946545141208247
0.00951275770577292
0.00978391705993976
0.0102034693619708
0.0107250657180844
0.0113273221648928
0.0120023509091603
0.0127370624402153
0.0134929166045308
0.0142315731562349
0.0149203043937391
0.0155309470397078
0.0160393232118098
0.0164706323251168
0.0168731778738176
0.0172947253964079
0.0177886187820498
0.0184304959766822
0.019305628690238
0.0204030440884084
0.0216953268171251
0.023126762212062
0.0244737117155668
0.0252654418065745
0.0244919052377245
0.022422089159386
0.0196924386418393
0.0175499167882771
0.0180081893801134
0.0167194451144616
0.0149419290101266
0.0115226271212974
0.008188696616153
0.00556923586208198
0.00363103155228802
0.00255297946674273
0.00171351175709243
0.00117394025521864
0.000870091422443124
0.000710875896965827
0.000656556675885186
0.00067541165273135
0.000752638231199855
0.00087653638100384
0.00103639823251263
0.00121997379050277
0.00141878540896799
0.00162500685122834
0.00183283499271149
0.00204068746660607
0.00225208552942134
0.00247017364258997
0.00270063080195951
0.00295907251253955
0.00327511333096653
0.00369126127537521
0.00424704393172328
0.00484184833557629
0.00540310049948021
0.00592871772885186
0.00642156159266231
0.00688596673467217
0.00732464686377128
0.0077405735490035
0.00813583855476856
0.0085123078346697
0.00887140706698483
0.00921431697457581
0.00954196923767655
0.00985444125381715
0.0101507744005856
0.0104320348114331
0.0106988112797645
0.0109514570801252
0.0111902247553809
0.0114153091750292
0.0116268700143423
0.0118250487635579
0.0120099807112348
0.012181803525506
0.0123406651444708
0.0124867303470468
0.0126201836477983
0.0127412301859942
0.0128500967436789
0.0129470295695589
0.013032291981348
0.0131061618870024
0.0131689280616455
0.0132208888892374
0.0132623480633633
0.0132936129013823
0.0133149903619091
0.0133267858522028
0.0133292998119622
0.013322825696079
0.0133076469990833
0.0132840331669416
0.0132522284762809
0.0132124426876515
0.0131648451949369
0.0131095639918411
0.0130467113111526
0.012976412338475
0.0128987999351179
0.0128139898921678
0.0127220374161487
0.0126228960491192
0.0125163688208288
0.0124021005935773
0.0122795892395207
0.0121481771937496
0.0120070717601316
0.0118550511027033
0.0116904679746136
0.0115109980048061
0.0113138649454805
0.0110950218850967
0.0108499539087312
0.0105661858886201
0.0103500337561891
0.0103893043651374
0.0106608207099239
0.0110901090839661
0.0116304187170211
0.012258031386
0.0129625679944469
0.0137283825885315
0.0145163470748645
0.0152869142086828
0.0160071113783032
0.0166498338527751
0.0171945710274859
0.0176663366457133
0.0181123857886912
0.0185802234078913
0.0191226895907654
0.0198138288015906
0.0207332470684337
0.0218714055292582
0.023197232630412
0.0246398180039736
0.0259816524784272
0.0267513292915803
0.0260167574799798
0.0240391799592719
0.0214527786680244
0.0193111349626076
0.0195182829309783
0.0181526255649382
0.016301066818529
0.0129693560789868
0.00950081261907538
0.00684579971158086
0.00452655616077418
0.00310945172261065
0.00211267429426045
0.00146426243268213
0.00109404327215308
0.000896164629922925
0.000820130133296102
0.000831885559973249
0.000912196943713999
0.00104472148447984
0.0012150230624
0.0014090373318047
0.00161814528579544
0.00183542041149665
0.00205649453574965
0.00228114080043564
0.00251378948471401
0.00275856623178378