/*--------------------------------*- C++ -*----------------------------------*\
  =========                 |
  \\      /  F ield         | OpenFOAM: The Open Source CFD Toolbox
   \\    /   O peration     | Website:  https://openfoam.org
    \\  /    A nd           | Version:  7
     \\/     M anipulation  |
\*---------------------------------------------------------------------------*/
FoamFile
{
    version     2.0;
    format      ascii;
    class       volScalarField;
    location    "20000";
    object      k_conv;
}
// * * * * * * * * * * * * * * * * * * * * * * * * * * * * * * * * * * * * * //

dimensions      [0 2 -3 0 0 0 0];

internalField   nonuniform List<scalar> 
15600
(
-1.74179085737749e-06
-6.16424204825997e-08
-2.17523917960024e-07
-3.71522340365418e-09
1.07946302950766e-08
-6.1593290840509e-08
-5.14262367316871e-08
-2.37073629708228e-08
-8.68540719093079e-09
-4.7209856959727e-09
-2.06775494140131e-09
-8.16406046290119e-10
-8.91821847317325e-11
-1.23963648722369e-10
-2.12981922711494e-10
-3.48463809075412e-10
-5.335815497537e-10
-7.74215471875959e-10
-1.03863078922789e-09
-1.25703706516824e-09
-1.36498793880062e-09
-1.37965559148154e-09
-5.17939747925045e-09
-1.4754523421106e-08
-2.08670865655138e-08
-2.07756494297543e-08
-6.51775203871089e-09
-4.91974066149898e-09
-1.1435654357727e-08
-1.62947748606845e-08
-2.09926452681319e-08
-2.50346644630116e-08
-2.8478788181448e-08
-3.13080859619391e-08
-3.3679484929274e-08
-3.56282971681784e-08
-3.72391276255154e-08
-3.85339453017072e-08
-3.95448918717792e-08
-4.02802722686743e-08
-4.0754797646222e-08
-4.09846745387577e-08
-4.09958967701012e-08
-4.08150166617621e-08
-4.05221544107945e-08
-4.01599297300806e-08
-3.96281741828649e-08
-3.84398165162431e-08
-9.27083479648413e-08
-1.62496777842448e-07
-2.3329894679384e-07
-3.04324037871952e-07
-3.74760477456639e-07
-4.43804946754179e-07
-5.10702805739076e-07
-5.7473728565499e-07
-6.3526505811114e-07
-6.9172964351766e-07
-7.43647600264885e-07
-7.90640363612449e-07
-8.32403411457996e-07
-8.68725551589393e-07
-8.99475984466933e-07
-9.24601040468758e-07
-9.44123447790898e-07
-9.5813098970807e-07
-9.66782804431556e-07
-9.70297806978491e-07
-9.68952272114364e-07
-9.63066183916704e-07
-9.529756427819e-07
-9.38964861680435e-07
-9.21263621860897e-07
-8.99975939487855e-07
-8.75253864388436e-07
-8.47372770869075e-07
-8.16668627849817e-07
-7.83540365412046e-07
-7.48316712542719e-07
-7.11132766444474e-07
-6.72085192274308e-07
-6.30631150289282e-07
-5.86963638898714e-07
-5.39693150378858e-07
-4.89679898477907e-07
-4.33528645908436e-07
-3.74069316951765e-07
-3.03873610930337e-07
-2.31535364092296e-07
-1.46056764954406e-07
-7.97711183628639e-08
-2.32494784903162e-08
-6.30258423991356e-09
-6.89908785740319e-08
-1.53936724321334e-07
-4.28599218447745e-07
-7.2242375344615e-07
-1.13036215695962e-06
-1.62302289821673e-06
-2.34130531905678e-06
-3.08916056249464e-06
-3.87901751300794e-06
-4.50490346383718e-06
-4.86871382718966e-06
-4.41402235755863e-06
-3.88359160820622e-06
-3.57932532812968e-06
-3.48232549070816e-06
-3.90038051811508e-06
-5.33640406831104e-06
-9.19851362554391e-06
-1.38645581659914e-05
-2.20067947961366e-05
-3.77812972622666e-05
-5.51268743208643e-05
-3.22965041048612e-05
-2.77614819424666e-06
-1.93935131319678e-06
-9.0402335460241e-07
-1.56650436349773e-07
-1.40583987409093e-05
-5.39375410089211e-06
-1.54351997379934e-05
-2.72856787986974e-06
1.15455114070707e-06
-9.46009468786072e-07
-1.02369209166949e-06
-4.46258894716942e-07
-1.73953760039005e-07
-9.40421361075556e-08
-4.34552779140154e-08
-1.86732700490303e-08
-6.05606346375753e-09
-1.09444236080659e-08
-1.81370393482657e-08
-2.90630559708283e-08
-4.45502918163078e-08
-6.50303847042009e-08
-8.8601900830278e-08
-1.10641935864014e-07
-1.26644510854458e-07
-1.34837914821533e-07
-1.33032966321969e-07
-3.09000945868853e-07
-4.04675365197219e-07
-3.4416658199292e-07
-1.45658018240149e-07
-4.20892415186285e-07
-8.91219724470138e-07
-1.25737156598208e-06
-1.60566498167201e-06
-1.91008043091084e-06
-2.17525571543151e-06
-2.3996499785176e-06
-2.5932503170914e-06
-2.75772499192666e-06
-2.89874852354317e-06
-3.01762711209032e-06
-3.11673606523537e-06
-3.19680242469235e-06
-3.25917274769725e-06
-3.30536326955541e-06
-3.33770338773554e-06
-3.35846181374854e-06
-3.37447812035738e-06
-3.38915485410343e-06
-3.39330709669429e-06
-4.43499059269167e-06
-5.8880563033401e-06
-7.34209748697133e-06
-8.79481032222692e-06
-1.0231338441737e-05
-1.16368075696637e-05
-1.29968550353247e-05
-1.42981701821492e-05
-1.55284485501706e-05
-1.66768480501469e-05
-1.77341496438623e-05
-1.86926058216076e-05
-1.95462665965324e-05
-2.02906087390886e-05
-2.09227175405162e-05
-2.14411143649507e-05
-2.18456825633468e-05
-2.21376355007242e-05
-2.23193618471708e-05
-2.23944680470511e-05
-2.2367580862537e-05
-2.22442095351896e-05
-2.2030391838073e-05
-2.17321007516205e-05
-2.13542448940462e-05
-2.09006266756424e-05
-2.03735313494575e-05
-1.97764137095372e-05
-1.9114805562094e-05
-1.83951691224499e-05
-1.76243730137704e-05
-1.68073498157892e-05
-1.59452030094783e-05
-1.50367207000146e-05
-1.40715306237034e-05
-1.30470516918627e-05
-1.19391184860575e-05
-1.07495464296574e-05
-9.42321448212114e-06
-7.98124470390096e-06
-6.3116134541316e-06
-4.51828548490498e-06
-2.47119290765106e-06
-6.59591667186958e-07
6.55442229355009e-07
-4.14374856341968e-07
-2.55813456404572e-06
-5.58385428073848e-06
-1.17682841085486e-05
-1.86277126365202e-05
-2.75589530383453e-05
-3.84930590503955e-05
-5.35011932184354e-05
-6.94423437851466e-05
-8.52142144436564e-05
-9.79971324129172e-05
-0.00010521978554804
-9.79486452490075e-05
-8.83482561766037e-05
-8.2248484037764e-05
-8.03510699200685e-05
-8.80008631582281e-05
-0.000115841236168951
-0.000186674191950778
-0.000278703538100995
-0.000433163515416657
-0.000710318985865053
-0.00102195773565612
-0.00070161382776423
-0.000174637395078587
-0.000124857520392549
-6.55095277816736e-05
-1.47850361326554e-05
-1.56946393828134e-05
-4.25186108126388e-05
-0.000125248643575268
-4.04015818614748e-05
1.82191179490779e-05
-2.90896237488066e-06
-5.38303466835645e-06
-2.20580126852978e-06
-9.14522861071751e-07
-5.08505509983819e-07
-2.48847218674871e-07
-1.2127349187404e-07
-7.0052664072777e-08
-1.17795166576951e-07
-1.876754785928e-07
-2.95543111628878e-07
-4.54768144626436e-07
-6.71152230814333e-07
-9.32257347707663e-07
-1.20226992817355e-06
-1.43708109644724e-06
-1.59545380048467e-06
-1.63879236628573e-06
-1.93259033697292e-06
-2.21331406960095e-06
-1.39414920370438e-06
-1.72572567539332e-06
-3.95863171770825e-06
-7.94294018007843e-06
-1.11123568527403e-05
-1.42779930931153e-05
-1.70553265552647e-05
-1.95857924381775e-05
-2.17899973219587e-05
-2.37660132300499e-05
-2.55048353334722e-05
-2.70604983856812e-05
-2.84395379229517e-05
-2.96671553421022e-05
-3.07513559675769e-05
-3.17081171530345e-05
-3.25543007642869e-05
-3.33151519479506e-05
-3.40111954050754e-05
-3.47142262596585e-05
-3.54609766834e-05
-4.04679626074725e-05
-4.74914438786952e-05
-5.40621884794876e-05
-6.05060277692951e-05
-6.67730160455116e-05
-7.28150099072064e-05
-7.85862426230838e-05
-8.40445815083594e-05
-8.91526222493399e-05
-9.38775857351781e-05
-9.81920471072595e-05
-0.000102074048359107
-0.00010550659945199
-0.000108478022340222
-0.000110981074122603
-0.000113013082894558
-0.000114575528133374
-0.000115673785363635
-0.000116317052641577
-0.00011651798890502
-0.000116292721876147
-0.000115660128345927
-0.000114640938893883
-0.000113255988190471
-0.000111523902712388
-0.00010945843117943
-0.000107069149753646
-0.000104363063148708
-0.000101353015091115
-9.8058855581531e-05
-9.45024522148085e-05
-9.07036549775055e-05
-8.66713443308756e-05
-8.23967206001295e-05
-7.78564500175431e-05
-7.29954151936674e-05
-6.77723228012198e-05
-6.20714538308137e-05
-5.58389045678955e-05
-4.8827854883819e-05
-4.10005235441562e-05
-3.18808979720532e-05
-2.1707592834453e-05
-9.99463659893443e-06
1.42541227057298e-06
5.66889303526092e-06
-2.65667877513688e-06
-1.96028708924243e-05
-4.00733620690605e-05
-7.34796745506871e-05
-0.000110369146614644
-0.000156629275396821
-0.000213415693722432
-0.000292956532567181
-0.000371437960451081
-0.000449887284620603
-0.000515977140102022
-0.000556523019253672
-0.000536647948994388
-0.000502105369257572
-0.000478824211854592
-0.000474451243299713
-0.000513686976315118
-0.000650815804901594
-0.000976907510507687
-0.00141218097316111
-0.00208958270007308
-0.00316454407343281
-0.00429164705235225
-0.00327334924314169
-0.00127524972926349
-0.000852767375264638
-0.000475121403073941
-0.00010182511909018
9.57600456174538e-06
-9.59481642209471e-05
-0.000434012747712386
-0.000241667221942589
0.00010258146001587
3.80776604850129e-06
-1.51263322587758e-05
-5.82538407242098e-06
-2.57723630451069e-06
-1.51051695973045e-06
-7.79675584079113e-07
-4.29570022980198e-07
-3.42603345063733e-07
-5.57069760015244e-07
-8.66882301650074e-07
-1.35218820127695e-06
-2.08518815744777e-06
-3.09974160679715e-06
-4.35938975548798e-06
-5.73145234313175e-06
-7.00340051208996e-06
-7.93439365058816e-06
-8.26471464103516e-06
-7.37273516097896e-06
-6.33305443492558e-06
-5.9374963069091e-06
-7.39787382313869e-06
-1.62101744084575e-05
-3.05883875825837e-05
-4.09048614739043e-05
-5.19702155962409e-05
-6.12141019612397e-05
-6.98746425685706e-05
-7.73495819575145e-05
-8.41596377185624e-05
-9.01820790204865e-05
-9.56728892901195e-05
-0.000100643376133099
-0.000105214983722147
-0.000109424324904498
-0.000113343244211161
-0.000117036814713395
-0.000120604839260085
-0.000124089547157525
-0.000127768364490189
-0.000140087964010036
-0.000153919691460868
-0.000164591194059785
-0.000174705135096846
-0.000184207822344578
-0.000193071423288746
-0.000201271117431897
-0.000208786421688524
-0.000215601392169238
-0.000221704906456753
-0.000227090623065592
-0.000231756434010956
-0.000235704263057237
-0.000238939589273004
-0.000241470961614467
-0.00024330981958831
-0.000244470018413039
-0.00024496789038057
-0.000244822063925351
-0.000244053676470056
-0.000242686213858124
-0.000240745384274563
-0.000238258022104846
-0.000235250045449088
-0.000231743165413464
-0.000227751897844312
-0.00022328194920062
-0.000218333693366525
-0.000212909633571471
-0.000207023144808994
-0.000200695121525548
-0.000193944728950601
-0.000186780254727531
-0.000179186001758445
-0.000171112772437822
-0.000162480255848984
-0.000153160346817659
-0.000143020146133727
-0.00013181008474854
-0.000119316225249254
-0.000105026671507003
-8.86174937592983e-05
-6.90881129217829e-05
-4.63776084687402e-05
-1.92274215247078e-05
1.00931948020686e-05
1.93292204992542e-05
-2.44691360043955e-06
-5.59605380439209e-05
-0.000108600896638615
-0.000182299582056218
-0.00026156364197152
-0.000357773212252458
-0.000488551395077967
-0.000646820749295418
-0.000805536195268542
-0.00096665265642663
-0.00111100706808489
-0.00121445354689385
-0.00122466429591952
-0.00120411490820638
-0.0011942263033513
-0.00121601566956766
-0.00131862927953486
-0.00161827369869174
-0.0022639529093824
-0.0031276220573993
-0.0043420993033002
-0.00596506136507027
-0.0075400889310929
-0.00621873812643101
-0.00344684201788508
-0.00212025516362237
-0.00106230343734642
-2.48230666479114e-05
0.000518027048648274
0.000111344382836376
-0.000643154762004518
-0.000583617950602587
0.000185578761662624
2.17825438279522e-05
-2.73002615752541e-05
-9.8197463409468e-06
-4.76397800887144e-06
-3.07995479856487e-06
-1.68174882755591e-06
-1.05268777387967e-06
-1.07026875292938e-06
-1.73290330105151e-06
-2.67024547135401e-06
-4.14047439290594e-06
-6.36343028520191e-06
-9.43713544599329e-06
-1.32555658608117e-05
-1.74250809206699e-05
-2.12512462224921e-05
-2.39893204585537e-05
-2.49571803300997e-05
-2.36582284808131e-05
-2.00096809608198e-05
-1.69927209759323e-05
-1.78102281411917e-05
-3.86152370463858e-05
-6.62907839443823e-05
-8.26977020810952e-05
-0.000103912437206776
-0.000120217585403316
-0.000136442960454338
-0.000150160013251369
-0.000162920678778124
-0.000174162845030219
-0.000184528898935346
-0.0001939669277042
-0.000202748507493645
-0.000210923876464297
-0.000218625284557411
-0.000225951917431328
-0.000233113609307769
-0.000240065592534371
-0.000257127037337915
-0.000273033471559993
-0.000282295569805074
-0.000290875897975024
-0.000298590814770441
-0.000305447774496866
-0.00031146657771408
-0.000316667847596582
-0.000321074628663786
-0.000324711325085642
-0.00032760348116445
-0.000329777865864355
-0.000331261013178152
-0.000332079199356455
-0.000332258246633439
-0.000331822840619652
-0.000330797237494074
-0.000329204511879052
-0.000327067321195607
-0.00032440789276141
-0.000321248708856587
-0.000317612522922437
-0.00031352233175253
-0.000309000197338941
-0.000304064678764438
-0.000298726886049048
-0.000292987958985429
-0.00028683890666131
-0.000280266047977273
-0.000273262189188658
-0.000265833635555389
-0.000257992385721129
-0.000249744512791479
-0.000241078962838626
-0.000231954174098695
-0.000222288736134856
-0.000211962736894239
-0.000200805237561167
-0.000188624151519463
-0.000175098315092489
-0.000159903627429277
-0.000142389932591014
-0.000121998860228629
-9.74029962290053e-05
-6.80936586161152e-05
-3.19544757153721e-05
9.87647754796345e-06
3.38849685916894e-05
8.71460642150344e-06
-8.14620639350907e-05
-0.000156196198120323
-0.00025085690301209
-0.000349157843641642
-0.000486833617005247
-0.000635652826765152
-0.000817019113037589
-0.00100137063913153
-0.00118921589812511
-0.00136575193528045
-0.00150755339089083
-0.00157254795218633
-0.00160672896022441
-0.00164396695984338
-0.00171057426870989
-0.00185887487962893
-0.00222360050801615
-0.00292871601112672
-0.00388362974538478
-0.00514235678312398
-0.00657531721516275
-0.00811228806433172
-0.00716070063141081
-0.00527365183628936
-0.00332563176659819
-0.0014021738134035
0.000787805374617574
0.00119191257667457
0.000623589049141432
-0.000122425242130383
-0.000624822816010103
0.000237913262177141
0.000100671601812338
-2.66299259199042e-05
-8.02380571508918e-06
-5.16549857811022e-06
-4.38036343175998e-06
-2.61155011283221e-06
-1.94055970032111e-06
-2.51003744683632e-06
-4.13700412386728e-06
-6.35413245578974e-06
-9.76154161981843e-06
-1.47849701206748e-05
-2.15234823077849e-05
-2.95657767089967e-05
-3.78641575722075e-05
-4.4824709894915e-05
-4.90984215389218e-05
-4.9700787663399e-05
-4.6047161409283e-05
-3.87108416337844e-05
-3.07540284543894e-05
-3.0958009434514e-05
-6.44859615446366e-05
-9.90435914176461e-05
-0.000121785261514315
-0.00015695765922808
-0.000182101320219294
-0.000207611678750716
-0.000228097676090324
-0.000246744317374446
-0.000262515773373958
-0.000276621860530388
-0.000289018606854215
-0.000300191362641525
-0.000310250135451369
-0.000319409379146273
-0.000327802117574784
-0.000335841091849221
-0.000349845393542824
-0.000365772855251316
-0.000371746886187788
-0.000377271500205341
-0.000381974181826296
-0.000385812374604155
-0.000388821980049399
-0.00039104564071926
-0.000392525625885627
-0.000393305084151812
-0.000393426402221728
-0.00039293082217469
-0.000391858249239684
-0.000390245656334899
-0.000388127190482099
-0.000385534002905138
-0.000382493892732356
-0.000379032215138147
-0.000375171213357313
-0.000370931145219357
-0.000366330303751455
-0.000361386124455945
-0.000356115165912618
-0.000350533421073726
-0.000344655191550029
-0.000338490583431753
-0.000332041378040815
-0.000325298903009476
-0.00031824404120537
-0.000310852943752336
-0.00030310931062273
-0.000295012025692472
-0.000286565399508106
-0.000277766283241939
-0.000268593048882799
-0.000258992246803704
-0.000248870063076458
-0.000238092533923547
-0.000226475313779835
-0.000213809195859436
-0.000199756953456738
-0.000183963195700522
-0.00016575240885151
-0.000144489182811478
-0.000118754149539693
-8.78267734619252e-05
-4.91520817649633e-05
-3.38075535973847e-06
3.82016878596963e-05
2.09305734507565e-05
-8.71002684518218e-05
-0.000169934627278628
-0.000271889485050803
-0.000392631392672023
-0.00051481400535972
-0.000659240157275131
-0.000829382937068609
-0.00100056545368826
-0.00117447204123212
-0.00134179298913788
-0.00148428508011505
-0.00157322057424379
-0.00163570963532597
-0.00169196154586515
-0.00176496448404523
-0.00189723103737715
-0.00220650264212198
-0.00276910125121412
-0.0035574587103675
-0.00460681984518683
-0.0056874728121535
-0.00712337201839129
-0.00663093472332395
-0.00627178222695873
-0.00440217471196319
-0.00277957789066151
0.00101346451937664
0.00102670146965123
0.000769991840584279
0.000811352737413517
-0.000181164537527504
0.000407159360528879
0.000356933743168632
2.05419846190469e-05
1.37054302971575e-05
2.18183348770383e-06
-2.90826855773549e-06
-2.40855912888306e-06
-2.63115172801203e-06
-4.71058335134358e-06
-8.07311922877294e-06
-1.23750826143571e-05
-1.86711896926428e-05
-2.74489398763614e-05
-3.84861291447527e-05
-5.06080165513005e-05
-6.18571101711994e-05
-7.00406722101944e-05
-7.39579573376575e-05
-7.30359326443877e-05
-6.72659118529895e-05
-5.78092632978325e-05
-4.9478986684617e-05
-5.55643472871621e-05
-0.000101914653063502
-0.000139044608964712
-0.000174544186642724
-0.00022403766850424
-0.000256989800711419
-0.000289075094611503
-0.000313228300385586
-0.000334342267532821
-0.000351315974408394
-0.000365889957153041
-0.000378135768415268
-0.000388723283492645
-0.000397844273743689
-0.000405778926613635
-0.000412638945241522
-0.000417626187404272
-0.000437300504995314
-0.000440361050537776
-0.000443249961642022
-0.000445499631630341
-0.000446960689797494
-0.000447639307971244
-0.000447581499042168
-0.00044683762199784
-0.000445457845839678
-0.000443492733905858
-0.000440991381976049
-0.000438000831467282
-0.000434565417534832
-0.000430725269107076
-0.000426516361851064
-0.000421970223781364
-0.000417113952005805
-0.000411971017117192
-0.000406560725168372
-0.000400899536227565
-0.000395001007224925
-0.000388877289218559
-0.000382538979724392
-0.000375995871605371
-0.000369255945525571
-0.000362323165857948
-0.000355193253121998
-0.00034785168764096
-0.000340273186277542
-0.000332426767858298
-0.000324288306001028
-0.000315850270281598
-0.000307111364509523
-0.000298062799710936
-0.000288678013004667
-0.000278898941131751
-0.000268628243663828
-0.00025772765252472
-0.000246009823826927
-0.000233262541658869
-0.000219151336502207
-0.000203316063415327
-0.000185093631095721
-0.000163831650450547
-0.000138117350851886
-0.000107141482088803
-6.82048564885673e-05
-2.21842664089611e-05
3.24830963468045e-05
2.79683580784008e-05
-8.35023679261841e-05
-0.000177366133628313
-0.000285854845504559
-0.000391839223761519
-0.000507292293512947
-0.000640045918759038
-0.000791119841331986
-0.000940938217394259
-0.00109239213996559
-0.00123983928022443
-0.0013696290236087
-0.00146055817645679
-0.00152716184867481
-0.00157820871417135
-0.00163021275180074
-0.00171506553264287
-0.00192685335302118
-0.00231322208853465
-0.00288285504724546
-0.00369171701181595
-0.00449612713017939
-0.00581991873015238
-0.00574584701342741
-0.00678531779221693
-0.00519180987007957
-0.0047657362833179
-0.000486286993409459
-7.45965723485096e-05
0.000195705542443844
0.00165017036380544
0.000251884154221023
0.000746246734767378
0.000982026455001279
0.000157489885962646
7.54464044856704e-05
2.76834959116197e-05
6.24932137267591e-06
1.32911609442256e-06
-1.94798560549748e-06
-7.15351843375471e-06
-1.31834691421629e-05
-2.02105307405002e-05
-2.97226496059536e-05
-4.19662847042262e-05
-5.61484596602301e-05
-7.03475179964144e-05
-8.23695074324384e-05
-9.04242086572647e-05
-9.39765403089426e-05
-9.29845699218115e-05
-8.8210056294211e-05
-8.18415223654432e-05
-8.09065409704323e-05
-0.000100632694194716
-0.000156851931368926
-0.000193157155541575
-0.000242099934174859
-0.000299617061139505
-0.0003365803275787
-0.000370751584585483
-0.000395211926760896
-0.000415769055372643
-0.00043155130908644
-0.000444562414625388
-0.000455004018559986
-0.000463629805152791
-0.000470689617922627
-0.000476495283500707
-0.000481306614674308
-0.000496525068793349
-0.000497419912596055
-0.000498292037196918
-0.000498725745934115
-0.000498490986197622
-0.000497530609234209
-0.000495870802168537
-0.000493561347127723
-0.00049065519228631
-0.000487205610990862
-0.000483266166577257
-0.000478888784509245
-0.000474122949479837
-0.000469014634360252
-0.000463604909927954
-0.00045792989784262
-0.000452020320521237
-0.000445901821946087
-0.000439595651208984
-0.000433118170835845
-0.000426482364914416
-0.000419697615254643
-0.00041277160419812
-0.000405709995053876
-0.000398517654958554
-0.0003911978020292
-0.000383750185800208
-0.000376166731253658
-0.000368429504143887
-0.000360509368489719
-0.000352369933197808
-0.000343980197979186
-0.000335327023488627
-0.000326404814436638
-0.000317201158511772
-0.00030768729616644
-0.000297803701915748
-0.00028745294272773
-0.000276495495077569
-0.000264744004201376
-0.000251986285039349
-0.000237895377890678
-0.000222111541443478
-0.000203992034709776
-0.000182882527088264
-0.000157409273244505
-0.000123681610023639
-8.41362578484251e-05
-3.91604651163204e-05
1.8184939546166e-05
2.10002814305992e-05
-8.8312576059688e-05
-0.000179339313732005
-0.000281010382293458
-0.000382171169291833
-0.000489701198574942
-0.000610239144024216
-0.000743397203449175
-0.000873371219679247
-0.00100429882096475
-0.00113283886922893
-0.00124865157916331
-0.00133375801724208
-0.00139504429724057
-0.00143296083690104
-0.00145749718358559
-0.00149209294746607
-0.00161028578470748
-0.00184777824048827
-0.00222666898353925
-0.00282678408768485
-0.00344130036943067
-0.00465602122353961
-0.00496321997402302
-0.00699401489054487
-0.00606659187229181
-0.00611373094955113
-0.00271224225882081
-0.00157391361582005
-0.00095651848452142
0.00220978174136022
0.000342275616261022
0.00150629402649311
0.0014584956550023
0.000420194909565568
0.000188525127655077
8.20644995492273e-05
2.94695954289232e-05
1.20308086980672e-05
2.05881515897682e-06
-8.51325893249159e-06
-1.8199773317407e-05
-2.82624726548765e-05
-4.06164223422038e-05
-5.52439381281809e-05
-7.10922876908889e-05
-8.60881808790483e-05
-9.85322372493071e-05
-0.000107268758260824
-0.000112129121077894
-0.000113493195421256
-0.000113026945416197
-0.000114190383476677
-0.000125586295521749
-0.000160347298188062
-0.000219539236920424
-0.000254299397924437
-0.000314032398484688
-0.000373747423025003
-0.000411758362698082
-0.000445034975009859
-0.000468049590299021
-0.000486679187685868
-0.000500413919025056
-0.000511269029936968
-0.000519555965263492
-0.000526030794496081
-0.000530975927115013
-0.00053468415700486
-0.000535976429792791
-0.000547532929313197
-0.000546868180803983
-0.000545962782300072
-0.000544522554504644
-0.000542432519107583
-0.000539679432645125
-0.000536298893598905
-0.000532341690033953
-0.000527861177614183
-0.000522911563329265
-0.000517547414242158
-0.00051182169508057
-0.000505784785934162
-0.000499483081646559
-0.000492957640950971
-0.000486244071465888
-0.000479371910777161
-0.000472365167993967
-0.000465242967273375
-0.000458018967032447
-0.000450703129150088
-0.000443301231675568
-0.0004358172220242
-0.000428252678827528
-0.00042060852579203
-0.000412884347404668
-0.000405076989183968
-0.000397176017566469
-0.000389161564964006
-0.000381002064074662
-0.000372656802414318
-0.000364088619649508
-0.000355279338632523
-0.0003462198560291
-0.0003368952759533
-0.000327276033115869
-0.000317302619781063
-0.000306878957158891
-0.000295865229488831
-0.000284074778433923
-0.000271295456852091
-0.000257208437799753
-0.000241453954771247
-0.000223408489694088
-0.000199816214811524
-0.0001718293350219
-0.000141063260715585
-0.000102706407920066
-5.75590288039539e-05
1.16010060528721e-06
6.26135968073343e-06
-9.39632015261718e-05
-0.000178699959358619
-0.000274287346037712
-0.000369887295336882
-0.000469658498822332
-0.000579052324666495
-0.000696862602404753
-0.000810024518334843
-0.000923912322894366
-0.00103667665444647
-0.00114018617732711
-0.00121728891709537
-0.00127023628093075
-0.00129363410349056
-0.00129189254561426
-0.00128208825351627
-0.00132171851895103
-0.00144333195502251
-0.00167114432941411
-0.00210134855999723
-0.00258714144544192
-0.00370529382162456
-0.0043536596269295
-0.00747934760634089
-0.00703172433625421
-0.0069145720354875
-0.00465332438785842
-0.00303183986408337
-0.00234225067151509
0.00235143995613437
0.000191451496841069
0.00229804193413513
0.00191623747929583
0.000670916778718066
0.000343932758003889
0.000167699901447717
7.08134129567155e-05
3.25998068048298e-05
1.15021709697097e-05
-7.03168517422333e-06
-2.14939742962463e-05
-3.48771348655737e-05
-4.96781367963388e-05
-6.59822518539758e-05
-8.29764946448898e-05
-9.88338664467606e-05
-0.000112469753366232
-0.000123146839751103
-0.00013084659641375
-0.00013643726162964
-0.000142503627994941
-0.000153484752345938
-0.000178076907550352
-0.000224682610149352
-0.000281582497512442
-0.000316709295838242
-0.00038324265090817
-0.000441576275689689
-0.000478898184054409
-0.000509943071104828
-0.000530960729620497
-0.000547350601476854
-0.000558987154082565
-0.000567752805607351
-0.000574050702516416
-0.000578600595042567
-0.000581707771840987
-0.000583807207298839
-0.000591877147659549
-0.000590992486382876
-0.000589082153754564
-0.000586786608471214
-0.000583928906812166
-0.000580455629289662
-0.000576376684078452
-0.000571732069838271
-0.000566571917815617
-0.000560948654863741
-0.000554916059151627
-0.000548528470977927
-0.000541838755445794
-0.000534897206837786
-0.000527749905392758
-0.000520437296957368
-0.000512994083180486
-0.000505448411512372
-0.000497822560679187
-0.000490133660790671
-0.000482392860568784
-0.000474607470113467
-0.000466780095306774
-0.00045891151141494
-0.000450999842027407
-0.000443042779972973
-0.000435037067613581
-0.000426977540847392
-0.000418852344701006
-0.000410640639028216
-0.000402309392393273
-0.000393814362448077
-0.000385112800179095
-0.000376181906310241
-0.000367009563572056
-0.000357579054706706
-0.000347860743299297
-0.000337795875172253
-0.000327290370199651
-0.00031620438763992
-0.000304351890214017
-0.000291519988018579
-0.000277397360172967
-0.00026162239919836
-0.000238713478162859
-0.000216682292357813
-0.000191017725823373
-0.000160196702757057
-0.000121844597808954
-7.65530684321324e-05
-1.68141563988361e-05
-9.41983727626018e-06
-0.000101159852144956
-0.000178410235690803
-0.000267415831203138
-0.000357090403194701
-0.000449453106755059
-0.000548861414871165
-0.000653605730263302
-0.000752647195497447
-0.000852540321560132
-0.000952433944693893
-0.00104552872132399
-0.00111422482680161
-0.00115794148439028
-0.00116720706913187
-0.00114192626748346
-0.00109434422405197
-0.00106984209553502
-0.00110162824025713
-0.00121137790679345
-0.00150437104504737
-0.00190186281669814
-0.00294036100217425
-0.00389116632295681
-0.00753946821169821
-0.00786244460621995
-0.00752745564946857
-0.00607740239220707
-0.00429071240492401
-0.00364577909537384
0.0019443349526823
0.00012064057026077
0.00290709877651768
0.0023726235013124
0.00101829579076513
0.000527244132405352
0.000276477131205651
0.000128811711910777
6.34517070489315e-05
2.75725800261136e-05
-1.41072858993094e-06
-2.19506920905518e-05
-3.9188705803286e-05
-5.63975872571362e-05
-7.42501946350632e-05
-9.24973835639646e-05
-0.000109703575653808
-0.000125325849735899
-0.00013891821791515
-0.000150546077186841
-0.000161574531626589
-0.000175307999855724
-0.000196553407779783
-0.000232773349037327
-0.000287270685926603
-0.00033999648234639
-0.000377040949523067
-0.000446479865957344
-0.000501840488652967
-0.000537666510318219
-0.00056613966547117
-0.00058515880354272
-0.00059942990247235
-0.000609182017783613
-0.000616113863998644
-0.000620706108754722
-0.000623631452870565
-0.000625193858181542
-0.000625298645455241
-0.000631875267429814
-0.000628955332239939
-0.000626047700446237
-0.000622688914899195
-0.000618772257365338
-0.000614279657075332
-0.000609233840482566
-0.000603676285264189
-0.00059765523848531
-0.000591221156183378
-0.000584426345003871
-0.000577323999045013
-0.000569966001953516
-0.000562401805160375
-0.000554676623247649
-0.000546829808333747
-0.00053889484818144
-0.000530898329731237
-0.000522860697144952
-0.000514797188881467
-0.000506716563678035
-0.000498623764654904
-0.000490518534981968
-0.000482398909249464
-0.000474260022170503
-0.000466096859721558
-0.000457903884792987
-0.000449674552150913
-0.000441396218213826
-0.000433047731206675
-0.000424595314899888
-0.0004159918378012
-0.000407189441628824
-0.000398161015288117
-0.000388891740350771
-0.000379363457746986
-0.000369546836264901
-0.000359384228073056
-0.000348783821964064
-0.000337605752096561
-0.000325664200394363
-0.000312744545704868
-0.000298101767906136
-0.000276885803314156
-0.000258296871555689
-0.000236713714498499
-0.000210928427567828
-0.000179969438637789
-0.00014152729206385
-9.60304059319443e-05
-3.53164483918578e-05
-2.57336997693559e-05
-0.000109872255497152
-0.000179015232559367
-0.000261069693839378
-0.000344550291570002
-0.000429774985887877
-0.000520133022164221
-0.000613575847667902
-0.000700602673874532
-0.00078886176031089
-0.000878168143975472
-0.00096235302888703
-0.00102271383192593
-0.00105695624902724
-0.00105278458743696
-0.00100655419233622
-0.000926753761439189
-0.000849730015286275
-0.000810594355953925
-0.000826810281439074
-0.00100783514841734
-0.00134358344681309
-0.00231971982712791
-0.00353917885372416
-0.00742063139141178
-0.00851231344899328
-0.00806601343978939
-0.00707609405814693
-0.00534617205162453
-0.00468463736419236
0.000973027239451588
0.000447742762980253
0.0032130792759758
0.00270408937067977
0.00164861045180629
0.000741320093397338
0.000398351866998594
0.000198379290093724
0.000102452826658692
5.00335387672448e-05
8.72921218515816e-06
-1.9109065582584e-05
-4.08442103807187e-05
-6.06379740330713e-05
-8.01898065288916e-05
-9.99810262606161e-05
-0.00011903970503581
-0.000137291658827737
-0.000154521916774207
-0.000170824711624204
-0.000187963265136775
-0.0002096537771705
-0.000240469613388592
-0.000285954057988043
-0.000345341732352474
-0.000394046381737162
-0.000433347718973289
-0.000502889332329772