/*--------------------------------*- C++ -*----------------------------------*\
  =========                 |
  \\      /  F ield         | OpenFOAM: The Open Source CFD Toolbox
   \\    /   O peration     | Website:  https://openfoam.org
    \\  /    A nd           | Version:  7
     \\/     M anipulation  |
\*---------------------------------------------------------------------------*/
FoamFile
{
    version     2.0;
    format      ascii;
    class       volScalarField;
    location    "20000";
    object      nut;
}
// * * * * * * * * * * * * * * * * * * * * * * * * * * * * * * * * * * * * * //

dimensions      [0 2 -1 0 0 0 0];

internalField   nonuniform List<scalar> 
15600
(
5.52980201825874e-10
4.99747679422552e-10
2.94654507501202e-10
1.22149331264085e-10
3.27915412376601e-11
1.60475581635041e-11
1.43423231771699e-11
9.06180936768635e-12
5.37836027297733e-12
3.86469107853983e-12
3.16395454194633e-12
3.01802649922333e-12
3.40960128251055e-12
4.31453632889269e-12
5.87991867119938e-12
8.37189985651401e-12
1.21532154336771e-11
1.77442517529167e-11
2.58243187706684e-11
3.70687562146339e-11
5.19551411912278e-11
7.06288191394226e-11
9.2640581456741e-11
1.16544119145395e-10
1.39048055895837e-10
1.57519178630073e-10
1.73775925782423e-10
1.98907815371811e-10
2.66232101742463e-10
3.69129768469816e-10
4.80755133596998e-10
5.9915606206118e-10
7.21383820543833e-10
8.45857076221024e-10
9.71305108819282e-10
1.09716441213906e-09
1.22295015416354e-09
1.34839993320092e-09
1.47324757074889e-09
1.59726833428847e-09
1.72021347441643e-09
1.84183983739005e-09
1.96191889790992e-09
2.08026701140716e-09
2.19674639520672e-09
2.31141579258914e-09
2.42442118377652e-09
2.53559720430112e-09
2.64338684293784e-09
2.74643540200045e-09
2.8442306501374e-09
2.93643012681745e-09
3.02272826873067e-09
3.10286374039294e-09
3.17662386691778e-09
3.24384326225428e-09
3.30440674634096e-09
3.35824721128558e-09
3.40534117744411e-09
3.44570836424268e-09
3.47940452593856e-09
3.50652056815775e-09
3.52717742826892e-09
3.54152288220949e-09
3.54972871206018e-09
3.55198714743219e-09
3.54850879199705e-09
3.53951726876929e-09
3.52524277885245e-09
3.50591026083342e-09
3.48172256633316e-09
3.45284333365328e-09
3.41939760144295e-09
3.38148353132192e-09
3.33922460363558e-09
3.2927832305329e-09
3.24233342167209e-09
3.1880291059466e-09
3.12994261587783e-09
3.06801832042146e-09
3.00205778869956e-09
2.93166402430237e-09
2.85640602067419e-09
2.77548901333657e-09
2.68817471752534e-09
2.59288190111972e-09
2.48851418611772e-09
2.3720648728998e-09
2.24264084713679e-09
2.09620384175033e-09
1.93547672853092e-09
1.75248579915597e-09
1.64600037538673e-09
1.71293645513274e-09
1.80547698349949e-09
1.90536013755004e-09
1.96352771760402e-09
1.98756324673031e-09
1.98178093947765e-09
1.97237368003772e-09
1.94818868238729e-09
1.90927959360566e-09
1.8486190121132e-09
1.76473670821804e-09
1.63352095121564e-09
1.4754929690354e-09
1.3156525384122e-09
1.16685568859876e-09
1.04068259504325e-09
9.48803504780582e-10
9.17751449333777e-10
9.37224353259503e-10
1.02673977536355e-09
1.23035104629067e-09
1.55248295463487e-09
1.77625055275406e-09
1.42824374598637e-09
1.02258335602873e-09
6.81138237712211e-10
5.60009836775661e-10
1.05528324355974e-07
9.54554121988985e-08
5.61271744735952e-08
2.35985489495332e-08
6.48447802605374e-09
3.13020965748843e-09
2.78501645692957e-09
1.78069382476056e-09
1.06030866720495e-09
7.571693997696e-10
6.16267163547017e-10
5.83348508076631e-10
6.54440123902214e-10
8.24017571793896e-10
1.11916896213087e-09
1.59020419665345e-09
2.30650537998098e-09
3.36718785589166e-09
4.90308079069678e-09
7.04669712017635e-09
9.89434884282816e-09
1.3476093624793e-08
1.77040401665223e-08
2.23002998958379e-08
2.66382636626551e-08
3.02009490207686e-08
3.33418314606427e-08
3.80468406434383e-08
5.0805042819733e-08
7.04039917137124e-08
9.16565476943858e-08
1.14202358477644e-07
1.37477890217342e-07
1.61181355782637e-07
1.8506903276337e-07
2.09034631976829e-07
2.32986542489068e-07
2.56876654071401e-07
2.80656085015904e-07
3.04284166760035e-07
3.27715516479686e-07
3.50905709624314e-07
3.73812897520537e-07
3.96403543001727e-07
4.18652431635227e-07
4.40571593830494e-07
4.62189451539011e-07
4.83474971620344e-07
5.0400792133777e-07
5.2361816343986e-07
5.4223932302425e-07
5.59806703651858e-07
5.76262386173723e-07
5.91556619169706e-07
6.05648641706185e-07
6.1850647405675e-07
6.30107468927682e-07
6.4043792879487e-07
6.49492319234748e-07
6.57273185622038e-07
6.63789864362539e-07
6.69058323082896e-07
6.73100230364282e-07
6.75942375575568e-07
6.77616149994375e-07
6.78156898708138e-07
6.7760352904802e-07
6.75997511851673e-07
6.73381659078648e-07
6.69797878997399e-07
6.65283987415178e-07
6.59870502568761e-07
6.53580738364003e-07
6.46433113771169e-07
6.38450910497307e-07
6.29664804580611e-07
6.20107730153061e-07
6.09808819473069e-07
5.98781791627871e-07
5.87016203928206e-07
5.74474375785351e-07
5.61081427869303e-07
5.46755076711492e-07
5.31345460273308e-07
5.14710762848868e-07
4.96553186471115e-07
4.76660053639328e-07
4.54465459219423e-07
4.29787652534722e-07
4.01865424775889e-07
3.71178571772809e-07
3.36256084133023e-07
3.15910841107996e-07
3.28983926762542e-07
3.46936940408729e-07
3.66122106777408e-07
3.7730785455108e-07
3.8193209541698e-07
3.80935242437689e-07
3.79138630782831e-07
3.74416002986788e-07
3.66776844487201e-07
3.54924194087953e-07
3.38495387028688e-07
3.13145897422388e-07
2.82845209406657e-07
2.52278527567879e-07
2.238809845622e-07
1.99859996693437e-07
1.82488026905976e-07
1.76600475553749e-07
1.80306907709266e-07
1.97248385628656e-07
2.35197635124968e-07
2.93950576845137e-07
3.33600030189146e-07
2.65096498265427e-07
1.89724398718743e-07
1.2776776065312e-07
1.06590017794105e-07
2.25913787173742e-06
2.05133637996668e-06
1.19516676002018e-06
5.15304196875067e-07
1.47237477366518e-07
7.0386706986341e-08
6.24270346316235e-08
4.04509898299045e-08
2.42050798038658e-08
1.72021949249414e-08
1.39310805591163e-08
1.30890449475744e-08
1.45794983466184e-08
1.82490931660481e-08
2.46767534432312e-08
3.49582745843243e-08
5.06377200414955e-08
7.39087268866316e-08
1.07696356052928e-07
1.55046511042084e-07
2.18244552863922e-07
2.97948483534561e-07
3.92225452000633e-07
4.93966597508272e-07
5.90004175220768e-07
6.68719582378782e-07
7.36348963943634e-07
8.28600760483333e-07
1.09524650262935e-06
1.51392452400472e-06
1.96789520354763e-06
2.44923639448133e-06
2.94588974688529e-06
3.45132354131416e-06
3.9603327119645e-06
4.4707673957255e-06
4.98078522664907e-06
5.48952797054555e-06
5.99610739499055e-06
6.49982003222235e-06
6.99984097420819e-06
7.49534875734184e-06
7.98555153478115e-06
8.46981267896889e-06
8.94761217454517e-06
9.41920709243173e-06
9.8851963330203e-06
1.03377818692177e-05
1.07724034325774e-05
1.11882697442149e-05
1.15839574312509e-05
1.195814235252e-05
1.2309628037212e-05
1.26373740839314e-05
1.29405124826982e-05
1.32183451524381e-05
1.34703557087919e-05
1.36962025297706e-05
1.38957049600349e-05
1.4068842198636e-05
1.42157295743183e-05
1.43366163788557e-05
1.44318685605348e-05
1.45019583598583e-05
1.45474548090615e-05
1.45690118872881e-05
1.4567361070504e-05
1.45432918551731e-05
1.44976271019528e-05
1.44311771596514e-05
1.43446742088701e-05
1.42387074094578e-05
1.41137234270743e-05
1.39700764173807e-05
1.38082247508356e-05
1.36287817109052e-05
1.34324113980113e-05
1.32197016205295e-05
1.29909244209623e-05
1.27458550721367e-05
1.24836942560177e-05
1.22028833996429e-05
1.19016627879053e-05
1.1576913017821e-05
1.12255505923375e-05
1.08413803575755e-05
1.04196500359691e-05
9.94855402448338e-06
9.42349051563106e-06
8.82828890878099e-06
8.17059713790077e-06
7.41953996251962e-06
6.97555732897442e-06
7.26583848430827e-06
7.65222971450691e-06
8.05641455206846e-06
8.28969827062194e-06
8.3811075391667e-06
8.3537015253266e-06
8.30397636786669e-06
8.18966770331894e-06
8.01292452817651e-06
7.74624438223838e-06
7.38058277833668e-06
6.83176594189591e-06
6.17865176970668e-06
5.51783789162555e-06
4.90225379457826e-06
4.37933108726134e-06
3.9974807047405e-06
3.85334110798072e-06
3.91050619454089e-06
4.23612953914668e-06
4.96781224020746e-06
6.07306322535079e-06
6.82175220713132e-06
5.31440669204282e-06
3.73408806314694e-06
2.56439411703746e-06
2.23247261280852e-06
1.59219589737926e-05
1.48080335494392e-05
8.68041609819866e-06
3.943733006096e-06
1.22760947195098e-06
5.85194490325243e-07
5.17720065683899e-07
3.405203596225e-07
2.04969789238255e-07
1.45051444841015e-07
1.1686960075396e-07
1.08927279054958e-07
1.20345840759212e-07
1.49495646605152e-07
2.00901195836227e-07
2.83259308847015e-07
4.09139793595171e-07
5.96231667679022e-07
8.68353679245146e-07
1.25093690984204e-06
1.76310646644488e-06
2.40851793499102e-06
3.16997712986923e-06
3.983127447456e-06
4.73634465320612e-06
5.34048279766795e-06
5.79031679154629e-06
6.3560940347076e-06
8.2605753467537e-06
1.13419856848704e-05
1.4657818307297e-05
1.81579811612101e-05
2.17454441065781e-05
2.5373347328621e-05
2.9002606095761e-05
3.26197959475259e-05
3.62126017227047e-05
3.97770590982233e-05
4.33084370732063e-05
4.68036448221241e-05
5.02584127427882e-05
5.36684221604473e-05
5.70292770154415e-05
6.03375221950797e-05
6.35894153858314e-05
6.67859241037097e-05
6.98782803000045e-05
7.2845313526089e-05
7.56916756545027e-05
7.84101979450184e-05
8.09936131518824e-05
8.34352377609782e-05
8.57291027264364e-05
8.78701086609675e-05
8.98540990825299e-05
9.16778318603535e-05
9.33390399250709e-05
9.48363756013684e-05
9.61693268223126e-05
9.73382079352131e-05
9.83440204116481e-05
9.91884474118064e-05
9.98737552219672e-05
0.000100402741994138
0.000100778689794334
0.000101005306396716
0.000101086692109475
0.000101027237941339
0.000100831494124857
0.000100503910066279
0.000100048448157706
9.94681993731407e-05
9.87653703017502e-05
9.7941576908007e-05
9.69990178110475e-05
9.59407904151565e-05
9.47702916582299e-05
9.34904606123074e-05
9.21023234890422e-05
9.06038729547384e-05
8.89894511053222e-05
8.72486702607385e-05
8.53694363174828e-05
8.33312449344453e-05
8.11125891894376e-05
7.8672817018173e-05
7.59772702201506e-05
7.29473748286803e-05
6.95421767062484e-05
6.56468169473246e-05
6.12777764048203e-05
5.6129132619432e-05
5.29798923858942e-05
5.49763145123726e-05
5.7558276966141e-05
6.01931424417675e-05
6.16963529188057e-05
6.22493726765296e-05
6.20224065892053e-05
6.15814120045081e-05
6.07292103442455e-05
5.94429166043899e-05
5.75363958088231e-05
5.49378850756464e-05
5.11091033124864e-05
4.652129655758e-05
4.18125119305754e-05
3.736123148607e-05
3.35155687410459e-05
3.06271548582179e-05
2.937797355031e-05
2.95293708125954e-05
3.14562817648006e-05
3.59491048696069e-05
4.2569348699658e-05
4.73930806630081e-05
3.6285393968849e-05
2.42923826758759e-05
1.65583559670837e-05
1.50526234900109e-05
5.52969293531154e-05
5.39813678620767e-05
3.28547557661304e-05
1.61155278231347e-05
5.91815019457646e-06
2.87574549026166e-06
2.53613350986819e-06
1.69503421703026e-06
1.02698581521798e-06
7.23912805065696e-07
5.80025299041482e-07
5.35727191635049e-07
5.86082421987552e-07
7.20799292005309e-07
9.60160848781162e-07
1.34377209257344e-06
1.93040328420109e-06
2.80128029562714e-06
4.06603765575954e-06
5.84148276713708e-06
8.20700300377095e-06
1.11511333749138e-05
1.45647434864805e-05
1.81266376209605e-05
2.12576006574395e-05
2.34982747835038e-05
2.47904896640725e-05
2.65175921236409e-05
3.39114141543287e-05
4.60465839668189e-05
5.87735389972958e-05
7.20305828509692e-05
8.53295964616655e-05
9.85381241153083e-05
0.000111503663544859
0.000124208625023018
0.000136621428720351
0.000148750946225801
0.000160595912439457
0.000172162704583431
0.000183450465084223
0.000194457656513903
0.000205180367372693
0.000215617507383393
0.000225760574971595
0.000235491171336878
0.000244776428400312
0.000253647363929369
0.00026209821298472
0.00027011747722363
0.000277693908183319
0.00028481751953471
0.000291479868741971
0.000297674459512161
0.000303396876120484
0.000308644667243208
0.000313417495413717
0.000317716944222757
0.000321546288644267
0.000324910469545166
0.000327815717384204
0.000330269567234156
0.000332280601872984
0.000333858346365955
0.000335013163264337
0.000335756132624054
0.000336098998954767
0.000336053943382911
0.000335633287377495
0.000334848849592421
0.000333710936642366
0.000332227322898043
0.000330403167402207
0.000328241759488037
0.000325747672319194
0.000322927667876141
0.000319789180007426
0.000316338345143498
0.000312576081034018
0.000308495032223155
0.0003040775054659
0.000299292642125394
0.000294103642851431
0.000288450502546001
0.000282267069193815
0.000275434581257457
0.00026784242329784
0.00025925759598735
0.000249528837432884
0.000238291747971122
0.000225489612807425
0.000209729512190826
0.000199692650638957
0.000205629818748707
0.000213373556896245
0.000221159452823363
0.000225685450126976
0.000227420891078065
0.000226787161085616
0.000225508765141487
0.000223002053103062
0.000219076098044825
0.000213139252801396
0.000204925151421834
0.000192730644921883
0.000177838330456248
0.000162198919047369
0.000147039327885998
0.000133584934250379
0.000123107348398583
0.000118217460746442
0.000118175568113787
0.000124017258982457
0.000138375887215919
0.000158930616689626
0.000176398290179116
0.00013694838847062
8.8022359165544e-05
5.66816096033259e-05
5.10463296889121e-05
0.000124629928451355
0.000126680578756665
8.11620644382976e-05
4.25545781976366e-05
1.9341562486352e-05
1.01583565271832e-05
9.02985617821646e-06
6.14304647722611e-06
3.74991122168397e-06
2.63372886682689e-06
2.09672455826605e-06
1.91589311005235e-06
2.06984406284344e-06
2.51180315533824e-06
3.30467941907842e-06
4.57393690598156e-06
6.51010100003719e-06
9.36670030388187e-06
1.34791677491626e-05
1.9179501272242e-05
2.66128307197091e-05
3.55530167486974e-05
4.54814402159765e-05
5.52632751667457e-05
6.3106006233523e-05
6.77811861099648e-05
6.97320727094604e-05
7.37858647572446e-05
9.37175164499561e-05
0.000125479400550907
0.000157317164998847
0.000189797926150327
0.000221301467312773
0.000251854413216209
0.000281112752067128
0.000309208388656681
0.000336135689803279
0.000362010149882626
0.000386886868017077
0.000410838992073988
0.000433909331507394
0.000456135081686923
0.00047753951308506
0.000498151350012053
0.000517818544069853
0.000536478807236002
0.000554219036413126
0.000571059738493589
0.000587000886842716
0.000602038915608274
0.000616169475702922
0.000629389233551894
0.000641696394030764
0.000653091517986637
0.000663577766633765
0.000673160748465623
0.000681848841614137
0.000689652857625828
0.000696585695665398
0.00070266233355268
0.000707899205161837
0.000712314295798564
0.000715926719897053
0.000718756598403193
0.000720824913203988
0.000722153356912072
0.000722764285858641
0.000722680381312348
0.000721924197373525
0.00072051709170512
0.000718477456954164
0.000715818932927645
0.000712550186143286
0.000708676198574947
0.000704203848313147
0.000699143612921416
0.000693507027199554
0.000687303269710821
0.000680532221306882
0.00067317906566295
0.000665210019655103
0.000656567822260861
0.000647182806869614
0.000636944748377846
0.000625727351002719
0.000613313260251305
0.000599487181438019
0.000583821028255498
0.000565997988444602
0.000545326428930966
0.000521571567430951
0.000491471973004726
0.000471673692769668
0.000482423695295282
0.000497344034321238
0.000512343700198124
0.000521626900792697
0.000525589852672241
0.000525445329720045
0.000524072326125363
0.000520292515431582
0.000513545029678197
0.000502638049171451
0.000486979076004955
0.000463124245887279
0.000433357050986212
0.000401499442509314
0.000370002151500413
0.000341486036079524
0.000318744515103682
0.000308130764732766
0.000308252623011673
0.000320793783277572
0.000352031298758481
0.000394507903222308
0.000436296160936174
0.000352764574145473
0.000230066468933386
0.000138876047812937
0.000117758051510541
0.000225690528882022
0.000232327735980637
0.000156088340160731
8.367526808612e-05
4.60586239296564e-05
2.80608907164961e-05
2.57972897268413e-05
1.79629070095125e-05
1.10764560466491e-05
7.75855961577221e-06
6.13056520486925e-06
5.52945142002715e-06
5.87743656289578e-06
7.00748104947749e-06
9.06603848922261e-06
1.23550487692453e-05
1.73399213887933e-05
2.45958688332411e-05
3.48401171936712e-05
4.86429050247422e-05
6.59062257435469e-05
8.55494864278666e-05
0.000106035548797394
0.000124716294137848
0.000138143601123259
0.000144848914546407
0.000147558061718207
0.000157385853898757
0.00020000622269859
0.000262866597498266
0.000322567675497464
0.000382090585386491
0.000437822978043257
0.000490798784256591
0.000540465442674312
0.000587433482262336
0.000631804163542519
0.000673938464102255
0.000714012837597572
0.00075223454782702
0.000788733061730751
0.000823621537087743
0.000856973778113524
0.00088877733780424
0.00091882778722626
0.000947302227266674
0.000974274684576856
0.000999774970164792
0.00102381996227948
0.0010464216121322
0.0010675890758438
0.0010873314055408
0.00110565846309338
0.0011225822859925
0.00113811750619882
0.00115228125984143
0.00116509374025157
0.00117657774920523
0.00118675829172645
0.00119566259561253
0.00120331928175294
0.00120975856555731
0.0012150116814216
0.00121911076960186
0.00122208869270499
0.00122397888316917
0.0012248153007825
0.0012246320011672
0.00122346253525933
0.00122133845826988
0.00121828675417458
0.00121432726837798
0.00120947229838894
0.00120372845527467
0.00119710469600401
0.00118961495366027
0.0011812746270189
0.00117209564513572
0.00116207639946331
0.00115119391608475
0.00113939687895675
0.00112660001617623
0.00111269758202565
0.00109752677450844
0.00108089454676349
0.00106248164117047
0.00104195549371591
0.00101868924776798
0.000992170688762871
0.000961372816507106
0.000925795591792954
0.000880039757958329
0.000849088837407929
0.000864259387488117
0.000887638695633109
0.000911325386112216
0.000926982317990738
0.000935009926332032
0.000937269492824338
0.000937656776672469
0.000934252033802149
0.000925914850326467
0.000910772516528255
0.00088782839170069
0.000851701951984297
0.000805686074100504
0.000755768781320165
0.00070583668228879
0.000660177633203456
0.000623406335393612
0.000606910506417523
0.000608785035407539
0.000630565257722803
0.000683734885708209
0.000751466291967366
0.000825645347060682
0.000695387610048462
0.000480622613736734
0.000283075159143345
0.000224512588056242
0.00036691049263336
0.000372609500976839
0.000262942349920262
0.000137675689478374
8.54298768412497e-05
6.24760884377335e-05
6.16349683142575e-05
4.45908916285362e-05
2.79545631105019e-05
1.95821176292864e-05
1.53488697794791e-05
1.36321749137702e-05
1.4194739818869e-05
1.65500447730146e-05
2.09621803384852e-05
2.80070853941285e-05
3.85769387425392e-05
5.36424001514601e-05
7.42874005810014e-05
0.000100977305732974
0.000132594875930228
0.000166381528902743
0.000199426000514474
0.000227450485511261
0.000245974367517924
0.000254791168566257
0.000260795199759178
0.00028288580286591
0.000359045301083328
0.000460681896412091
0.000553005396845521
0.000643322803810978
0.000725648936332784
0.000802970124374911
0.000874468864018565
0.000941501499840363
0.00100429305800166
0.00106352755815016
0.00111952266806993
0.00117264767627504
0.00122313299025678
0.0012711821716226
0.00131694357153178
0.00136013963561637
0.00140097533477596
0.00143960862779894
0.0014761197079677
0.00151055732250747
0.00154295893004574
0.0015733542317226
0.00160176796881564
0.00162822334226929
0.00165274341946441
0.00167535307016447
0.00169607957629203
0.00171495265958451
0.00173200526471956
0.0017472730137923
0.00176079376959148
0.00177260766509566
0.0017827561023188
0.00179128205237147
0.00179822933404403
0.00180364251959006
0.00180756669954284
0.00181004734610727
0.00181113025240191
0.00181086102036841
0.00180928431030415
0.00180644195142408
0.00180236955052307
0.00179709318549161
0.0017906287804652
0.00178298452263621
0.0017741711770133
0.00176420575306352
0.00175310713379862
0.00174088958380178
0.00172754962448162
0.00171305576839177
0.00169733853202118
0.00168028426463045
0.00166174953630925
0.00164151895014803
0.00161932917067836
0.00159476047296138
0.00156735655045938
0.00153629836369734
0.00150085819096033
0.00145968600512059
0.00141193319812889
0.0013501514764043
0.00130726637847221
0.00132591425940056
0.0013585719235935
0.00139218096475642
0.00141606023949019
0.00143021036495055
0.00143708552129985
0.00144138576748148
0.00144036330679646
0.00143210746221071
0.00141405118098826
0.0013847440095854
0.00133694077425086
0.00127486790802524
0.00120681271050917
0.00113826520763516
0.00107530463469532
0.0010244934118295
0.00100273671390298
0.00100798473374002
0.00104044503538438
0.00111765853609075
0.00121009167261665
0.00131954988732762
0.00114628795068683
0.000845228817748371
0.000507589319878541
0.000384722397237132
0.000559234705464657
0.000550297382754078
0.00041285771655041
0.000205001729814292
0.000132724334778354
0.000114587532228917
0.0001243605920633
9.60256227255838e-05
6.19145502752018e-05
4.36299574489286e-05
3.39610211640087e-05
2.96537756954331e-05
3.01284213022697e-05
3.42161695805624e-05
4.22848972163174e-05
5.5222102927163e-05
7.44010699950171e-05
0.00010103119343846
0.000136231664639091
0.000179645897477107
0.000228286599965906
0.000277376377514098
0.0003229262449973
0.000359635077476516
0.000383249918908657
0.000396215284360178
0.000410441294958596
0.000452503937276221
0.000570153657898013
0.000712774383371783
0.000839101486979812
0.000960956810517402
0.00107024573045543
0.00117229043286086
0.00126593118240761
0.00135335536987365
0.00143488301374424
0.00151153082382904
0.00158374981943548
0.00165207089366444
0.00171682429935248
0.00177830323771073
0.00183656964398892
0.00189146292930112
0.00194334171043226
0.00199236435041994
0.00203862845258935
0.00208220592074398
0.00212315589747788
0.00216152662384562
0.00219735929178171
0.00223069199824427
0.00226156171364338
0.00229000675992298
0.00231606761040525
0.00233978706372906
0.00236121123957589
0.0023803889477786
0.00239737123452603
0.00241221139918928
0.0024249638522851
0.00243568450192101
0.00244442989065375
0.00245125712789193
0.00245622358182958
0.00245938677675903
0.00246080428292748
0.00246053313579717
0.00245862893431741
0.00245514359460536
0.00245012115709709
0.00244359380885548
0.00243558104232032
0.00242609256453503
0.00241514062880451
0.00240274484232063
0.00238892706024905
0.00237370333604001
0.00235706789929308
0.00233898046657872
0.00231935310621602
0.00229804387283543
0.00227487088516256
0.00224956693611525
0.00222179660798298
0.00219104256066912
0.00215672208949978
0.00211783296877611
0.00207345744925355
0.00202187562449189
0.00196182469592961
0.00188403423644148
0.00182872318836302
0.00184966708766145
0.00189213650429052
0.00193680991799777
0.00197065567741951
0.00199293087038477
0.00200656904685391
0.00201684191863426
0.00202012880254058
0.00201359204841434
0.00199398688355896
0.00195936931181445
0.00190083649360453
0.00182343709758028
0.00173776873271059
0.00165105582490642
0.00157120906154704
0.00150681534394776
0.00148020224277333
0.00148962086308665
0.00153297241884622
0.00163403339898477
0.00174902428215915
0.00189341199284693
0.00168228317991317
0.00130880870392423
0.000820884453334371
0.000609322772566912
0.00081122024251914
0.000766760121523354
0.000619934840021517
0.000289393893380049
0.000184954311312205
0.000177273484949989
0.000212917566269736
0.000180917103998888
0.000121751081162274
8.70680304330798e-05
6.75649100382907e-05
5.8024437758161e-05
5.73960466401821e-05
6.33640522017024e-05
7.62966593468497e-05
9.72846738270312e-05
0.000128022330825941
0.000169500494780254
0.000222290077288824
0.000284448101372587
0.000350710705760533
0.000414626937542028
0.000471832948342916
0.000516893646802299
0.000546928935508678
0.00056770890074692
0.000595995793773659
0.000664868243301253
0.000827590878339719
0.00100987517032108
0.00117006110449539
0.00132286552604599
0.00145887160930183
0.00158551534374949
0.00170130850555903
0.00180921129999576
0.00190961865570018
0.00200385279689124
0.00209248758104306
0.00217620432338921
0.00225542973608796
0.00233056449876344
0.00240141569259777
0.00246823251311544
0.00253135210668575
0.00259094685480499
0.00264713824641804
0.00270002353940472
0.00274968426234273
0.00279618796342897
0.00283959309512701
0.00287995336564257
0.00291732031623223
0.00295174630571334
0.00298328549608197
0.00301199419048571
0.00303793202931452
0.00306116128412923
0.00308174639948685
0.00309975398047016
0.00311525153465825
0.00312830794227045
0.00313899244949861
0.00314737464230939
0.00315352403809044
0.00315751004017423
0.0031594017431842
0.00315926729813949
0.00315717286219589
0.00315318005491551
0.00314734099088115
0.00313969371559441
0.00313026117248123
0.00311905450408683
0.00310608708042276
0.00309138054319692
0.00307495909972196
0.00305683994928761
0.00303701458192512
0.00301543370707088
0.00299199096864607
0.00296651657849256
0.00293879021744436
0.0029084942967409
0.00287522113823015
0.00283835950491052
0.00279723311225991
0.00275063702137784
0.00269742127520794
0.00263555085401313
0.00256329795173828
0.0024698292199085
0.00240184084388765
0.0024238794367707
0.00247638894102587
0.00253307323616401
0.00257842930542881
0.00261066534614295
0.00263303011988816
0.00265112609936129
0.00266043893244139
0.00265708875864898
0.00263718378598952
0.00259825560532256
0.00253001290176326
0.00243820596226328
0.00233565719093715
0.00223140321000535
0.00213516234496892
0.00205759459768379
0.0020260100128314
0.00203936971123846
0.00209276021981597
0.00221587965161503
0.00235098984802272
0.00252845551458258
0.00228467811792558
0.0018511071993595
0.00122117920853677
0.000902831831481156
0.00112694630465294
0.00102301450675864
0.000894783873885623
0.000397803051115825
0.000242480589769373
0.000242203772568895
0.000314150239656292
0.000300613700782707
0.000214164349971435
0.000156842882419427
0.000122124287206694
0.000103480863582551
9.97104462115005e-05
0.00010705003082257
0.000125660003385996
0.000156503694848273
0.00020115377537477
0.000259705127666738
0.000331575148446188
0.000412767472645643
0.000495907266859017
0.000573591275675313
0.000641798465625132
0.000695752351560079
0.000734638844994399
0.00076756784817929
0.000815409159781775
0.000916047640502706
0.00112385304030689
0.00134331956990485
0.00153671996037131
0.00171946427859473
0.00188183188443674
0.00203279878988571
0.00217067606337587
0.00229905536364816
0.0024184128644803
0.00253033241534811
0.00263550560970422
0.00273474994887407
0.00282858376983315
0.00291741670244685
0.00300102770493768
0.00307991717616648
0.00315440958108702
0.00322470067299202
0.00329093987600646
0.00335325133049596
0.00341173982109084
0.00346649321190352
0.00351758819240222
0.00356509494439742
0.00360908035756069
0.00364961149288699
0.00368675674542542
0.00372058635969828
0.00375117382706063
0.00377859511025176
0.00380292819715611
0.00382425305006729
0.0038426502485342
0.00385820155738417
0.00387098876375185
0.00388109371972548
0.00388859779762172
0.00389358193445276
0.00389612631363857
0.00389630969452461
0.00389420822062041
0.00388989265559103
0.00388342267047813
0.00387484178962968
0.00386417621943093
0.00385143840918782
0.00383664242367362
0.00381981131091833
0.00380097093140684
0.00378013892853509
0.00375730360754434
0.00373240655770158
0.00370532332358257
0.00367585710714792
0.00364374994693939
0.00360863598981345
0.00357003647308581
0.00352730921097089
0.00347958336778726
0.00342550237009712
0.0033636922467341
0.00329182659762975
0.00320768669988612
0.00309916829389664
0.00301853685839301
0.00304051988617631
0.00310299350187394
0.0031723905047267
0.00323055423234128
0.00327437118488506
0.0033071995803173
0.00333472729904875
0.00335153812380927
0.00335263776063345
0.00333352512468694
0.00329118884749531
0.00321424189410208
0.00310901913798406
0.00299040918160308
0.00286927627601193
0.00275706699855877
0.0026665133681791
0.00262926794644466
0.00264534368638213
0.00270703249709504
0.0028493691230472
0.00300247276827373
0.00321081059194305
0.00294012473696216
0.0024548156381215
0.00170070519211131
0.00126444120222362
0.00150580251358586
0.00132190778564071
0.00123681984706518
0.000540694438321473
0.00030850515504081
0.000298329372245113
0.000412362952201064
0.000446023648649638
0.000340406641860305
0.000257033140222588
0.000202298177030732
0.000170067664421409
0.000160141206701591
0.000167595035231746
0.000192123456528419
0.000234000121790765
0.000293995251976545
0.000370603724119423
0.000461668979166097
0.000561068767587595
0.000659836113002059
0.000750356315841448
0.00082949044019031
0.000893671238570051
0.000944395489774395
0.000993720126170534
0.00106564558332456
0.00120104324909034
0.00145183675694642
0.00170610333491443
0.00193187774129315
0.00214348272314839
0.00233183685637048
0.00250677823216994
0.00266661316332923
0.00281538813635649
0.00295368760280988
0.00308330755125719
0.0032050572930258
0.00331987650204159
0.00342838058223181
0.003530882472173
0.00362734048570873
0.00371836156462525
0.00380427759826683
0.00388531400744927
0.00396165098205124
0.00403344091009395
0.00410081295239639
0.00416387651883516
0.00422272767372431
0.00427745406936241
0.00432813881513146
0.00437486440668485
0.00441771404819978
0.00445677235669805
0.00449212697839533
0.00452386774065354
0.00455208624084075
0.00457687575546338
0.00459832978981996
0.00461654278059719
0.00463160874683184
0.0046436214469921
0.00465267364862216
0.00465885730969573
0.00466226309134106
0.0046629796759884
0.00466109244293834
0.00465668058138718
0.00464981065423175
0.0046405311546808
0.00462887128241151
0.00461484461323357
0.00459846543976523
0.00457975754303689
0.00455874768662971
0.00453545322930493
0.00450985887152019
0.00448189708505468
0.00445142592967484
0.00441822281839308
0.00438199367926556
0.00434233223270467
0.00429874392956717
0.00425044282990025
0.00419643445433282
0.00413522139565771
0.00406521258820684
0.00398381652727013
0.00388832165270078
0.00376566403741675
0.00367272760925849
0.00369361191052501
0.00376570026215914
0.00384824400906783
0.00392024238149744
0.00397701675728388
0.00402179777883522
0.00406011221976331
0.0040856398494271
0.00409224045236828
0.00407484447718393
0.00402989373400909
0.00394519882524936