/*--------------------------------*- C++ -*----------------------------------*\
  =========                 |
  \\      /  F ield         | OpenFOAM: The Open Source CFD Toolbox
   \\    /   O peration     | Website:  https://openfoam.org
    \\  /    A nd           | Version:  7
     \\/     M anipulation  |
\*---------------------------------------------------------------------------*/
FoamFile
{
    version     2.0;
    format      ascii;
    class       volScalarField;
    location    "20000";
    object      omega;
}
// * * * * * * * * * * * * * * * * * * * * * * * * * * * * * * * * * * * * * //

dimensions      [0 0 -1 0 0 0 0];

internalField   nonuniform List<scalar> 
15600
(
3736.48203016121
3732.77724474084
3755.06776255589
3890.07868521919
4205.8844132416
4459.46304822274
4500.60136589253
4352.21946469351
4075.89692164127
3721.07063551419
3335.65410498856
2996.67841283952
2716.68951448202
2483.0989950556
2286.41640863125
2119.40923462023
1970.66305327636
1822.91939270152
1676.39140369147
1533.83696740295
1397.68305746377
1271.17828909166
1162.94810929708
1076.07023224641
1009.51106680802
962.915610742699
936.548807204673
931.111007617126
934.121845851979
934.12050753931
934.120507539362
934.120507539391
934.120507539324
934.120507539363
934.120507539349
934.120507539363
934.120507539363
934.120507539375
934.120507539351
934.120507539314
934.120507539374
934.120507539337
934.120507539284
934.120507539324
934.12050753935
934.120507539363
934.120507539351
934.120507539364
934.120507539375
934.120507539352
934.120507539363
934.120507539311
934.120507539376
934.120507539352
934.120507539311
934.120507539349
934.120507539378
934.120507539359
934.12050753934
934.120507539401
934.120507539376
934.120507539391
934.120507539401
934.120507539378
934.120507539243
934.120507539322
934.120507539339
934.120507539298
934.120507539326
934.120507539375
934.120507539405
934.120507539295
934.120507539374
934.120507539379
934.120507539363
934.120507539375
934.120507539326
934.120507539284
934.120507539302
934.120507539358
934.120507539353
934.120507539311
934.120507539402
934.120507539404
934.120507539336
934.120507539325
934.120507539366
934.120507539372
934.120507539315
934.12050753935
934.120507539352
934.121845851952
931.111007617142
936.548807204589
962.915610742403
1009.51106680793
1076.07023224703
1162.94810929697
1271.17828909001
1397.68305746348
1533.8369674037
1676.39140369285
1822.91939270488
1970.66305328058
2119.40923462285
2286.41640862933
2483.09899505417
2716.68951447824
2996.67841284175
3335.65410498627
3721.07063550737
4075.89692163724
4352.21946468642
4500.60136588463
4459.46304822796
4205.88441324515
3890.07868521634
3755.0677625535
3732.77724474165
3736.48203016376
631.881003737342
631.680722064006
638.512837448813
658.908920714455
708.877825183244
750.06365198102
757.602586962101
733.458300022661
687.647869132638
628.368963071576
563.657636624426
506.451547456213
459.118570863483
419.646475992001
386.419788867651
358.224488786182
333.163929602104
308.319937665153
283.648527810871
259.600078174405
236.592372168425
215.186131984533
196.824360138523
182.059026350016
170.768214604094
162.904361668026
158.569616740287
158.158730139913
158.861045076931
158.755014455192
158.733220266342
158.704696705993
158.676326519201
158.650557905469
158.628676722358
158.609248317551
158.591290327749
158.573507218511
158.554986476725
158.534948731661
158.512883525691
158.488461042444
158.461503136167
158.431949430016
158.399855903582
158.36534049981
158.328605158916
158.289944094898
158.249607127397
158.20786744942
158.165023156148
158.121377057281
158.077238179524
158.032912699448
157.988694209271
157.944866099848
157.90169314584
157.859418706893
157.818267511467
157.778438691281
157.740111931705
157.703442978754
157.668565773097
157.635592581954
157.604613537035
157.575698239254
157.548893813107
157.524226506177
157.501701541008
157.481305616134
157.463013259168
157.44680219189
157.432656405949
157.420581753068
157.410568675085
157.402574152971
157.396533717974
157.392361000313
157.389979278869
157.389353515045
157.390465385705
157.393454979525
157.398314227967
157.405438885656
157.414734832528
157.427245059842
157.442544946072
157.46315430563
157.487400638526
157.519661742926
157.550844677678
157.669512014924
157.416232935512
158.407161825018
162.852458206612
170.665746551674
181.863388894243
196.473448663668
214.655078828387
235.818705419475
258.571271274039
282.396395536343
306.927783796339
331.731145525699
356.926547897308
385.306484276561
418.693874655879
458.296925944563
505.665595295403
562.775922163326
627.191779543923
686.463348689833
732.484483753136
757.011964018929
750.809545602643
712.995362128538
670.265125682968
649.342226649839
641.482942231808
634.785738563163
213.76939053238
213.28972920834
218.755438504042
223.219553097395
235.548017776786
246.487341337405
248.6994276664
241.058968837615
226.257003282113
206.915460549547
185.754741791548
166.994444426992
151.449939878164
138.509095865053
127.628317246105
118.39473175183
110.169289550917
102.000212463107
93.8534004067076
85.8726992030193
78.2137709605433
71.0989388026164
64.9963733786635
60.0899790905415
56.3791038602923
53.8761865626871
52.7313127074003
53.3069805718879
53.9070050140207
53.8154122931035
53.7564246864201
53.6831748501423
53.6054835503528
53.5299970264453
53.4583436657592
53.3893075049873
53.3218050987497
53.2544192557903
53.1861931481619
53.1163603696693
53.0445122683567
52.9704671024881
52.8942310266308
52.8159471919887
52.7359086432962
52.6545164990493
52.5724965411723
52.4901652539377
52.4077788333391
52.3257727419915
52.2445526630181
52.1645113558752
52.0860264631601
52.0094500117647
51.9351007301647
51.8632689150521
51.7942088803253
51.7281395350779
51.6652496236714
51.6056926070513
51.549595822827
51.4970567804058
51.4481473681748
51.4029149564265
51.3613827825246
51.3235521679209
51.2894007246119
51.2588847150024
51.2319396619306
51.2084852415519
51.1884359252682
51.1717204106714
51.158285531011
51.1481066571994
51.1411359696957
51.1372825822846
51.1364303379355
51.1384439970812
51.1432148864767
51.1507006476359
51.1609112891637
51.1740485794651
51.1901891025255
51.2098731270903
51.2331962744089
51.2615307535544
51.2948400351348
51.3363392976159
51.3848924767916
51.4457809314341
51.509862577515
51.6362164201123
51.6540479246546
51.9321660189084
53.3366282083465
55.7947743494153
59.3653521231875
64.0353466336817
69.8523153236429
76.5966142170963
83.869118319113
91.514564517156
99.4501681522156
107.563481788158
115.990276315434
125.525952270379
136.69945113009
149.898640874962
165.576908498944
184.28172923782
205.068655044206
224.32408144969
239.261165329533
247.09832938299
245.500731612135
236.492684972168
233.245122232072
233.370156754531
229.84361846034
219.853215291722
108.213992592003
105.899235983319
110.783730042216
110.817314971642
111.219252667972
112.912874040688
113.25672124906
109.929651200752
103.324954429738
94.5816205184768
85.0270420433786
76.5526040363116
69.5216823925752
63.6905433935118
58.7991942741683
54.6410864254783
50.9042206405547
47.1650007734878
43.402083965273
39.6831478179792
36.1034623867092
32.8027904514812
29.9904749439324
27.7532584162795
26.1282696552607
25.162837044227
25.0324261419327
25.9251982697098
26.4087169425764
26.2050769957443
26.0294473817845
25.8396037489289
25.6576684961838
25.4892894317187
25.3357979859471
25.1944909466305
25.0634686803286
24.9403390792801
24.8235336935766
24.711709947868
24.6040355934446
24.499936267003
24.3990839366638
24.3013207350388
24.2067347582772
24.1157418259807
24.0281322131118
23.9436310861164
23.8623044346947
23.7842167063399
23.709429238726
23.6380019169336
23.5699900593053
23.5054363317462
23.4443671990822
23.3867981495884
23.3327280926806
23.2821418779411
23.2350147316335
23.1913085847885
23.1509798277679
23.113975510597
23.0802367963375
23.049698957652
23.0222910110378
22.9979365193485
22.9765511606444
22.9580438445452
22.9423164155711
22.92926764929
22.9188026538543
22.9108485595957
22.9053569643418
22.9023078112832
22.9016624402555
22.9033492919777
22.9072798805019
22.9133554598945
22.9215079128703
22.9317317349113
22.9440813846955
22.9587724275644
22.9759453421207
22.9961265166206
23.0195531711882
23.0475171016923
23.08033419746
23.1209908508467
23.1691726113524
23.2298198708041
23.2965471857543
23.4123823768745
23.4658707238198
23.5317930113097
24.1108230223385
25.1338178316182
26.6548016316147
28.6538549094464
31.145963295838
34.0207839168121
37.138609883563
40.4379599072501
43.9054009327019
47.5120625650192
51.3876578682926
55.8155163120833
60.984833110704
67.0604927805525
74.1992014788348
82.5618865395443
91.5576921606201
99.8709509746433
106.170442604542
109.015853392836
107.785935652571
104.212313611161
109.711080511485
119.004243737021
123.143014121545
115.844903619838
70.2776035355037
66.5827696236894
71.4773388479191
71.0534692677287
65.6229218378683
62.4623772976652
61.7001786199291
60.0235075886385
56.5497552000842
51.839915139313
46.7141686513888
42.1782806085249
38.4119986251662
35.3095700595696
32.7154816122914
30.496762971374
28.4633413283867
26.3949564114304
24.2816600718109
22.1703648578539
20.142389184834
18.307822789696
16.7776647418944
15.6061646676391
14.8457082398182
14.5564188067799
14.871392746997
15.7500785597083
15.9589961755821
15.5626839076645
15.25978447668
14.9722748752192
14.7303186645712
14.524755050739
14.3523675741791
14.2048691917395
14.0776863401449
13.9659972805043
13.8667697290162
13.7774224717079
13.6962205093501
13.621818159852
13.553271628394
13.4899142394829
13.4314405285829
13.377228840518
13.3265056905637
13.2789490565872
13.2343786436956
13.1925890173232
13.1534173483538
13.1167262457579
13.0823993603524
13.0503325717659
13.0204301083003
12.9926057781803
12.9667770826878
12.942865912819
12.9207996494513
12.9005074757775
12.8819244227828
12.8649873614788
12.8496365481175
12.8358144681841
12.8234647620991
12.8125318590129
12.8029585605915
12.7946861446703
12.7876535438794
12.7817998182745
12.7770706548768
12.7734287348591
12.7708552500129
12.7693506284972
12.7689016807085
12.7694737889771
12.771021825247
12.773494200795
12.7768607728453
12.781132472666
12.7863639802839
12.7927139557192
12.8003017835804
12.8095020893119
12.8205328700564
12.8343157614118
12.8512185649584
12.8733905580611
12.9009232538877
12.9375026510313
12.9795196414681
13.0583255121799
13.0965567942063
13.0984631439126
13.3827922683048
13.896801989296
14.6736720726619
15.6961757806532
16.9644633834279
18.4162559345303
19.9950825923166
21.6709540520689
23.4450601762968
25.3103595453036
27.3681516923057
29.7372951719441
32.4934729530904
35.7183748598706
39.467711774196
43.7782567121123
48.206219438971
52.2141965528846
55.117096979452
56.0340105311827
55.0091636354775
52.7481159675671
57.9612304546255
68.478834693696
78.3928303057159
76.5901101268705
51.0567684793149
47.2653365695428
52.4790340341963
54.0469878996462
46.0651695938655
39.2053031273578
37.3831529529231
36.4787247226029
34.5081251174134
31.7132345783216
28.6929314296582
26.0328427444352
23.8229841034329
22.0203543165517
20.5148806747679
19.2055448906313
17.9611400252893
16.6610495358495
15.3076270838458
13.9471559839845
12.6599377357081
11.5376259404142
10.6420342798474
10.0121911757148
9.69844310553458
9.74678253919612
10.2081107091973
10.8803347536821
10.7939370996501
10.2937347202809
9.97353729067587
9.69730056293072
9.49260396288422
9.33123239011054
9.20692014848668
9.10744483313002
9.02746647321129
8.96141590270968
8.90616831371369
8.85906316016547
8.81840007750957
8.78285916810114
8.75154383765276
8.72384070871231
8.69915649971641
8.67669591308421
8.65605843166872
8.63706897452532
8.61954610368876
8.60331896599372
8.58825711114415
8.57425398790713
8.56122321133618
8.54909128082126
8.53779456675876
8.52727906087849
8.5174957799077
8.50840098448641
8.49995616734573
8.49212538380586
8.48487753155811
8.47818330845396
8.47201608102568
8.46635078484725
8.46116303018509
8.45642859896419
8.45212168100926
8.44821482675306
8.44467835701998
8.44148217342104
8.43860042178154
8.43601835781532
8.4337332981282
8.43175377895266
8.43007737537077
8.42868683402546
8.42755760051416
8.42666052916675
8.42598053707534
8.42552834427239
8.42534479197562
8.42553468180061
8.42618365334531
8.42753860196079
8.42976768575285
8.43348740436204
8.4390195827732
8.44781313607484
8.46008764870218
8.47840661327008
8.50092367279392
8.55047687418926
8.5737783510292
8.56080221591982
8.72228454500913
9.02507925531958
9.48628442747457
10.09226640374
10.8377416249844
11.6841400889564
12.6038334736997
13.579315722742
14.6124455247572
15.700531367463
16.9135490371236
18.3093902309986
19.9204295711641
21.7898525845667
23.9375804314614
26.3675563077573
28.7616610981816
30.8749166897676
32.3714411335211
32.6918092214401
32.0980605961267
30.6179862689754
33.918410591312
41.5142517243386
52.368949829443
54.6436719348719
38.4618010901234
35.426206879753
40.5164513266765
45.0962729212868
37.2362436082435
27.4240458996034
24.2950922965718
23.7124753528582
22.5672029361834
20.8216689874172
18.9595595866824
17.3313476659349
15.9770062335161
14.8844102334627
13.9648796853862
13.1348225654398
12.299869581412
11.399109136851
10.448817202607
9.50167086796371
8.63594940345857
7.92273325774468
7.39218954961124
7.07092651904158
6.99560946753228
7.18589111376339
7.62292968049882
8.05238111964377
7.79232233033313
7.33180021474376
7.07973294853246
6.8720336052947
6.73426015027069
6.6305633405139
6.55674726669207
6.50092375406794
6.45920980660817
6.42694884107685
6.4018797700809
6.38196767958999
6.36600373226085
6.35303493398909
6.34244126671473
6.33378136315444
6.32639349826393
6.31987352740002
6.31406905685664
6.30887368446456
6.30417067185987
6.29986095032657
6.29587256519425
6.2921493815165
6.28864861985011
6.28533573701645
6.28218261953964
6.27916720393726
6.27627032046799
6.27347598357725
6.27077121445614
6.26814431252625
6.26558634112285
6.26308899069399
6.26064518563489
6.25824824288654
6.25589122688912
6.25356651753668
6.25126458141632
6.24897396001995
6.24668097880802
6.24437126802983
6.24203336541249
6.23966352377281
6.23726624504074
6.23485260025032
6.23242455699864
6.22997314043482
6.22748411399915
6.22494033510508
6.222335149311
6.21968019900781
6.21701018631239
6.21440245639213
6.21192768974582
6.20976526707006
6.20806057872096
6.20726067918179
6.20766437519428
6.21031695752746
6.2155177006929
6.22516520887853
6.23850315560311
6.27285814231194
6.2894688788812
6.27452770912613
6.37559669155443
6.57493394264575
6.88096026951777
7.28304445321485
7.77442669752211
8.32881735796099
8.93020158056983
9.56718816472829
10.2405963427733
10.9488024579721
11.740069091235
12.6467522564852
13.6831484687547
14.872893338788
16.2224355796913
17.7284318229021
19.1694899530806
20.4171778923134
21.3119308854441
21.4763036137726
21.1944657016351
20.2204503740341
22.2262742927559
26.8896526594576
35.8576481880761
39.7057183140592
29.4074830373375
27.4004704844945
31.628726308956
39.0469674777691
33.1453186234249
21.4745250310502
16.7783015830123
16.1521514571038
15.46586794414
14.3403279812673
13.1766211491981
12.1726514351795
11.3346056567537
10.664212094464
10.0838959592811
9.52377726605922
8.91905409772315
8.25043984067769
7.54719688696381
6.8660253451864
6.27516825858754
5.82201555350207
5.51570710092387
5.37273845333834
5.41439733831846
5.6377374844171
5.98694839234664
6.22835526059189
5.92237883247721
5.56618916787099
5.39101194791954
5.24811165120792
5.16214730668637
5.09910445396843
5.0579462933907
5.02868100930839
5.00900951408283
4.99537340855323
4.98629823398762
4.98032541072255
4.97665215289204
4.97462545250179
4.97384330220538
4.97389474964764
4.97432729409052
4.97498172311976
4.97578337917626
4.97666561915409
4.97755855065417
4.97840816592741
4.9791779046098
4.97984142600991
4.98038093076251
4.98078361316568
4.98104062898667
4.98114678477447
4.98109836410976
4.98089346453838
4.98053182043746
4.98001366791988
4.97934077176256
4.97851489698435
4.9775382446335
4.97641280692498
4.97513988229621
4.973719711446
4.97215059955142
4.97042894663263
4.96854917459821
4.96650507758289
4.96429274763381
4.96191411200795
4.95937715598235
4.95669381132554
4.95386835881884
4.95089667193553
4.94777083488101
4.94448146329042
4.94102797382055
4.93742440287984
4.93370413117401
4.92993177563713
4.92617328336135
4.92257385359301
4.91927116325413
4.91662006720862
4.91491225628813
4.91496529821289
4.91713817846432
4.92295135052288
4.93234547326376
4.95906375173432
4.97327624094657
4.95967598931772
5.02693081739418
5.16794420640743
5.38692091932235
5.675551978112
6.02687620445843
6.42163898625936
6.84934169403422
7.30207734899174
7.77990733646512
8.28181046518052
8.84240606630002
9.48214488873992
10.2074827578325
11.0319494668843
11.9568792180053
12.977595643026
13.9377665784574
14.7594592422654
15.3673626068736
15.4895591796949
15.3767269746254
14.708771246884
15.9987862549642
18.8021420643559
25.4261175297085
29.3132061601992
22.8159318855927
21.7886835578664
24.6365181664199
34.0594209832963
31.0324682052118
18.7740200402164
12.4649364356007
11.4723519585608
10.9960255942044
10.2339770500646
9.50543919782134
8.89840556235318
8.38912550177207
7.98171512963476
7.60603330986303
7.20653837241438
6.74496094792422
6.23143929536534
5.7027002193382
5.2120949669614
4.81170187379096
4.52838454946206
4.36014153553819
4.31678263435983
4.4075359838556
4.61552705146613
4.87404713261266
4.99623787152229
4.71350743675329
4.45863918118169
4.34006672561816
4.24333103607746
4.1902617734721
4.15213418981411
4.12992887215622
4.11557880353043
4.10783461287753
4.10399001446676
4.10308390077228
4.10405722896977
4.10636614895105
4.10955083524983
4.11332967510667
4.11732144311668
4.12129587057492
4.12517895481205
4.12892610495018
4.13249377306974
4.13583983115592
4.13893494394108
4.14176137541648
4.14430834481574
4.14657076320207
4.14854671462862
4.15023685693918
4.151644172584
4.15277241864811
4.15362645159225
4.15421206787073
4.15453522426858
4.15460276218787
4.15442127523201
4.15399741350674
4.15333737156391
4.15244649966781
4.15132898870768
4.14998722192791
4.14842183439932
4.1466317850922
4.14461558272657
4.14237373787685
4.13991146188865
4.13723865417524
4.1343675833098
4.13130400853279
4.12804705644223
4.12459316759618
4.12093844163944
4.1170868760772
4.11305507944265
4.10887671946606
4.10461007671704
4.10031982030069
4.09613222468703
4.09218193815981
4.0887689400205
4.08618122841749
4.08509726204006
4.08592182226226
4.08993132063732
4.0975162038169
4.11992671724587
4.13331191290075
4.12187909236071
4.16850770238641
4.27316605708132
4.4381585185266
4.65688051793881
4.92265284528966
5.22064847943391
5.54335400777932
5.88502508591132
6.24529396528335
6.62363358980856
7.04590575194252
7.52637065553643
8.06797469353099
8.67882068255873
9.35839505897682
10.1020172100249
10.7961870738252
11.3875861907323
11.8409032033175
11.9501053231625
11.922836554703
11.4424009544283
12.3240977966212
14.073923977881
18.8048822161516
22.1882551569539
18.024630436133
17.7967894132946
19.1754001762351
29.5200852461294
29.5989446543504
17.8605043810465
10.141309152385
8.55456244188095
8.11051230630312
7.54112471946606
7.07377549624178
6.71904506709142
6.42256817489583
6.18196180078522
5.93365406319492
5.6371633957176
5.27657211204615
4.87975101747399
4.48378009029562
4.13332665246122
3.86466190679513
3.69116772665691
3.60660293539119
3.616473217185
3.72175284570594
3.89905722051104
4.08480924767483
4.13904008218601
3.90252289080875
3.72470552396029
3.64323300370334
3.5773426781208
3.54442578847957
3.52148144505434
3.51031990355625
3.50449651500475
3.50335197070934
3.50479863741551
3.5081855897532
3.5127217096992
3.51802206928082
3.52375188617156
3.52967271703957
3.53549581704404
3.54110869693769
3.54646949552593
3.55154786818617
3.55631427397691
3.56074289365887
3.56481797561621
3.56853186309654
3.57188193949582
3.57486959778474
3.57749840225251
3.57977373274439
3.58170257678306
3.5832923827039
3.58455134572354
3.58548826324947
3.58611197240036
3.58643186328448
3.58645701064474
3.58619637596382
3.58565838608437
3.58485060442384
3.58377945123375
3.58244971017533
3.58086460621715
3.57902597224663
3.57693537429308
3.57459621164972
3.57201583164665
3.56920533472849
3.56617716606925
3.56293815447445
3.55948980261106
3.55583177111872
3.55196423462838
3.54789469448109
3.54364200759756
3.5392404417967
3.53474466691614
3.53021887255128
3.52577751290924
3.52155294350252
3.51780884296355
3.51483170832456
3.51320421169509
3.51335980874314
3.51640229848287
3.52300965752686
3.54256905795618
3.55556302466181
3.54637715099576
3.57969526569868
3.66005043983339
3.78900329781752
3.96123332773725
4.17052594966908
4.40505584801193
4.6590898163922
4.92829839414466
5.21209136896941
5.51035489077781
5.84306696009209
6.22092607204518
6.64528300787561
7.12118743111004
7.64758438187911
8.22010230744246
8.75413052696677
9.20992137238448
9.57100769976187
9.67542948001953
9.69047134815484
9.32944132967265
9.95877775947633
11.1126437547684
14.4917580459267
17.2987006886451
14.5302856702166
14.8750917205493
15.0590552115061
25.2693240195912
28.2123475816874
17.8569341200887
9.07295252097625
6.76850792280054
6.24010093078927
5.75387795341577
5.42673680599228
5.22393660338381
5.06254435599035
4.92740512021432
4.76092070469016
4.53628508631128
4.25372204678436
3.94871121242383
3.65413990838714
3.40511622852447
3.22606019931775
3.12291452836541
3.08849750706011
3.12526460536554
3.22900616708118
3.37469347370606
3.50742107485534
3.5254354119414
3.33627996095463
3.21226171640188
3.15489673482427
3.10972113157259
3.08941581310858
3.07608356188521
3.07163088562174
3.07093262643463
3.07363090533924
3.07809322354459
3.08385495872602
3.09030962425724
3.09717151975434
3.10418810068196
3.1111410669495
3.11784078447063
3.12422747313386
3.13027304166275
3.13595523850451
3.14125353425066
3.14615203663582
3.15064278591518
3.15472374812248
3.15839675079601
3.16166660362207
3.16453972562346
3.16702393350275
3.16912826234661
3.17086208811637
3.17223536858108
3.17325850876326
3.17394193522494
3.17429645765576
3.17433258173919
3.17406063224393
3.17349039520177
3.17263082829508
3.17148980765409
3.17007374181909
3.16838766065077
3.16643544257972
3.16422085500136
3.16174938335203
3.15902992202185
3.15607443346294
3.15289551259072
3.1495008343011
3.14589374334006
3.14207640070393
3.13805212169843
3.13383112820349
3.12943410818611
3.12489582804104
3.12026854742024
3.11561590444901
3.11104406426862
3.10668262479563
3.10277223410212
3.0995928033709
3.09765686218991
3.09741026914379
3.09982924262603
3.10576936279491
3.12314907504299
3.13577466704237
3.12866156509042
3.15305754073642
3.21633460532937
3.31988412722347
3.45938854372444
3.62915833099156
3.81952144748048
4.02588784793387
4.24488840498712
4.47583379025539
4.71894739541528
4.9900796953835
5.29769409389889
5.64243113538473
6.02755668424033
6.45200816351166
6.91183333135431
7.34258701793531
7.71281410178968
8.01443161114862
8.11645006784152
8.15118524110308
7.86886709230796
8.33022658182538
9.13391979877725
11.5789842549916
13.8795831371314
11.9591973168044
12.6479662924127
12.0809259696001
21.3107927595264
26.5431435499668
18.2403442729256
8.80542622198892
5.72386570638579
5.03372010524875
4.56727196423783
4.30103441965741
4.17995919085686
4.09986092529338
4.03002184281539
3.91747184232304
3.74588002047114
3.52522098756655
3.29185518413638
3.07316599770405
2.89627037736446
2.77771246010261
2.71962456172258
2.71502288670698
2.76407423220026
2.85963966495081
2.97777254843658
3.07336077042515
3.07337914614728
2.92529026517822
2.83795725410685
2.79681285414237
2.7659274622674
2.75386400859
2.74693893791773
2.74679768498051
2.74938060903422
2.7544681932608
2.76077157181381
2.76794024440343
2.77549992263549
2.78322928531607
2.79092870733601
2.79840683293404
2.80554610683335
2.8123108798997
2.81868004983075
2.8246366997193
2.83016645823709
2.83525977636895
2.83991341003214
2.8441286389284
2.84790983794756
2.8512637120896
2.85419825308573
2.85672261945994
2.85884697854165
2.86058181469065
2.86193812723811
2.86292730230458
2.86356077535155
2.8638502812042
2.86380729423829
2.8634430903593
2.86276843475111
2.86179331874098
2.86052672711566
2.85897632776621
2.85714856633061
2.85504893155351
2.8526829218302
2.85005766078242
2.84718327433797
2.84407242970006
2.84073789922373
2.83718807546778
2.83342779973242
2.82946125159517
2.82529424168079
2.82093914212892
2.81641809474194
2.81176616629517
2.80703375618525
2.80228364947775
2.79761578403755
2.79315817756574
2.78913317438538
2.7858097396334
2.78364733189219
2.78309306093905
2.78502330846533
2.79039515704544
2.80592898984916
2.81807823975237
2.81277638712744
2.83103273435026
2.88186223582337
2.96676010950592
3.08221768579415
3.2230780131867
3.38128156204802
3.55301681250735
3.73558552744278
3.92827541466455
4.13158136460616
4.35835347953574
4.61554801638409
4.90351916929428
5.22446767945808
5.57754491313391
5.9592970332057
6.3198124974457
6.63306111536873
6.89396897177015
6.99401194466801
7.03606829692727
6.80681035037685
7.15001845543061
7.73712750120279
9.53743127491328
11.4212552639324
10.0443104461975
10.8768512505757
9.99795453210746
17.6883163029369
24.5885339118508
18.6606284052496
9.0615723557759
5.18120006687516
4.26584074247001
3.78144881491632
3.52872517306844
3.44254479038292
3.40690082689042
3.37595858416443
3.29942321099183
3.16776820301423
2.99574942092458
2.81717099713456
2.65437219117782
2.52843966374013
2.45083927886002
2.42175272327329
2.43464578878688
2.48799356513401
2.57328988962691
2.66897096111368
2.73896162622059
2.73110309727256
2.61644114737753
2.55423908617944
2.52457025469035
2.50387138617924
2.49748728139244
2.49507402596564
2.4978877420648
2.50272548013482
2.50942002195877
2.51694751865041
2.52502985140309
2.53329076821259
2.54155366741611
2.54965162450601
2.55742949550989
2.56481456036616
2.57178296413184
2.57831792055814
2.5844064491795
2.59003863951253
2.59520922487943
2.5999180019753
2.60416834254122
2.60796618885433
2.61131938491734
2.61423687369272
2.61672864057475
2.61880557234171
2.62047889685617
2.62176034300882
2.62266201599891
2.62319611766256
2.62337511275806
2.62321126019976
2.62271662737315
2.62190281116417
2.62078069287901
2.61936022173274
2.61765015868036
2.61565817081102
2.6133911202036
2.6108559667498
2.6080612133469
2.605018046942
2.60173977683512
2.59823940495844
2.59452596834077
2.59060557310758
2.58648408314198
2.5821693455105
2.57767546471938
2.57302572959641
2.5682553164385
2.56341302398047
2.55856073887221
2.55379424365513
2.54923891963056
2.54510035880278
2.54163604084824
2.53926297580343
2.53842166091289
2.53990672512177
2.54472318285186
2.55859358709899
2.57013271429012
2.56635902772762
2.5803115543784
2.62181660317072
2.69258507508255
2.78977690790498
2.90875131365659
3.04269712250672
3.18835938215532
3.34352080079569
3.50749584031237
3.68099777164145
3.8746327265745
4.09427915693396
4.3402108550555
4.61399259804653
4.91508458341325
5.24060716657051
5.55139529772487
5.82506565637397
6.05670127573831
6.15439041444137
6.19659898069203
6.00341069938376
6.26033134031815
6.705950878187
8.05668995671508
9.60043409805859
8.59767583361441
9.42005309955468
8.57221788127358
14.4398370732866
22.4875028603771
18.8658010120476
9.6589911362773
5.00115072195035
3.79657302784698
3.26467572287888
2.9978020670481
2.91654151024343
2.90066315232538
2.89135814275096
2.83890053597485
2.73731463707483
2.60291581419735
2.4656622371074
2.34381139396697
2.25399556879883
2.20434756068833
2.19400543955305
2.21687072603818
2.2702393606478
2.34526050353041
2.42321214545836
2.47568680858632
2.46545728795762
2.37733715669687
2.33269073477378
2.31157034757461
2.29838394966064
2.29614471182309
2.2970878203061
2.30207325502925
2.3085827688879
2.31645980245331
2.32488777835485
2.33363679378269
2.34240529533646
2.3510496249166
2.35942474224934
2.36741378999251
2.37497015554643
2.38207638223595
2.3887188717223
2.39488779866491
2.40057667131586
2.40578329528645
2.41050958074849
2.41476034062087
2.41854258237586
2.42186492544938
2.42473697938954
2.42716933489972
2.42917343689474
2.430761119295
2.43194473225034
2.43273701870602
2.43315087255497
2.4331994407831
2.43289572071951
2.4322525365054
2.43128228498439
2.42999670296896
2.42840666175626
2.42652195090953
2.42435136875796
2.42190302285769
2.4191851777546
2.41620756399332
2.41298234160293
2.40952345254267
2.4058441923785
2.40195420461257
2.39786070228389
2.39357099644469
2.3890946373028
2.38444715275083
2.37965273962073
2.37474652699528
2.3697760767767
2.36480283115574
2.35991854630443
2.35524440220299
2.35097172822996
2.34734616864908
2.34474936598584
2.34360973017594
2.3446524936129
2.34889255741198
2.36121103965204
2.37201708166864
2.36949517506638
2.38038967853174
2.41476154667724
2.47456149856267
2.55751148267435
2.65945946848409
2.77458632636524
2.9000518531226
3.03399291889948
3.17578536224626
3.32631977362612
3.49448502633841
3.68535081209737
3.89920951656918
4.13725954917009
4.39931642422107
4.68314481653304
4.95766465706348
5.2028872071413
5.41250503984372
5.50704409744814
5.54498193157586
5.37615842871848
5.56854602254431
5.91667932708661
6.9497723872013
8.21394585679691
7.48711622397288
8.19694630539007
7.6021985269729
11.6022051295278
20.3637106338984
18.8371440522614
10.4719347087118
5.10610374899248
3.54458808019724
2.93368873580301
2.63423545158525
2.53840344710212
2.52558909558534
2.52650377375169
2.4899854897493
2.41094008371756
2.3053446455653
2.19912149029567
2.10735122269707
2.04333141978181
2.01292784207073
2.01468794371195
2.04289429633052
2.09409411939138
2.15971970405133
2.22389456901833
2.26444764475296
2.25476740347899
2.18756828528735
2.1555427880984
2.14109319493078
2.13364112077131
2.13460832999211
2.13818552427746
2.14488570846496
2.15273388431799
2.16156715439293
2.17073239930793
2.18003392017318
2.18922822422737
2.19819671892734
2.20681315556873
2.21499369560059
2.22270729237881
2.22994051526733
2.23668243949916
2.24292592786254
2.24866725547972
2.25390658281909
2.2586474208611
2.26289568486832
2.26665920437693
2.26994722025474
2.27276990273929
2.27513838068125