/*--------------------------------*- C++ -*----------------------------------*\
  =========                 |
  \\      /  F ield         | OpenFOAM: The Open Source CFD Toolbox
   \\    /   O peration     | Website:  https://openfoam.org
    \\  /    A nd           | Version:  7
     \\/     M anipulation  |
\*---------------------------------------------------------------------------*/
FoamFile
{
    version     2.0;
    format      ascii;
    class       volSymmTensorField;
    location    "20000";
    object      tauij_B_bouss;
}
// * * * * * * * * * * * * * * * * * * * * * * * * * * * * * * * * * * * * * //

dimensions      [0 2 -2 0 0 0 0];

internalField   nonuniform List<symmTensor> 
15600
(
(1.37742616512206e-06 -7.13221344129716e-09 -6.14747143015562e-29 1.37750078713285e-06 -7.59757203680304e-31 1.37746705810487e-06)
(1.24331643514541e-06 -7.18082594846929e-09 2.46420393328316e-28 1.24396949247363e-06 -1.15346198340287e-27 1.24363117724036e-06)
(7.37042424200162e-07 -2.7639570288208e-09 6.53805959483935e-28 7.38210246477588e-07 -1.42350575142663e-27 7.37631761473032e-07)
(3.16850992306626e-07 3.05880177854752e-11 -1.90234933101136e-24 3.16726175500516e-07 -6.74505208303112e-24 3.16780339976131e-07)
(9.21083535118794e-08 1.29583115957555e-10 -1.0659338797198e-24 9.17855157363812e-08 -2.24638059779568e-24 9.1944954785096e-08)
(4.78040325913803e-08 4.64526242348614e-11 2.94751758827921e-28 4.76155648559193e-08 1.53942204509333e-27 4.77089950962344e-08)
(4.31031952896774e-08 2.27198900984091e-11 1.80502902077517e-27 4.29631955083742e-08 2.25456920629631e-27 4.30327195208285e-08)
(2.63297350462014e-08 8.49005015678687e-12 1.76210895608139e-27 2.62561139150311e-08 2.15505217144395e-27 2.62926554102577e-08)
(1.46318336480782e-08 3.16260535184441e-12 6.74416934344186e-28 1.45972195906128e-08 8.83612672329606e-28 1.4614428053404e-08)
(9.59712143819224e-09 1.69714074127266e-12 -6.62626773475533e-28 9.57737223832344e-09 -6.45103944047556e-28 9.58719232512549e-09)
(7.04222360927038e-09 1.18769458359387e-12 -4.16341527198197e-28 7.02963298900833e-09 -5.44885272124704e-28 7.03590530389366e-09)
(6.03440106014522e-09 1.05461399319958e-12 6.84765522525242e-28 6.02436409085319e-09 7.84481893865832e-28 6.02936990640012e-09)
(6.18023297736894e-09 1.13962924549725e-12 8.06776387554147e-32 6.17021625955159e-09 -4.50081787550051e-33 6.17521870184059e-09)
(7.14830781504317e-09 1.44523697721981e-12 7.65600024736905e-29 7.13625360470575e-09 -2.916677140203e-30 7.14228054826954e-09)
(8.97102260693481e-09 2.08401159430658e-12 -3.48653944501064e-28 8.95422356596836e-09 -5.52051379986074e-28 8.962628354165e-09)
(1.18418812179758e-08 3.27587729354563e-12 1.60691433759276e-27 1.1816074391924e-08 2.28294878288615e-27 1.18289879114744e-08)
(1.59870418612004e-08 5.36851468216893e-12 4.6968447359294e-28 1.59461330831309e-08 -3.72576276392649e-29 1.59665950891036e-08)
(2.15961666380077e-08 9.14469602345238e-12 1.8976676404107e-27 2.15322842503433e-08 1.61174659511143e-27 2.15642270862465e-08)
(2.89093789471123e-08 1.59020186307941e-11 -2.30021576908696e-27 2.88128708520169e-08 -2.40634189772997e-27 2.88611106622245e-08)
(3.7973828906747e-08 2.7294441268542e-11 6.60870323657585e-29 3.78361362147892e-08 -2.26920903414904e-29 3.79049524117688e-08)
(4.85019093744632e-08 4.48242286932584e-11 6.62566748762314e-27 4.83205797643107e-08 1.05789847404519e-26 4.84112137274113e-08)
(5.9963837474293e-08 6.95060115083624e-11 1.04600485118825e-26 5.97451730119655e-08 2.18152868133451e-26 5.98545476494768e-08)
(7.19451637493566e-08 1.0052975509774e-10 2.11027714932851e-27 7.17027569278638e-08 -2.35102062296308e-28 7.18241260328662e-08)
(8.37276089890312e-08 1.33455653531885e-10 -3.34314515707285e-27 8.34846526461038e-08 -1.22500810378141e-26 8.36064382371588e-08)
(9.3687150521812e-08 1.61361800145571e-10 7.34004000233984e-27 9.34727304219408e-08 4.77593999455441e-26 9.35803674966588e-08)
(1.01200094836643e-07 1.83326558261906e-10 2.66188393433666e-25 1.01035414483632e-07 -3.34944270490231e-26 1.0111845072951e-07)
(1.08551366984355e-07 1.97110136046516e-10 2.2222148913599e-25 1.08448021796293e-07 -1.47751084082671e-24 1.08499757341611e-07)
(1.23500520517427e-07 2.79534866388479e-10 -2.48893991865805e-25 1.23438201628019e-07 -1.39404249974172e-24 1.23470170929179e-07)
(1.65816978669595e-07 5.77766208463699e-10 -4.58359296777873e-25 1.65771431488449e-07 3.72280447133331e-26 1.65795481536481e-07)
(2.29902443875299e-07 1.08592172594741e-09 2.58014749233125e-31 2.29844021476535e-07 2.3585098741943e-28 2.29874457780595e-07)
(2.99420743241026e-07 1.7258859773675e-09 9.20707156761212e-25 2.99352657286646e-07 -6.77667112941821e-26 2.99388819598521e-07)
(3.73158030806762e-07 2.49879375411926e-09 2.59877312904943e-24 3.73082265550284e-07 -4.51577427579279e-24 3.73122643191928e-07)
(4.49276570996307e-07 3.36649374845031e-09 5.52594863820429e-25 4.49196311778907e-07 -4.64270793430726e-24 4.49239613718041e-07)
(5.26792616960095e-07 4.30984049088339e-09 -1.65612362545647e-24 5.26709828530437e-07 1.12950056112737e-25 5.26754960896897e-07)
(6.04914831268819e-07 5.30615584334381e-09 -2.3176875394543e-29 6.04831104844622e-07 6.15444535257641e-28 6.04877347483887e-07)
(6.83292636249889e-07 6.34138226507947e-09 3.04291103158035e-29 6.83209092119772e-07 -2.75972562105985e-28 6.83255851680976e-07)
(7.61624167238455e-07 7.40209900114838e-09 2.00906812770311e-29 7.61541727756402e-07 6.16492173297037e-28 7.61588545801724e-07)
(8.39746114425265e-07 8.47814051718381e-09 -2.83495326386035e-24 8.39665572770533e-07 1.5759657826382e-25 8.39712019978467e-07)
(9.17492732098089e-07 9.55981422579993e-09 -8.46905322665082e-24 9.17414847756961e-07 1.04224018141806e-23 9.17460512346046e-07)
(9.94724084177691e-07 1.06383995221414e-08 -2.51696743912812e-24 9.94649619050827e-07 1.02372415249335e-23 9.94694071401343e-07)
(1.07128525912122e-06 1.17052897944053e-08 3.75845799974027e-24 1.07121499664197e-06 -1.89670640374857e-25 1.07125778919863e-06)
(1.14702483541136e-06 1.2752248488948e-08 -4.8755527870921e-29 1.14695957530697e-06 -6.75257417820617e-28 1.14700024247264e-06)
(1.22180050184742e-06 1.37714029514252e-08 5.87716766498253e-29 1.22174105319173e-06 -2.53579356231702e-30 1.22177911777768e-06)
(1.29549790422686e-06 1.4755509465329e-08 -9.48949084189335e-30 1.29544506883579e-06 6.51805548659742e-28 1.29548005100865e-06)
(1.36803125714304e-06 1.56980215951531e-08 -1.91693595983418e-28 1.36798580544218e-06 -6.80037036749078e-28 1.36801723841716e-06)
(1.43943716821134e-06 1.65942596388767e-08 6.46814152672169e-24 1.43939982834276e-06 -2.30599884328495e-25 1.43942726220525e-06)
(1.50980657493106e-06 1.74406670542812e-08 1.70141167827505e-23 1.50977802670313e-06 -2.12585807870451e-23 1.50980103111899e-06)
(1.57903652434551e-06 1.82319684781716e-08 3.3583644347184e-24 1.57901739926731e-06 -2.12753194664754e-23 1.57903556493143e-06)
(1.64615742462518e-06 1.89533296403639e-08 -7.68540583705127e-24 1.64614829627527e-06 2.33115926855424e-25 1.64616123956534e-06)
(1.71032569145509e-06 1.95921260244792e-08 1.81549822467907e-28 1.71032703369625e-06 1.16538032534676e-27 1.71033442109381e-06)
(1.77122238989255e-06 2.01426604407492e-08 -6.6706316884836e-29 1.77123455934933e-06 -8.48361916607318e-28 1.77123611897691e-06)
(1.82863431036343e-06 2.0601335087846e-08 9.52999416068645e-24 1.82865754085647e-06 -1.94093253065054e-25 1.82865306694429e-06)
(1.88237122240377e-06 2.09657159710711e-08 2.16713577479019e-23 1.8824056188502e-06 -3.03207374429912e-23 1.88239497636021e-06)
(1.9322704376529e-06 2.12345824031322e-08 1.63465481581649e-24 1.93231597460224e-06 -3.0947994601114e-23 1.9322991013342e-06)
(1.97819956828176e-06 2.14079194290684e-08 -1.06527462695377e-23 1.97825609417257e-06 1.62221990650243e-25 1.97823299921781e-06)
(2.02005567217872e-06 2.14868544392761e-08 1.79614369595543e-29 2.02012291360043e-06 -1.82346722920372e-31 2.02009367634338e-06)
(2.05776706794458e-06 2.14736096244193e-08 -8.58867084751925e-30 2.05784463868873e-06 1.90800690881991e-28 2.05780940467238e-06)
(2.09129200510044e-06 2.13713925659054e-08 -3.82678101168485e-29 2.09137941780837e-06 6.48936900812126e-29 2.09133839296581e-06)
(2.12061589660793e-06 2.1184273736239e-08 2.40043903857582e-29 2.12071257365565e-06 -3.66582543647704e-28 2.1206660193458e-06)
(2.14575105091598e-06 2.09170796635938e-08 1.49090911359864e-29 2.14585633900665e-06 1.04773205211833e-28 2.14580456402609e-06)
(2.16673221092914e-06 2.05752413335023e-08 -1.01551791601111e-29 2.16684539308896e-06 -0 2.16678874780302e-06)
(2.18361600380176e-06 2.01646906507613e-08 -2.25054999325658e-29 2.18373631324899e-06 -1.14239305287071e-31 2.18367518188322e-06)
(2.19647775283566e-06 1.96917249698484e-08 -3.25969010534079e-29 2.19660438599392e-06 -2.36089483082301e-28 2.19653917965072e-06)
(2.20540948943659e-06 1.91628962286717e-08 6.07902722145777e-29 2.20554161838609e-06 -2.46627718710847e-28 2.2054727681279e-06)
(2.21051818941849e-06 1.85849034106183e-08 4.12907862621285e-29 2.21065497429567e-06 4.86210734676e-28 2.21058292409085e-06)
(2.21192355729783e-06 1.7964490244539e-08 -4.66634516154634e-29 2.21206415748849e-06 -5.92166393824429e-31 2.21198935795501e-06)
(2.20975673508371e-06 1.73083559854912e-08 -0 2.20990032098599e-06 -0 2.20982322252539e-06)
(2.20415696800387e-06 1.66230550772316e-08 -0 2.20430273160436e-06 -0 2.20422377836459e-06)
(2.19526759363396e-06 1.59149046385271e-08 -0 2.19541475859275e-06 -0 2.19533438252066e-06)
(2.18322866887258e-06 1.51898793710612e-08 -7.95947470669724e-42 2.18337649894326e-06 -1.4518730638079e-27 2.18329511482481e-06)
(2.16816649532284e-06 1.44535119139406e-08 -3.98517088282703e-42 2.16831429796273e-06 1.44813146415921e-27 2.16823230051636e-06)
(2.15018295715379e-06 1.37108449510864e-08 -1.78276394790643e-23 2.15033007828001e-06 -5.39984428350324e-25 2.15024784485725e-06)
(2.12935590665696e-06 1.29664887217725e-08 -4.29331358823261e-23 2.12950172159928e-06 6.28795912356162e-23 2.12941961529254e-06)
(2.10574646524246e-06 1.22247519103025e-08 -1.39138608283362e-23 2.10589036262305e-06 1.33141549071532e-22 2.10580874167632e-06)
(2.07943151907416e-06 1.14898659189721e-08 2.86254589351989e-23 2.07957290728662e-06 7.05100962436115e-23 2.079492121024e-06)
(2.05051219103157e-06 1.07659266697442e-08 1.74376409009034e-23 2.05065051661539e-06 6.66095878154428e-25 2.05057089501502e-06)
(2.01909682044123e-06 1.005672163085e-08 -6.45796973915001e-28 2.01923157964735e-06 2.67040164848287e-30 2.0191534276427e-06)
(1.98528123755764e-06 9.36558218589448e-09 1.39267924523327e-28 1.98541198619289e-06 -4.42092513419513e-27 1.98533557766457e-06)
(1.94911046488863e-06 8.69521570075487e-09 -1.79479125099144e-23 1.94923680782275e-06 -8.6637806925649e-25 1.94916238994179e-06)
(1.91054984182683e-06 8.04774812490637e-09 -2.20897870742596e-23 1.91067141235896e-06 6.78385504856649e-23 1.91059922040809e-06)
(1.86947580194039e-06 7.42477200821354e-09 1.31379011249317e-23 1.86959223731365e-06 7.41732334834998e-23 1.86952249682833e-06)
(1.82564112613372e-06 6.8276477411681e-09 1.68605349197931e-23 1.82575201273174e-06 9.01627189382702e-25 1.82568499087738e-06)
(1.77877743872124e-06 6.2576824224192e-09 -3.86976754765498e-28 1.77888234818893e-06 2.10424957034105e-27 1.77881829451385e-06)
(1.72838981668952e-06 5.71608671129378e-09 3.62998834283133e-28 1.72848819800678e-06 -4.13595549182573e-27 1.72842747053867e-06)
(1.67401856634948e-06 5.20402296727418e-09 5.50139848266717e-29 1.6741098676272e-06 3.45878902300694e-28 1.67405275432612e-06)
(1.61467899803134e-06 4.72268794128258e-09 -2.18533748353413e-28 1.6147623823552e-06 1.62704588491623e-27 1.61470943830899e-06)
(1.54968848025257e-06 4.27322908639582e-09 2.59209598586392e-29 1.54976319815049e-06 9.36236080854276e-27 1.54971475637013e-06)
(1.47717461262141e-06 3.85700075186965e-09 -3.86237764767679e-28 1.47723931183451e-06 -1.42688585814135e-26 1.47719629532632e-06)
(1.39658129391528e-06 3.47563320061147e-09 -9.55340862870246e-30 1.39663518961277e-06 5.02390972307547e-27 1.39659787090388e-06)
(1.30539373339209e-06 3.13010301699655e-09 6.22070074350841e-28 1.30543512356396e-06 -3.30796454233815e-27 1.3054046643745e-06)
(1.20530525637953e-06 2.82464699036443e-09 4.33493941582733e-29 1.20533725835873e-06 6.22731904286652e-27 1.2053123359906e-06)
(1.09135612035347e-06 2.5262567607484e-09 -5.62049243377908e-28 1.0913759981223e-06 -2.87500029924793e-27 1.09135684635794e-06)
(1.02156515523626e-06 2.42038762384824e-09 1.1400518932868e-28 1.02192109723027e-06 3.89305275332198e-27 1.02173937870969e-06)
(1.06885662697813e-06 2.47259568152002e-09 -1.36909513101873e-25 1.07013894812253e-06 -1.99611092530197e-26 1.06949906258122e-06)
(1.15789293691396e-06 2.44064651009425e-09 3.19976462363528e-25 1.16011460355914e-06 -1.50070191769211e-24 1.15901464816517e-06)
(1.28075403672722e-06 2.30032153742311e-09 3.17493412840825e-25 1.2838524042893e-06 2.74415157992383e-26 1.2823214300743e-06)
(1.40676110551603e-06 1.95347827772011e-09 -4.47262457370268e-26 1.41037407441321e-06 -7.23904082704387e-25 1.40859581807043e-06)
(1.53910253329559e-06 1.47503828657261e-09 -6.12362676613257e-26 1.54273617242691e-06 -9.22478316198943e-25 1.54095527992878e-06)
(1.67792228339282e-06 9.11713376785073e-10 7.95832599327477e-25 1.68092026042914e-06 -8.21916700824566e-25 1.67946460266426e-06)
(1.83702139823376e-06 3.17231967361176e-10 1.70050738087418e-25 1.8385595883852e-06 1.58105036289487e-26 1.8378355170504e-06)
(1.99252716418412e-06 -2.66150190352933e-10 8.55461051325894e-25 1.99166176164672e-06 -1.48033843300593e-24 1.99213588034874e-06)
(2.13584617400461e-06 -8.24541061063764e-10 1.17459722252007e-24 2.13169527842623e-06 -1.40134378780334e-24 2.13379993197781e-06)
(2.25062850155717e-06 -1.35400410070446e-09 1.46781688587297e-24 2.24252645469548e-06 -1.94949941763304e-24 2.24658896460272e-06)
(2.3246850748709e-06 -1.87397302919593e-09 1.10920441504582e-24 2.31227608062122e-06 -1.27731585341425e-24 2.31846761976885e-06)
(2.31618026126143e-06 -2.31828212964268e-09 -7.33176347673599e-25 2.3000170736752e-06 1.16435060266412e-24 2.30806625930422e-06)
(2.25858815672118e-06 -2.60088574234336e-09 1.82177941741342e-25 2.23962946543675e-06 -4.9312126400486e-25 2.2490608901465e-06)
(2.18856333360215e-06 -2.73779778000135e-09 8.66193124609726e-25 2.16742077735943e-06 -1.32821994309506e-24 2.17793033064787e-06)
(2.12491276647864e-06 -2.76525449995469e-09 -2.01793454215642e-25 2.10188182192663e-06 3.87033943716706e-25 2.11332307608369e-06)
(2.09173474516555e-06 -2.74586439180049e-09 1.19088640221155e-25 2.06656912260469e-06 6.48445466419582e-27 2.0790607114575e-06)
(2.12421505137678e-06 -2.74987636327465e-09 -1.23103763660195e-24 2.09585652716886e-06 1.46520845732087e-24 2.10992020369781e-06)
(2.29429098994496e-06 -3.0896659249946e-09 -6.24801829063625e-25 2.25941426632013e-06 8.56055550350218e-25 2.2766786458735e-06)
(2.56975537473888e-06 -4.3163667178113e-09 5.28019730956485e-25 2.52413692607262e-06 -8.29729083611487e-25 2.54668657088924e-06)
(3.01087956699339e-06 -7.44804017933101e-09 -1.88964835954318e-26 2.948027761355e-06 -3.28449392053728e-25 2.97906455700335e-06)
(3.73853198484178e-06 -1.53528090237003e-08 -4.43861160556242e-26 3.64581462818352e-06 -1.91598178768276e-28 3.69154639963558e-06)
(4.68395810132639e-06 -3.38973293502291e-08 1.64738487266434e-28 4.54891427673179e-06 4.2547868619666e-30 4.61549357946531e-06)
(5.05840151145834e-06 -6.43171338287311e-08 6.13986861358507e-25 4.90477684450217e-06 2.95797865524474e-25 4.9804696758976e-06)
(3.74411504448709e-06 -6.40006543890989e-08 2.46321512264441e-25 3.66462126720596e-06 6.85982342076788e-26 3.70398703570343e-06)
(2.5705155177398e-06 -3.76702763231417e-08 -2.06456127937004e-30 2.54950185654149e-06 1.2551142535747e-29 2.55991319649817e-06)
(1.69621540504701e-06 -1.48453814575682e-08 -2.3714584734139e-28 1.69381366204575e-06 9.47239814486368e-27 1.69502487617038e-06)
(1.39508553675894e-06 -7.39601247907811e-09 3.18718565133855e-31 1.39489285793539e-06 -1.61783508839528e-33 1.39497779455147e-06)
(4.44498434757547e-05 -1.64943088599386e-06 4.51138113714951e-28 4.44557073335571e-05 -8.78727368564985e-30 4.44542290111819e-05)
(4.01489236255723e-05 -1.49771945570052e-06 -7.31917543669649e-26 4.0252465250109e-05 2.12357770133806e-25 4.0198229135145e-05)
(2.37875282479695e-05 -6.5410736771767e-07 -1.59730065604912e-22 2.39913894656967e-05 -1.44522613837087e-24 2.38919476207465e-05)
(1.03549085266558e-05 -7.02914654202891e-08 3.9734601760376e-22 1.03762222556951e-05 1.18988837140606e-21 1.03661962791761e-05)
(3.0876108180234e-06 1.52261120595485e-08 8.44528297264682e-23 3.04055520757122e-06 4.87791682900031e-22 3.06446845370501e-06)
(1.5805407336812e-06 7.52408493871124e-09 1.26196873857722e-23 1.54967091201196e-06 -1.1643833425866e-25 1.56523765810802e-06)
(1.41836524834488e-06 4.00063598684222e-09 -3.01982375926746e-25 1.39468282891291e-06 -4.22572723127427e-25 1.40662378166791e-06)
(8.77093812985028e-07 1.55948350067775e-09 -2.51717993657937e-25 8.64243751634792e-07 -4.63298820406361e-25 8.70709777046485e-07)
(4.89155420743737e-07 6.08658114069393e-10 -1.60585823027955e-25 4.82963580738441e-07 -1.67401191635784e-25 4.86079330417568e-07)
(3.18963024293904e-07 3.33671298315374e-10 1.04602558747275e-25 3.15395964231189e-07 1.22495718284633e-25 3.17187833735167e-07)
(2.32727439240608e-07 2.36165771292809e-10 1.00236690905501e-25 2.30415507966976e-07 1.01490020978712e-25 2.31575795289434e-07)
(1.97886341627393e-07 2.06061644398329e-10 -1.08236115255799e-25 1.96026401578975e-07 -1.54166062987106e-25 1.96958503081122e-07)
(2.01248310090211e-07 2.20044139618438e-10 -1.52219819930612e-25 1.99370616681882e-07 -1.71878710465951e-25 2.00310409601137e-07)
(2.31672125724072e-07 2.74040055584763e-10 1.49485162210715e-25 2.2938932837095e-07 2.20761973549348e-25 2.30530713439196e-07)
(2.8991171612457e-07 3.86562955315688e-10 -1.39387053814416e-25 2.86715740083341e-07 -2.03484942718905e-25 2.88312689369225e-07)
(3.82213524551954e-07 5.95151208695688e-10 8.00697796811113e-26 3.77322361877359e-07 -7.68746934434314e-27 3.79766723607884e-07)
(5.16146793307886e-07 9.65935553167881e-10 -1.29326736178476e-25 5.08447800514003e-07 9.96959957420754e-27 5.1229626402857e-07)
(6.98088032949954e-07 1.64683728812738e-09 -1.07373420315144e-24 6.86138076778502e-07 -1.2218852293761e-24 6.9211409989025e-07)
(9.36145078535784e-07 2.88466245118332e-09 -6.02786903361368e-25 9.18180591889841e-07 -9.32952364413884e-25 9.27167765345934e-07)
(1.23233931822459e-06 5.02200129789027e-09 2.10684814408864e-25 1.20673648294515e-06 -1.14555337540983e-26 1.21954874884609e-06)
(1.57759059229008e-06 8.42619014694826e-09 -8.8101083928816e-25 1.54362670692919e-06 -1.98005579573771e-24 1.56061830919108e-06)
(1.95405807416796e-06 1.3404059895942e-08 -1.81902899186753e-24 1.91242661886663e-06 -4.03433938152681e-24 1.93324564092042e-06)
(2.34664758614616e-06 1.99386465893896e-08 -3.72814657161608e-24 2.29948487590446e-06 -5.33315414483642e-24 2.32305758509497e-06)
(2.73103917933696e-06 2.74508696119165e-08 -4.19996989746367e-24 2.68231333564294e-06 -1.22059765309187e-23 2.7066472575664e-06)
(3.05519171848488e-06 3.48199186040919e-08 -7.97970887401746e-25 3.01021310409642e-06 -8.6049468000333e-24 3.03264581721648e-06)
(3.29814408586835e-06 4.15273698071544e-08 -7.80347960947627e-23 3.26166009480029e-06 1.39944216332868e-23 3.27991088133127e-06)
(3.53839034868362e-06 4.90798307718633e-08 -1.7893570751354e-22 3.51128143553348e-06 -5.84691223160569e-22 3.5246676240889e-06)
(4.02240136800768e-06 6.92899079747541e-08 4.78591984636802e-23 4.0008405674908e-06 -6.97194619976927e-22 4.01162666800121e-06)
(5.39187461350382e-06 1.25658217591719e-07 1.26716270171938e-22 5.36943749464417e-06 -1.02911979128245e-23 5.38062813168066e-06)
(7.46568719524283e-06 2.18104115390006e-07 3.46044259078584e-27 7.43743814316411e-06 1.52006854023739e-27 7.45132448147574e-06)
(9.71537968076216e-06 3.31050576543749e-07 -2.49349268956065e-22 9.68365633336832e-06 1.83528426135356e-23 9.69929264935031e-06)
(1.21004295776247e-05 4.62430001150297e-07 -5.72605939313025e-22 1.20662865011748e-05 -2.28466590919334e-21 1.20829671102024e-05)
(1.4560970504525e-05 6.06571518701728e-07 2.3162616023638e-23 1.45259824844088e-05 -2.86089916409941e-21 1.45429910648652e-05)
(1.70657567863832e-05 7.60136224083007e-07 4.32413008050687e-22 1.7030828595042e-05 -2.96365170226985e-23 1.70476746792502e-05)
(1.95892945173088e-05 9.19773276460119e-07 3.04367622049685e-26 1.9555174318784e-05 3.24989389299212e-27 1.95715038463602e-05)
(2.21204681592015e-05 1.08332107573252e-06 -1.31499329242935e-26 2.20876595144567e-05 5.09749381115387e-26 2.21032172334539e-05)
(2.46495828973798e-05 1.24880051547047e-06 -1.13889173839936e-37 2.46185006618497e-05 -1.13003898807386e-25 2.46330909348948e-05)
(2.71714425181288e-05 1.4146880125227e-06 7.37722169118373e-22 2.71424283726053e-05 -4.10642660083315e-23 2.71558879724388e-05)
(2.96807267158039e-05 1.5795473233392e-06 1.79352527576312e-21 2.96540984960656e-05 6.17099017031812e-21 2.96662811762048e-05)
(3.2172954767186e-05 1.74208720590275e-06 1.94594557408223e-22 3.21490165530991e-05 7.04151173786534e-21 3.21597831847722e-05)
(3.46431534840376e-05 1.90105015480256e-06 -9.54973048164159e-22 3.46222050204806e-05 4.83930954704979e-23 3.46314209955374e-05)
(3.70864680215152e-05 2.05524892798565e-06 -3.56595644371227e-26 3.70688017506703e-05 -3.89649892558088e-27 3.70763372595761e-05)
(3.94983388352372e-05 2.20357115479784e-06 1.36864971879097e-26 3.94842377050397e-05 -1.2492143095843e-25 3.94899690885267e-05)
(4.18751135791252e-05 2.34501822081477e-06 1.17713222515823e-37 4.1864845409506e-05 1.18457987985136e-26 4.18686573858191e-05)
(4.4214057230158e-05 2.47870839049238e-06 1.38849668088171e-37 4.42078684928385e-05 2.73204231896719e-25 4.42096565631362e-05)
(4.65163974474037e-05 2.60405675187845e-06 -1.65869789205134e-21 4.65145093247676e-05 5.89245676322841e-23 4.65141803143402e-05)
(4.87851288545912e-05 2.72065235215036e-06 -3.62902787784451e-21 4.87877300362582e-05 -1.35578717896289e-20 4.8785207454224e-05)
(5.10170120151752e-05 2.82782514553393e-06 -9.0280023886055e-23 5.10242584430884e-05 -1.48503803225981e-20 5.10194841527109e-05)
(5.31677600499835e-05 2.92274707388657e-06 1.9450652816581e-21 5.31797660882571e-05 -5.88658839338202e-23 5.31727036938654e-05)
(5.5219543016856e-05 3.00419404583341e-06 -8.26587668540712e-27 5.52363714781733e-05 -2.93167692643018e-25 5.52270086637347e-05)
(5.71655193308895e-05 3.07167831840709e-06 -4.95037730309195e-26 5.7187180932898e-05 2.37929207136803e-27 5.71755300548697e-05)
(5.8999053514036e-05 3.12485358974271e-06 -2.43971623493515e-21 5.90255063242518e-05 4.95246537741572e-23 5.90116045782194e-05)
(6.07142524866384e-05 3.163543185366e-06 -4.70889609921112e-21 6.07454017015289e-05 -1.96449440839083e-20 6.07293109820565e-05)
(6.23061048134072e-05 3.18774290516655e-06 4.32696864190775e-22 6.23418045492204e-05 -2.09265270505373e-20 6.23236103693513e-05)
(6.37705590337066e-05 3.19761688830956e-06 2.71104248820526e-21 6.3810615893505e-05 -4.12842564808028e-23 6.37904253685192e-05)
(6.51044980286229e-05 3.19348588243764e-06 5.29468004867714e-37 6.5148674888552e-05 -7.45086146552679e-26 6.51266148178551e-05)
(6.63057887277169e-05 3.1758176608634e-06 4.82891460089801e-27 6.63538099760083e-05 -3.7141251978373e-26 6.63300241383471e-05)
(6.73732358477326e-05 3.14521033452605e-06 -2.24040774038053e-28 6.74247932531708e-05 1.16978691048776e-25 6.73994394382699e-05)
(6.83064960813955e-05 3.1023736750995e-06 -9.74182776611891e-27 6.83612543743386e-05 1.72905226756308e-26 6.83345017224217e-05)
(6.91060623325869e-05 3.04811338630884e-06 5.05136146623973e-27 6.91636655350113e-05 -1.92969635762277e-26 6.9135691347393e-05)
(6.97731275670801e-05 2.98330980836385e-06 -0 6.98332044322975e-05 -0 6.98041916691186e-05)
(7.03095631860273e-05 2.9089029699544e-06 -0 7.03717328880659e-05 -0 7.03418674025095e-05)
(7.07178197938325e-05 2.825874164555e-06 -6.9598523893028e-37 7.07816971869479e-05 1.41572929141903e-25 7.07511652953852e-05)
(7.10008645745164e-05 2.73523061736905e-06 -3.39806955353716e-37 7.10660650446276e-05 4.76495942035425e-26 7.10350512834057e-05)
(7.11621252025973e-05 2.63799104004544e-06 7.00775008539254e-37 7.12282693191065e-05 -8.73748704187351e-26 7.11969542975445e-05)
(7.12054216419955e-05 2.53517182950912e-06 -0 7.12721393449578e-05 -3.18177333845698e-25 7.12406978864682e-05)
(7.11349236095324e-05 2.42777514394456e-06 -8.09115810569018e-40 7.12018584125061e-05 2.14543094805254e-25 7.11704576302488e-05)
(7.09550464056666e-05 2.31677578065505e-06 -0 7.10218591201953e-05 -0 7.09906567830236e-05)
(7.06703229436323e-05 2.20310916412311e-06 -2.77523753686263e-26 7.07366950115926e-05 -6.33927458320607e-28 7.07058380609293e-05)
(7.02851702529831e-05 2.08765830091011e-06 1.46015473125464e-26 7.03508060842939e-05 -9.11475257957014e-27 7.03204296556183e-05)
(6.9803559794282e-05 1.97124248388749e-06 9.76102117700117e-26 6.98681867402667e-05 4.84375260607309e-25 6.9838414220979e-05)
(6.92286904240073e-05 1.85461262887279e-06 4.76401449979829e-21 6.92920554136019e-05 1.45121736389691e-22 6.92630003268043e-05)
(6.85630017638505e-05 1.73846066458152e-06 1.09660834321286e-20 6.862486623087e-05 3.59164139472019e-20 6.85966345442709e-05)
(6.78084236678485e-05 1.62343567678026e-06 2.70175711022586e-21 6.78685579463616e-05 7.14060133923013e-20 6.78412512228696e-05)
(6.69673802886126e-05 1.51016874789027e-06 -8.25814215555081e-21 6.70255667004987e-05 3.53660578680755e-20 6.69992805950046e-05)
(6.60430466716107e-05 1.39926506235114e-06 -4.75841431042504e-21 6.60990865884532e-05 -1.81068884466664e-22 6.60739073963436e-05)
(6.50388172059003e-05 1.29128220775995e-06 -0 6.50925353483143e-05 -5.00626454526024e-25 6.50685381718752e-05)
(6.39576723489519e-05 1.1867134165104e-06 -5.95604736772211e-26 6.40089189750442e-05 8.14765636187554e-25 6.39861665704532e-05)
(6.28009787018235e-05 1.08597207691922e-06 4.89632351523915e-21 6.28496238006285e-05 2.35184309192017e-22 6.28281691845831e-05)
(6.15675846483858e-05 9.89398762203186e-07 5.74045028269111e-21 6.16135086169339e-05 3.57937788999454e-20 6.15934005594107e-05)
(6.02534927536624e-05 8.97278186523313e-07 -3.93673145252875e-21 6.02965725707585e-05 3.46850631675001e-20 6.02778595713459e-05)
(5.88508593829403e-05 8.09869850507256e-07 -4.71015628014143e-21 5.88909528270104e-05 -2.51025429220433e-22 5.88736963047964e-05)
(5.73510076915114e-05 7.27442916365647e-07 -5.53650723219868e-26 5.73879550523989e-05 -3.96043595734969e-25 5.73722182466476e-05)
(5.57382996865034e-05 6.50260456161167e-07 -1.1363850369776e-25 5.57719000799026e-05 7.61528935808728e-25 5.57577769161473e-05)
(5.39977690744602e-05 5.78611349194457e-07 9.30635753561529e-26 5.40277923266668e-05 -1.16316826888132e-24 5.40153721662017e-05)
(5.20984271488404e-05 5.12803170521968e-07 2.32032919111613e-25 5.21245574200332e-05 7.82248114005636e-25 5.21140001145558e-05)
(5.0017725334487e-05 4.5317794955235e-07 -2.99028042470349e-25 5.00396137807532e-05 -6.99600945199436e-25 5.00310479460714e-05)
(4.76968702441988e-05 4.00144254934517e-07 -2.49608838186423e-26 4.77140120097074e-05 -2.93832017947775e-25 4.77077098210979e-05)
(4.51160191477981e-05 3.54103183798563e-07 2.02451530148421e-25 4.51280009715668e-05 9.11160043807078e-25 4.51240934828181e-05)
(4.21960705391804e-05 3.155076930083e-07 -8.96206423427793e-26 4.22023569084899e-05 6.14241015349095e-25 4.22011371845835e-05)
(3.89838042067057e-05 2.84527356090354e-07 3.14569500221858e-39 3.89852043743711e-05 -1.15215478913375e-24 3.89863316727068e-05)
(3.53457966841205e-05 2.6086771603816e-07 7.88447231953003e-26 3.53416136758373e-05 5.30628580147372e-25 3.53448884648686e-05)
(3.31358280642732e-05 2.59446666092698e-07 6.48373569501047e-25 3.3168303029458e-05 -2.17136759420304e-23 3.315299636714e-05)
(3.46730811183698e-05 2.62895656776013e-07 -1.12682201492839e-26 3.48128696652116e-05 -5.64557573602008e-26 3.47422734163359e-05)
(3.75483996664637e-05 2.463540778005e-07 -1.43076885479241e-22 3.77872439294354e-05 6.5602104034523e-22 3.7666355725495e-05)
(4.15007572695882e-05 2.10514743783941e-07 -4.26654691469554e-23 4.18184685942433e-05 -3.85300909417986e-24 4.16563351214919e-05)
(4.55815148040142e-05 1.48383718459026e-07 7.13590220731965e-24 4.59186116618045e-05 9.16851498485034e-23 4.57456567233837e-05)
(4.9892717618462e-05 7.06690351989649e-08 -1.9002261166637e-22 5.01716239918715e-05 6.09943404199167e-22 5.00263439612768e-05)
(5.44577567181363e-05 -1.56873600099488e-08 -5.84288614764978e-22 5.45813848372714e-05 9.77472866173735e-22 5.45131229959819e-05)
(5.96880159577225e-05 -1.0491548259005e-07 -4.63310748019484e-23 5.95362918765886e-05 -4.23572289813172e-24 5.96053207238129e-05)
(6.48255581691147e-05 -1.89675704949696e-07 -1.84010592696404e-22 6.42701459157572e-05 2.72237214117285e-22 6.45421479184255e-05)
(6.95922128438817e-05 -2.67956669300665e-07 -2.28060491108162e-22 6.85169588043879e-05 2.58916949389063e-22 6.90509725662529e-05)
(7.3462932142836e-05 -3.39020037813455e-07 -2.29356858231866e-22 7.17853809550071e-05 3.29491739305261e-22 7.26240642047447e-05)
(7.60142395833819e-05 -4.05012188861087e-07 -1.42931671646982e-22 7.36976143487074e-05 2.40195144957879e-22 7.48596416627944e-05)
(7.59394917473922e-05 -4.5675312943569e-07 5.73259379206709e-22 7.3071586882196e-05 -8.07022500451248e-22 7.45133894367849e-05)
(7.42873728391286e-05 -4.86288184041054e-07 -5.68860360076904e-23 7.10012328530897e-05 5.9789394531627e-23 7.26547288206312e-05)
(7.22127021129465e-05 -4.95579789687679e-07 -1.03145096993283e-22 6.85987988497402e-05 2.39544988666997e-22 7.041831613325e-05)
(7.03366332811313e-05 -4.89980917172465e-07 -1.1594129779037e-22 6.64387635912153e-05 1.48900219460792e-22 6.84026446681991e-05)
(6.94662481212346e-05 -4.78785482683556e-07 -1.43631251027548e-22 6.52480610321816e-05 1.72754082336719e-22 6.73748828024828e-05)
(7.07928244284459e-05 -4.74093517980713e-07 2.01570816594873e-22 6.60950358440172e-05 -2.80001548086868e-22 6.84665784171843e-05)