2 	0.00391112967796256 	3.46944695195361e-18 	0.0605404687005839 	1.5325029724587e-05 	790.811867197528 	4.3920205893328e-06 	4.47018289000788e-38
2 	0.0118766651674914 	6.93889390390723e-18 	0.0605434400739012 	0.000152792785643271 	286.906900915101 	7.53450331624454e-05 	0
2 	0.0201340015485762 	1.04083408558608e-17 	0.0605498152841279 	0.000692775416713858 	69.2555106198543 	0.000377814389285883 	0
2 	0.028693828342395 	1.38777878078145e-17 	0.0605544724562936 	0.0018364762722183 	29.33704987683 	0.000761963888334524 	0
2 	0.0375672266585909 	1.04083408558608e-17 	0.0605607409985781 	0.00336637563367763 	16.0518616761778 	0.000707617837882615 	0
2 	0.0467656835403032 	1.04083408558608e-17 	0.0605714861894232 	0.00493947946694601 	10.3031481072148 	0.000366003285714462 	0
2 	0.0563011068347006 	2.08166817117217e-17 	0.0605860766635203 	0.00639525723412747 	7.43902424582611 	0.000117430683019242 	0
2 	0.0661858406082647 	2.42861286636753e-17 	0.060602119089729 	0.0077140389029864 	5.82911543580238 	3.17214528790373e-05 	0
2 	0.0764326811267815 	2.42861286636753e-17 	0.0606176654675354 	0.00891750745246228 	4.82465630947493 	3.8667234105746e-05 	0
2 	0.0870548934207258 	2.42861286636753e-17 	0.0606316030213251 	0.0100307106816613 	4.14540406345912 	8.87411080465568e-05 	0
2 	0.0942828553383272 	1.56125112837913e-17 	0.0606397578963948 	0.0107321171760347 	3.79760969208113 	0.000133234984836138 	0
2 	0.0998875533306744 	8.67361737988404e-18 	0.0606449582516965 	0.0112386895017929 	3.58993276770839 	0.000172017936508003 	0
2 	0.109480940942647 	6.93889390390723e-18 	0.0606521889839658 	0.0120630248845569 	3.29053632182683 	0.000240894895367588 	0
2 	0.121313807773417 	6.93889390390723e-18 	0.0606579428785231 	0.0130083358847457 	3.00627990478804 	0.000328887541556722 	0
2 	0.133580147168011 	6.93889390390723e-18 	0.0606601826472225 	0.0139186703399117 	2.78033570886461 	0.000421381313097896 	0
2 	0.146295838495839 	1.38777878078145e-17 	0.0606586070332362 	0.0148007527698579 	2.59715226857658 	0.000517529892359642 	0
2 	0.159477342834115 	1.73472347597681e-17 	0.0606529483937327 	0.015659882018283 	2.44637121974256 	0.000617086656953044 	0
2 	0.173141724277517 	1.04083408558608e-17 	0.0606429682816719 	0.0165003170986112 	2.3208370798071 	0.000720139430152401 	0
2 	0.18730667202848 	1.38777878078145e-17 	0.060628457418567 	0.0173255468006331 	2.21545678485894 	0.000826983391451005 	0
2 	0.201990523296728 	2.08166817117217e-17 	0.0606092386021946 	0.0181384823013272 	2.12651536404453 	0.000938060184881584 	0
2 	0.217212287037676 	1.73472347597681e-17 	0.0605851719821986 	0.0189415986406885 	2.05124902601229 	0.00105393114366223 	0
2 	0.232991668560441 	1.04083408558608e-17 	0.0605561625786164 	0.0197370422262386 	1.98756996934055 	0.00117526974896272 	0
2 	0.249349095037321 	6.93889390390723e-18 	0.0605221701439963 	0.020526716056063 	1.93388413115315 	0.00130286635637865 	0
2 	0.266305741947753 	6.93889390390723e-18 	0.0604832216543134 	0.0213123509609542 	1.88896789463448 	0.0014376421512353 	0
2 	0.283883560490999 	6.93889390390723e-18 	0.060439426903781 	0.0220955691195995 	1.85188346878576 	0.00158067144730235 	0
2 	0.30210530600303 	0 	0.060390997893029 	0.0228779449420473 	1.82192051174764 	0.00173321280831393 	0
2 	0.320994567414414 	-6.93889390390723e-18 	0.0603382729619693 	0.0236610678774164 	1.79855625246249 	0.00189675051396291 	0
2 	0.340575797787321 	-6.93889390390723e-18 	0.0602817469540888 	0.0244466116303103 	1.78142926004125 	0.00207304885483477 	0
2 	0.360874345971201 	0 	0.0602221091338646 	0.0252364145901089 	1.77032388134734 	0.0022642227475585 	0
2 	0.38191648941809 	6.93889390390723e-18 	0.060160291139962 	0.0260325769644633 	1.7651636412863 	0.00247282926831541 	0
2 	0.403729468200046 	1.04083408558608e-17 	0.060097527948777 	0.0268375811778681 	1.76601282752607 	0.00270198588317614 	0
2 	0.426341520272733 	1.73472347597681e-17 	0.0600354355627877 	0.0276544435973728 	1.77308621144249 	0.00295552225525467 	0
2 	0.449781918030829 	2.3635607360184e-17 	0.0599780886357638 	0.0284867761208924 	1.78684654611583 	0.00323857919253543 	0
2 	0.474081006202548 	2.32019264911898e-17 	0.0599299671197698 	0.0293394648099484 	1.80797951799475 	0.00355772290835132 	0
2 	0.499270241132363 	1.25767452008319e-17 	0.0598912413338635 	0.030219020852789 	1.83721177972993 	0.0039198809587661 	0
2 	0.525382231502763 	7.80625564189563e-18 	0.059866515242025 	0.0311334479458828 	1.87570061620942 	0.00433441977972311 	0
2 	0.552450780547767 	2.25514051876985e-17 	0.0598615936437155 	0.0320931196522157 	1.92498064004742 	0.00481292501712536 	0
2 	0.58051092981285 	3.12250225675825e-17 	0.0598835567655508 	0.0331115307177808 	1.98705358874712 	0.00536950173883986 	0
2 	0.60959900451791 	3.29597460435593e-17 	0.0599416318451373 	0.0342058423064246 	2.0644913171225 	0.00602066787294034 	0
2 	0.639752660582033 	3.64291929955129e-17 	0.0600512153204859 	0.0353963522308786 	2.1605366219307 	0.00679997333750135 	0
2 	0.671010933370887 	2.77555756156289e-17 	0.0602277598703585 	0.036714411566673 	2.2793327454928 	0.00783151960284828 	0
2 	0.703414288229901 	2.42861286636753e-17 	0.0604527043832307 	0.0382134403539674 	2.42650931042595 	0.00922237783956806 	0
2 	0.737004672868606 	2.08166817117217e-17 	0.0607257713309937 	0.039964332641003 	2.6055764112333 	0.0110756083364916 	0
2 	0.763040836909063 	1.04083408558608e-17 	0.0609820895426196 	0.0414625847600373 	2.75712813397834 	0.0127724394781427 	0
2 	0.780764448162254 	1.04083408558608e-17 	0.0611852144669218 	0.042551931359265 	2.86408554609246 	0.0140392644039115 	0
2 	0.807922061953054 	1.38777878078145e-17 	0.061543314804832 	0.0442922636573463 	3.02539192374545 	0.0160322450141311 	0
2 	0.845340872387743 	1.38777878078145e-17 	0.0621108520210345 	0.0467544055692826 	3.23459768065768 	0.0187346333090696 	0
2 	0.884130443427309 	1.38777878078145e-17 	0.0627647735407203 	0.0492409295343043 	3.41920233348467 	0.0212379567089886 	0
2 	0.924340990046898 	1.38777878078145e-17 	0.0634772246969712 	0.0515740456669706 	3.5651928554453 	0.0233290990977735 	0
2 	0.966024566743242 	1.38777878078145e-17 	0.064237304465741 	0.0535721227147339 	3.66400611945177 	0.0248783022849121 	0
2 	1.00923513492173 	1.38777878078145e-17 	0.0650560443070549 	0.0550605699411513 	3.70965961456579 	0.0257804504619753 	0
2 	1.05402863275205 	6.93889390390723e-18 	0.0659551284058106 	0.0558809198537807 	3.69610669225605 	0.0258743901103829 	0
2 	1.10046304758287 	3.90312782094782e-18 	0.0669625412265384 	0.0559070011122127 	3.61600830523368 	0.0249380022774506 	0
2 	1.14859849100923 	4.77048955893622e-18 	0.0681001390739394 	0.0551118439944987 	3.46438293499516 	0.0228457882927276 	0
2 	1.19849727668994 	2.60208521396521e-18 	0.0693638395587719 	0.0537116843052226 	3.25257396892923 	0.0199284848187471 	0
2 	1.25022400101563 	1.73472347597681e-18 	0.0708104170387223 	0.051969378665249 	2.99837649783091 	0.0166944099732832 	0
2 	1.30384562673186 	-3.46944695195361e-18 	0.0724223760134066 	0.0501205906402575 	2.72247293102495 	0.0133575684112893 	0
2 	1.35943156962565 	-3.46944695195361e-18 	0.0740705557179913 	0.0483471907083785 	2.44719944695097 	0.0104670910027113 	0
2 	1.39075482868029 	0 	0.0749747239201015 	0.0474167607328794 	2.30028023505043 	0.00906764128504244 	0
2 	1.42008416365482 	-3.46944695195361e-18 	0.0757867182770915 	0.046635685970927 	2.17871927797482 	0.00806193254784479 	0
2 	1.47678687776592 	-3.46944695195361e-18 	0.0773239618779487 	0.0452068717203824 	1.96473870192467 	0.00644784249807625 	0
2 	1.53870816513277 	3.46944695195361e-18 	0.0789469224715091 	0.0437427160303604 	1.77161582999491 	0.0052487541136455 	0
2 	1.60289781058851 	3.46944695195361e-18 	0.0805885506064336 	0.042207986087573 	1.60543172930251 	0.00440506801548151 	0
2 	1.66943891073266 	-2.16840434497101e-19 	0.0822640832167043 	0.0405031885781414 	1.45940853230595 	0.00376905255739999 	0
2 	1.73841760623657 	6.72205346941013e-18 	0.0839896740687481 	0.0385621126812298 	1.33403296789507 	0.00323895950465818 	0
2 	1.8099231933566 	1.38777878078145e-17 	0.085746091550473 	0.0364010151831535 	1.22593137263723 	0.00274905243625854 	0
2 	1.88404823953248 	1.04083408558608e-17 	0.0875121838996814 	0.0340571977393458 	1.13071111814846 	0.00228144023731903 	0
2 	1.94476845467419 	3.46944695195361e-18 	0.0888436298333825 	0.0321747742129539 	1.06487236536849 	0.00193885021710061 	0
2 	1.98387975145382 	0 	0.0896038361135008 	0.0310613870930297 	1.02949374164257 	0.00174445551568494 	0
2 	2.02025965173184 	0 	0.0904771580761928 	0.0297963655962773 	0.992558699385289 	0.0015349792011036 	0
2 	2.06006301192217 	0 	0.0914052022064492 	0.0283926812402987 	0.955116827890565 	0.00132209839357865 	0
2 	2.09845978584128 	0 	0.0921840082879603 	0.0271728313815029 	0.925578972519777 	0.00115020104128197 	0
2 	2.13549967996945 	0 	0.0929207021355875 	0.0260165433143929 	0.900119759067947 	0.000995636203297677 	0
2 	2.17123064424048 	0 	0.0936084926263156 	0.0249233619675526 	0.878442853834486 	0.000858292549154743 	0
2 	2.20569893411515 	0 	0.0942495392078583 	0.0238916922637831 	0.860290270759932 	0.000736423803558023 	0
2 	2.23894917046122 	0 	0.0948468348216233 	0.0229191396493233 	0.84544063464465 	0.000628463574451872 	0
2 	2.27102439731725 	0 	0.0954029606617885 	0.022002793959333 	0.833708506319736 	0.000532942053679315 	0
2 	2.30196613761521 	0 	0.0959203569711164 	0.0211394610493 	0.824944014718617 	0.000448517984061258 	0
2 	2.33181444693391 	3.46944695195361e-18 	0.0964013904959822 	0.0203258436164267 	0.819032464866446 	0.000373995014785135 	0
2 	2.3606079653529 	6.93889390390723e-18 	0.096848335184887 	0.0195586761069618 	0.815893904349558 	0.00030832523984403 	0
2 	2.3883839674739 	6.93889390390723e-18 	0.0972633624109058 	0.0188348205773945 	0.815482756238346 	0.000250607375449156 	0
2 	2.41517841067461 	6.93889390390723e-18 	0.0976485381548883 	0.0181513309212673 	0.817787655416194 	0.000200082528084913 	0
2 	2.44102598165722 	6.93889390390723e-18 	0.0980058219682835 	0.0175054925507218 	0.82283161601157 	0.000156128919880904 	0
2 	2.46596014135207 	1.38777878078145e-17 	0.0983370673221978 	0.0168948438148982 	0.830672636981804 	0.000118256569816085 	0
2 	2.49001316823443 	1.73472347597681e-17 	0.0986440233002503 	0.0163171844090909 	0.841404831953761 	8.61026566328991e-05 	0
2 	2.51321620011054 	1.38777878078145e-17 	0.09892833734308 	0.0157705749608756 	0.855160152036025 	5.94280808127686e-05 	0
2 	2.535599274427 	1.38777878078145e-17 	0.0991915587336825 	0.0152533309804114 	0.872110756723098 	3.81155931429423e-05 	0
2 	2.55719136715571 	2.08166817117217e-17 	0.0994351425602804 	0.0147640134831505 	0.892472076738068 	2.21697352244206e-05 	0
2 	2.57802043030465 	3.12250225675825e-17 	0.0996604539417612 	0.0143014178477375 	0.916506601468003 	1.171872098948e-05 	0
2 	2.59811342810315 	3.12250225675825e-17 	0.0998687723472491 	0.013864561851089 	0.944528409989514 	7.01826342476138e-06 	0
2 	2.61749637190832 	2.77555756156289e-17 	0.100061295885067 	0.0134526733068194 	0.976908445964545 	8.45720468137073e-06 	0
2 	2.63619435387806 	2.77555756156289e-17 	0.100239145474907 	0.0130651772998704 	1.01408051054231 	1.65646292041035e-05 	0
2 	2.65423157945406 	2.77555756156289e-17 	0.10040336884949 	0.0127016826401751 	1.05654791217367 	3.20179202488845e-05 	0
2 	2.67163139869691 	2.77555756156289e-17 	0.100554944358425 	0.0123619668400827 	1.10489066781103 	5.56509595305518e-05 	0
2 	2.68841633651388 	2.77555756156289e-17 	0.100694784568055 	0.0120459586549311 	1.15977309908204 	8.84613812887383e-05 	0
2 	2.7046081218185 	3.12250225675825e-17 	0.100823739667331 	0.0117537170305553 	1.22195161720278 	0.0001316155121778 	0
2 	2.72022771565972 	3.46944695195361e-17 	0.10094260070186 	0.0114854052114466 	1.29228245626411 	0.000186449425525474 	0
2 	2.73529533835694 	3.46944695195361e-17 	0.101052102666357 	0.0112412588329304 	1.37172912020146 	0.000254464519305994 	0
2 	2.74983049567625 	3.12250225675825e-17 	0.101152927489843 	0.0110215471168227 	1.46136938930843 	0.000337316333532778 	0
2 	2.76385200408156 	2.77555756156289e-17 	0.101245706947669 	0.0108265268772509 	1.56240193256031 	0.000436796111975492 	0
2 	2.77737801509343 	3.12250225675825e-17 	0.101331025529416 	0.0106563899593302 	1.67615294171972 	0.000554806014294082 	0
2 	2.79042603878708 	3.46944695195361e-17 	0.101409423281504 	0.0105112059543906 	1.8040837846424 	0.00069333093208979 	0
2 	2.80301296646003 	3.46944695195361e-17 	0.10148139862824 	0.0103908634406008 	1.94780148664285 	0.00085441241982723 	0
2 	2.81515509249872 	3.46944695195361e-17 	0.101547411155981 	0.0102950143479171 	2.10907486532667 	0.00104013296102365 	0
2 	2.82686813547237 	3.46944695195361e-17 	0.101607884324499 	0.0102230269976201 	2.2898602857433 	0.00125262108818091 	0
2 	2.83816725848142 	3.81639164714898e-17 	0.101663208050838 	0.0101739535361065 	2.49234213980117 	0.00149408911136154 	0
2 	2.84906708878691 	4.16333634234434e-17 	0.101713741098119 	0.0101465165608228 	2.71899414256232 	0.00176691486054793 	0
2 	2.85958173674616 	4.16333634234434e-17 	0.101759813198803 	0.0101391176184416 	2.97266828174835 	0.00207377675068384 	0
2 	2.86972481407933 	3.81639164714898e-17 	0.101801726852359 	0.0101498671330651 	3.25671878257991 	0.00241784798925235 	0
2 	2.87950945149043 	3.81639164714898e-17 	0.10183975876372 	0.0101766316808975 	3.57516897365935 	0.00280305168918159 	0
2 	2.88894831566566 	4.16333634234434e-17 	0.10187416092855 	0.0102170910298281 	3.9329298987561 	0.0032343750608216 	0
2 	2.89805362567106 	4.16333634234434e-17 	0.101905161404404 	0.0102687946508157 	4.33608157744635 	0.00371823858932445 	0
2 	2.90683716877067 	4.16333634234434e-17 	0.101932964843379 	0.010329205913809 	4.79223187246928 	0.00426291544867537 	0
2 	2.91531031568569 	3.81639164714898e-17 	0.101957753141135 	0.0103957220210677 	5.31097518077556 	0.00487899683556939 	0
2 	2.92348403531448 	3.12250225675825e-17 	0.101979687173526 	0.010465658748158 	5.90448535034577 	0.00557989883789651 	0
2 	2.93136890893229 	2.77555756156289e-17 	0.101998908360392 	0.0105361910139326 	6.58829694831818 	0.00638240194205344 	0
2 	2.93897514388925 	2.77555756156289e-17 	0.102015528831648 	0.0106042432198287 	7.38236031394784 	0.00730722479203282 	0
2 	2.94631258682425 	2.77555756156289e-17 	0.102029613901916 	0.0106663270402776 	8.31250396600904 	0.0083893302527783 	0
2 	2.95339073641193 	2.77555756156289e-17 	0.102041345688869 	0.0107179492482961 	9.41331519951673 	0.00967741257960487 	0
2 	2.96021875565915 	2.77555756156289e-17 	0.102051186050229 	0.0107524689787032 	10.7326487011219 	0.0112151943838818 	0
2 	2.96680548376697 	3.81639164714898e-17 	0.102059255058292 	0.0107598694041263 	12.3333383728974 	0.0130637194548305 	0
2 	2.97315944757337 	4.5102810375397e-17 	0.102065163821981 	0.0107246723838923 	14.2926122078066 	0.0152680958845576 	0
2 	2.97928887259171 	4.16333634234434e-17 	0.102068699197793 	0.0106241256996326 	16.707107869086 	0.0178472976242418 	0
2 	2.98520169365902 	4.16333634234434e-17 	0.102069956094234 	0.0104265209898027 	19.7052260177633 	0.0207964453309435 	0
2 	2.99090556520806 	3.81639164714898e-17 	0.102069169422727 	0.0100887152972439 	23.4677300057495 	0.0240524828139995 	0
2 	2.99640787117633 	3.46944695195361e-17 	0.102066667254837 	0.00955307779139441 	28.2650541628055 	0.0274143652624645 	0
2 	3.00171573456492 	3.46944695195361e-17 	0.102062876934664 	0.00874627695961015 	34.5339688949925 	0.0304093773094803 	0
2 	3.00683602665962 	3.46944695195361e-17 	0.102058281530146 	0.00758630891046256 	43.0672027888942 	0.0321362939345577 	0
2 	3.01177537592612 	3.46944695195361e-17 	0.102053426061382 	0.00600568628192645 	55.5785989088242 	0.0306241566435129 	0
2 	3.01654017659085 	3.46944695195361e-17 	0.102049018102276 	0.00405842860694696 	76.7080860350468 	0.0233258267777218 	0
2 	3.02113659691864 	4.16333634234434e-17 	0.10204562323661 	0.00212651135661492 	122.788850322829 	0.0121148812043506 	0
2 	3.02557058719784 	4.85722573273506e-17 	0.102043166018271 	0.000775012133009844 	270.55331411988 	0.00363994146901743 	0
2 	3.02984788744324 	4.85722573273506e-17 	0.102041172611532 	0.000172966953481843 	1145.19953616984 	0.000518705032972256 	0
