# Probe 0 (0.0005 0.0001 0.0001)
# Probe 1 (0.0005 0.0001 0.0009)
# Probe 2 (0.0005 0.0009 0.0009)
# Probe 3 (0.0005 0.0009 0.0001)
# Probe 4 (0.0005 0.0005 0.0005)
#       Probe             0             1             2             3             4
#        Time
            1     0.0200004     0.0200001          0.02     0.0200001     0.0200001
            2     0.0200009     0.0200016          0.02     0.0200016      0.020001
            3     0.0200025     0.0200116     0.0200004     0.0200116     0.0200024
            4      0.020004     0.0200463     0.0200024     0.0200463     0.0200038
            5     0.0200068     0.0201642     0.0200123     0.0201642     0.0200064
            6     0.0200097      0.020376     0.0200423      0.020376     0.0200091
            7     0.0200126     0.0207225     0.0201178     0.0207225     0.0200119
            8     0.0200156      0.021238     0.0202771      0.021238     0.0200149
            9     0.0200201     0.0220285     0.0206092     0.0220285     0.0200193
           10     0.0200249     0.0230942     0.0211352     0.0230942      0.020024
           11     0.0200305     0.0244524     0.0219263     0.0244524     0.0200296
           12     0.0200365     0.0260535     0.0228825     0.0260535     0.0200357
           13     0.0200427     0.0278118     0.0239478     0.0278118     0.0200424
           14     0.0200492     0.0298251     0.0251133     0.0298251     0.0200496
           15     0.0200565      0.032104     0.0263614      0.032104     0.0200581
           16     0.0200641      0.034635     0.0276619      0.034635     0.0200677
           17      0.020072      0.037415     0.0289853      0.037415     0.0200791
           18     0.0200802     0.0404644     0.0303021     0.0404644     0.0200933
           19      0.020089     0.0437569     0.0315978     0.0437569     0.0201124
           20     0.0200982     0.0473094     0.0328578     0.0473094     0.0201399
           21     0.0201083     0.0510575      0.034034     0.0510575     0.0201837
           22     0.0201192     0.0550628     0.0351438     0.0550628     0.0202584
           23     0.0201308     0.0593863     0.0362114     0.0593863     0.0203911
           24     0.0201434     0.0640984     0.0372335     0.0640984     0.0206306
           25     0.0201574     0.0692432     0.0382429     0.0692432     0.0210565
           26     0.0201731     0.0749599     0.0392914     0.0749599     0.0217906
           27     0.0201903     0.0814204     0.0404085     0.0814204     0.0230045
           28     0.0202088     0.0888969     0.0416154     0.0888969     0.0249119
           29     0.0202293     0.0977681     0.0429288     0.0977681      0.027689
           30     0.0202525      0.108596     0.0443666      0.108596     0.0313907
           31      0.020279      0.122132     0.0459422      0.122132     0.0355783
           32     0.0203099      0.139317     0.0476697      0.139317     0.0403309
           33     0.0203464      0.161194     0.0495711      0.161194     0.0457959
           34     0.0203908      0.188851       0.05167      0.188851     0.0520554
           35     0.0204461      0.223796     0.0539885      0.223796     0.0592501
           36     0.0205191      0.267668     0.0565607      0.267668     0.0675865
           37     0.0206098      0.322778     0.0594184      0.322778     0.0774232
           38     0.0207158      0.392729     0.0625988      0.392729     0.0887172
           39     0.0208558      0.482368      0.066156      0.482368      0.103107
           40     0.0210359      0.597818     0.0701472      0.597818      0.123107
           41     0.0212682      0.747351     0.0746377      0.747351      0.153074
           42      0.021565      0.942056     0.0797125      0.942056      0.199246
           43     0.0219395       1.19653     0.0854762       1.19653       0.26717
           44     0.0224099       1.52963     0.0920591       1.52963      0.354867
           45     0.0230011       1.96497      0.099625       1.96497      0.469476
           46     0.0237457       2.53078      0.108382       2.53078      0.618828
           47     0.0246759       3.25836      0.118595       3.25836      0.812585
           48     0.0258325       4.17839      0.130606       4.17839       1.06211
           49     0.0272719       5.31617      0.144852       5.31617       1.37998
           50     0.0288922       6.68538      0.161903       6.68538       1.77937
           51     0.0306138        8.2796      0.182494        8.2796       2.27287
           52     0.0325087       10.0566      0.207591       10.0566       2.87038
           53     0.0347329       11.9365      0.238495       11.9365       3.57543
           54     0.0375853       13.8307      0.276927       13.8307       4.38194
           55     0.0416376       15.6657      0.325156       15.6657       5.27478
           56     0.0481839       17.4097       0.38615       17.4097       6.23257
           57     0.0596868       19.0729      0.463744       19.0729       7.23232
           58     0.0819695       20.6287      0.562809       20.6287       8.25738
           59       0.12736       22.1338      0.689363       22.1338       9.29545
           60      0.206957       23.6126      0.850432       23.6126       10.3361
           61      0.339505       25.0749       1.05412       25.0749       11.3794
           62      0.547997        26.525       1.30893        26.525       12.4336
           63      0.858047       27.9595       1.62297       27.9595       13.5048
           64       1.29475        29.385       2.00291        29.385       14.5948
           65       1.87693       30.7969       2.45282       30.7969       15.7027
           66       2.60775       32.1932       2.97331       32.1932       16.8274
           67       3.47133       33.5761       3.56103       33.5761       17.9675
           68       4.43428       34.9486       4.20896       34.9486       19.1203
           69       5.45582       36.3103       4.90706       36.3103        20.284
           70       6.49991        37.655       5.64299        37.655       21.4566
           71       7.53788       38.9829       6.40414       38.9829       22.6366
           72       8.54843       40.2952       7.17966       40.2952       23.8216
           73       9.52444       41.5935       7.96001       41.5935       25.0091
           74       10.4673       42.8787        8.7381       42.8787       26.1969
           75       11.3814       44.1517        9.5088       44.1517       27.3828
           76       12.2719       45.4112       10.2693       45.4112       28.5644
           77       13.1427       46.6554       11.0178       46.6554       29.7428
           78       13.9984        47.884       11.7511        47.884       30.9148
           79       14.8413       49.0972       12.4699       49.0972       32.0776
           80       15.6745       50.2957       13.1752       50.2957       33.2289
           81       16.4995       51.4797        13.869       51.4797       34.3669
           82       17.3171       52.6494       14.5513       52.6494       35.4897
           83       18.1272        53.805       15.2222        53.805        36.596
           84       18.9287       54.9461       15.8799       54.9461       37.6846
           85       19.7207       56.0722       16.5287       56.0722       38.7545
           86        20.502       57.1834        17.172       57.1834       39.8049
           87        21.272       58.2784       17.8114       58.2784       40.8355
           88       22.0278       59.3566        18.441       59.3566       41.8456
           89       22.7698       60.4179       19.0625       60.4179       42.8351
           90       23.4982        61.462       19.6794        61.462        43.804
           91       24.2129       62.4889        20.293       62.4889       44.7521
           92       24.9129       63.4982        20.904       63.4982       45.6795
           93       25.5981       64.4898       21.5127       64.4898       46.5864
           94       26.2352       65.4596       22.1228       65.4596       47.4722
           95       26.8628       66.4123       22.7292       66.4123       48.3385
           96       27.4805       67.3477       23.3316       67.3477       49.1857
           97       28.0884       68.2654       23.9295       68.2654       50.0141
           98       28.6857       69.1652       24.5229       69.1652       50.8238
           99       29.2723       70.0467       25.1121       70.0467       51.6152
          100       29.8482       70.9095       25.6969       70.9095       52.3883
          101       30.4129       71.7532       26.2771       71.7532       53.1434
          102       30.9657       72.5774       26.8527       72.5774       53.8806
          103       31.5058       73.3818       27.4235       73.3818       54.5999
          104       32.0326       74.1661       27.9894       74.1661       55.3016
          105       32.5462       74.9303       28.5502       74.9303       55.9858
          106       33.0464       75.6741       29.1059       75.6741       56.6526
          107       33.5335       76.3974       29.6564       76.3974       57.3018
          108       34.0072       77.1002       30.2014       77.1002       57.9338
          109       34.4673       77.7824       30.7407       77.7824       58.5487
          110       34.9139       78.4439       31.2741       78.4439       59.1466
          111       35.3469       79.0849       31.8017       79.0849       59.7276
          112       35.7665       79.7052       32.3232       79.7052       60.2915
          113        36.173        80.305       32.8384        80.305       60.8388
          114       36.5665       80.8844       33.3474       80.8844       61.3697
          115       36.9473       81.4434       33.8502       81.4434       61.8843
          116       37.3155       81.9822       34.3469       81.9822       62.3826
          117       37.6713       82.5009       34.8376       82.5009       62.8647
          118        38.015       82.9997       35.3222       82.9997       63.3313
          119       38.3468       83.4787       35.8008       83.4787       63.7826
          120       38.6672       83.9383       36.2734       83.9383       64.2189
          121       38.9752       84.3782       36.7401       84.3782       64.6413
          122       39.2718       84.7989       37.2009       84.7989       65.0496
          123       39.5574       85.2009       37.6557       85.2009       65.4443
          124       39.8314       85.5848       38.1045       85.5848       65.8243
          125        40.094       85.9504       38.5475       85.9504        66.191
          126        40.347       86.2978       38.9847       86.2978       66.5444
          127       40.5897        86.628       39.4159        86.628        66.884
          128       40.8222       86.9406       39.8413       86.9406       67.2112
          129        41.046        87.236       40.2609        87.236       67.5268
          130       41.2615       87.5145       40.6746       87.5145       67.8309
          131        41.468       87.7769       41.0823       87.7769        68.123
          132       41.6655       88.0229       41.4842       88.0229       68.4041
          133       41.8553        88.253       41.8804        88.253       68.6748
          134       42.0367       88.4678       42.2705       88.4678       68.9341
          135       42.2097       88.6672       42.6546       88.6672       69.1831
          136       42.3756       88.8516       43.0328       88.8516       69.4225
          137       42.5347       89.0212       43.4052       89.0212       69.6522
          138        42.686       89.1769       43.7717       89.1769       69.8717
          139       42.8296       89.3184       44.1325       89.3184       70.0808
          140       42.9667       89.4462       44.4877       89.4462       70.2806
          141       43.0974       89.5605       44.8372       89.5605       70.4714
          142       43.2217       89.6617        45.181       89.6617       70.6534
          143       43.3397       89.7501       45.5192       89.7501       70.8267
          144       43.4514       89.8261       45.8517       89.8261       70.9913
          145       43.5569       89.8899       46.1786       89.8899       71.1473
          146       43.6563       89.9419          46.5       89.9419       71.2948
          147       43.7496       89.9822       46.8158       89.9822       71.4336
          148       43.8368       90.0114        47.126       90.0114       71.5637
          149        43.918       90.0294       47.4307       90.0294       71.6855
          150       43.9932       90.0367       47.7299       90.0367       71.7992
          151       44.0627       90.0335       48.0237       90.0335       71.9047
          152       44.1263         90.02        48.312         90.02       72.0021
          153       44.1844       89.9965       48.5948       89.9965       72.0914
          154       44.2368       89.9633       48.8722       89.9633       72.1729
          155       44.2838       89.9204       49.1442       89.9204       72.2465
          156       44.3254       89.8682       49.4108       89.8682       72.3124
          157       44.3618       89.8069       49.6722       89.8069       72.3707
          158       44.3931       89.7366       49.9282       89.7366       72.4215
          159       44.4194       89.6577        50.179       89.6577       72.4653
          160       44.4407       89.5702       50.4246       89.5702        72.502
          161       44.4573       89.4746       50.6651       89.4746       72.5317
          162       44.4691       89.3709       50.9005       89.3709       72.5547
          163       44.4763       89.2598       51.1308       89.2598       72.5711
          164       44.4789       89.1413       51.3562       89.1413       72.5809
          165        44.477       89.0166       51.5766       89.0166       72.5843
          166       44.4706       88.8859       51.7921       88.8859       72.5814
          167       44.4599       88.7502       52.0026       88.7502       72.5726
          168       44.4448       88.6089       52.2082       88.6089        72.558
          169       44.4255       88.4638        52.409       88.4638       72.5377
          170        44.402       88.3153       52.6049       88.3153        72.512
          171       44.3745       88.1637        52.796       88.1637       72.4811
          172       44.3431       88.0094       52.9823       88.0094       72.4451
          173       44.3078       87.8529       53.1639       87.8529       72.4043
          174       44.2687        87.694       53.3408        87.694       72.3587
          175       44.2261        87.533        53.513        87.533       72.3087
          176         44.18       87.3704       53.6806       87.3704       72.2544
          177       44.1304       87.2063       53.8436       87.2063        72.196
          178       44.0777       87.0409       54.0022       87.0409       72.1336
          179       44.0218       86.8746       54.1563       86.8746       72.0674
          180       43.9629       86.7074       54.3061       86.7074       71.9976
          181       43.9012       86.5394       54.4514       86.5394       71.9244
          182       43.8367       86.3708       54.5926       86.3708       71.8478
          183       43.7695       86.2017       54.7294       86.2017       71.7682
          184       43.6999       86.0323       54.8621       86.0323       71.6855
          185       43.6278       85.8629       54.9906       85.8629          71.6
          186       43.5535       85.6935       55.1151       85.6935       71.5119
          187        43.477       85.5244       55.2355       85.5244       71.4212
          188       43.3985       85.3556       55.3519       85.3556       71.3281
          189        43.318       85.1872       55.4644       85.1872       71.2328
          190       43.2357       85.0194        55.573       85.0194       71.1355
          191       43.1516       84.8522       55.6777       84.8522       71.0361
          192       43.0659       84.6859       55.7787       84.6859        70.935
          193       42.9787       84.5204       55.8759       84.5204       70.8322
          194       42.8901       84.3558       55.9694       84.3558       70.7278
          195       42.8002       84.1923       56.0593       84.1923        70.622
          196        42.709         84.03       56.1456         84.03       70.5148
          197       42.6167       83.8689       56.2285       83.8689       70.4065
          198       42.5234        83.709       56.3079        83.709        70.297
          199       42.4291       83.5506       56.3839       83.5506       70.1866
          200        42.334       83.3936       56.4567       83.3936       70.0752
          201        42.238       83.2381       56.5261       83.2381       69.9631
          202       42.1414       83.0841       56.5924       83.0841       69.8503
          203       42.0442       82.9318       56.6556       82.9318       69.7369
          204       41.9464       82.7812       56.7157       82.7812        69.623
          205       41.8482       82.6323       56.7728       82.6323       69.5087
          206       41.7496       82.4851       56.8269       82.4851       69.3941
          207       41.6507       82.3398       56.8782       82.3398       69.2793
          208       41.5516       82.1964       56.9266       82.1964       69.1643
          209       41.4523       82.0548       56.9724       82.0548       69.0492
          210       41.3529       81.9152       57.0154       81.9152       68.9341
          211       41.2535       81.7775       57.0558       81.7775       68.8191
          212       41.1541       81.6419       57.0937       81.6419       68.7042
          213       41.0549       81.5082        57.129       81.5082       68.5896
          214       40.9558       81.3765        57.162       81.3765       68.4752
          215       40.8569       81.2468       57.1925       81.2468       68.3612
          216       40.7582       81.1191       57.2207       81.1191       68.2476
          217       40.6599       80.9935       57.2467       80.9935       68.1345
          218        40.562         80.87       57.2705         80.87       68.0219
          219       40.4645       80.7485       57.2921       80.7485       67.9099
          220       40.3675       80.6292       57.3117       80.6292       67.7985
          221        40.271       80.5119       57.3293       80.5119       67.6878
          222        40.175       80.3968       57.3449       80.3968       67.5779
          223       40.0797       80.2839       57.3586       80.2839       67.4687
          224        39.985        80.173       57.3705        80.173       67.3603
          225        39.891       80.0643       57.3806       80.0643       67.2527
          226       39.7977       79.9577        57.389       79.9577       67.1461
          227       39.7051       79.8532       57.3957       79.8532       67.0404
          228       39.6134       79.7509       57.4008       79.7509       66.9356
          229       39.5224       79.6506       57.4043       79.6506       66.8319
          230       39.4323       79.5525       57.4063       79.5525       66.7292
          231       39.3431       79.4563       57.4068       79.4563       66.6275
          232       39.2548       79.3622        57.406       79.3622       66.5269
          233       39.1674       79.2702       57.4037       79.2702       66.4275
          234       39.0809       79.1802       57.4002       79.1802       66.3292
          235       38.9955       79.0922       57.3954       79.0922        66.232
          236       38.9109       79.0062       57.3894       79.0062        66.136
          237       38.8275       78.9223       57.3822       78.9223       66.0412
          238        38.745       78.8403       57.3739       78.8403       65.9476
          239       38.6635       78.7603       57.3646       78.7603       65.8553
          240       38.5832       78.6823       57.3542       78.6823       65.7642
          241       38.5039       78.6062       57.3428       78.6062       65.6743
          242       38.4256        78.532       57.3304        78.532       65.5857
          243       38.3485       78.4598       57.3172       78.4598       65.4984
          244       38.2725       78.3894       57.3031       78.3894       65.4123
          245       38.1976       78.3208       57.2882       78.3208       65.3275
          246       38.1238       78.2541       57.2725       78.2541       65.2441
          247       38.0511       78.1891       57.2561       78.1891       65.1619
          248       37.9796        78.126       57.2389        78.126       65.0811
          249       37.9092       78.0645       57.2211       78.0645       65.0016
          250         37.84       78.0048       57.2026       78.0048       64.9234
          251       37.7719       77.9469       57.1836       77.9469       64.8465
          252       37.7049       77.8906       57.1639       77.8906       64.7709
          253       37.6392        77.836       57.1437        77.836       64.6967
          254       37.5745        77.783        57.123        77.783       64.6238
          255       37.5111       77.7316       57.1019       77.7316       64.5523
          256       37.4488       77.6818       57.0802       77.6818        64.482
          257       37.3876       77.6336       57.0582       77.6336       64.4131
          258       37.3277        77.587       57.0358        77.587       64.3455
          259       37.2688       77.5417        57.013       77.5417       64.2792
          260       37.2112       77.4979       56.9898       77.4979       64.2142
          261       37.1546       77.4555       56.9664       77.4555       64.1505
          262       37.0993       77.4145       56.9427       77.4145       64.0881
          263       37.0449       77.3749       56.9187       77.3749       64.0269
          264       36.9914       77.3367       56.8944       77.3367        63.967
          265       36.9389       77.2998         56.87       77.2998       63.9082
          266       36.8873       77.2642       56.8453       77.2642       63.8506
          267       36.8368         77.23       56.8205         77.23       63.7942
          268       36.7874        77.197       56.7955        77.197       63.7391
          269        36.739       77.1652       56.7703       77.1652       63.6851
          270       36.6917       77.1347       56.7451       77.1347       63.6324
          271       36.6456       77.1054       56.7198       77.1054       63.5809
          272       36.6006       77.0773       56.6944       77.0773       63.5305
          273       36.5567       77.0503       56.6689       77.0503       63.4814
          274       36.5139       77.0245       56.6434       77.0245       63.4334
          275       36.4722       76.9997       56.6179       76.9997       63.3865
          276       36.4317        76.976       56.5923        76.976       63.3408
          277       36.3922       76.9533       56.5668       76.9533       63.2963
          278       36.3538       76.9317       56.5413       76.9317       63.2529
          279       36.3165       76.9111       56.5159       76.9111       63.2106
          280       36.2803       76.8914       56.4904       76.8914       63.1695
          281       36.2452       76.8727       56.4651       76.8727       63.1294
          282        36.211       76.8549       56.4398       76.8549       63.0904
          283       36.1779       76.8381       56.4147       76.8381       63.0525
          284       36.1458       76.8221       56.3896       76.8221       63.0156
          285       36.1147        76.807       56.3647        76.807       62.9798
          286       36.0846       76.7928       56.3398       76.7928       62.9451
          287       36.0554       76.7794       56.3152       76.7794       62.9113
          288       36.0272       76.7668       56.2906       76.7668       62.8785
          289       35.9999       76.7549       56.2662       76.7549       62.8467
          290       35.9735       76.7438        56.242       76.7438       62.8159
          291        35.948       76.7335        56.218       76.7335       62.7861
          292       35.9233       76.7239       56.1941       76.7239       62.7571
          293       35.8996        76.715       56.1705        76.715       62.7291
          294       35.8766       76.7068        56.147       76.7068        62.702
          295       35.8544       76.6992       56.1237       76.6992       62.6758
          296       35.8331       76.6923       56.1007       76.6923       62.6504
          297       35.8125       76.6859       56.0779       76.6859       62.6259
          298       35.7927       76.6801       56.0553       76.6801       62.6022
          299       35.7737       76.6749       56.0329       76.6749       62.5794
          300       35.7553       76.6702       56.0108       76.6702       62.5573
          301       35.7377       76.6661       55.9889       76.6661        62.536
          302       35.7208       76.6625       55.9672       76.6625       62.5155
          303       35.7045       76.6595       55.9458       76.6595       62.4957
          304       35.6889       76.6569       55.9247       76.6569       62.4767
          305        35.674       76.6547       55.9038       76.6547       62.4584
          306       35.6597       76.6531       55.8832       76.6531       62.4407
          307       35.6459       76.6519       55.8628       76.6519       62.4238
          308       35.6328       76.6511       55.8427       76.6511       62.4075
          309       35.6203       76.6507       55.8229       76.6507       62.3919
          310       35.6083       76.6507       55.8034       76.6507       62.3769
          311       35.5969       76.6511       55.7841       76.6511       62.3625
          312        35.586       76.6519       55.7651       76.6519       62.3487
          313       35.5756        76.653       55.7464        76.653       62.3355
          314       35.5657       76.6545        55.728       76.6545       62.3228
          315       35.5564       76.6563       55.7098       76.6563       62.3107
          316       35.5475       76.6584        55.692       76.6584       62.2991
          317        35.539       76.6608       55.6744       76.6608       62.2881
          318        35.531       76.6634       55.6572       76.6634       62.2776
          319       35.5235       76.6664       55.6402       76.6664       62.2676
          320       35.5164       76.6696       55.6235       76.6696       62.2581
          321       35.5097        76.673       55.6071        76.673        62.249
          322       35.5034       76.6767       55.5909       76.6767       62.2405
          323       35.4974       76.6807       55.5751       76.6807       62.2323
          324       35.4918       76.6848       55.5595       76.6848       62.2246
          325       35.4865       76.6892       55.5443       76.6892       62.2173
          326       35.4816       76.6937       55.5293       76.6937       62.2103
          327       35.4769       76.6984       55.5146       76.6984       62.2038
          328       35.4726       76.7033       55.5002       76.7033       62.1976
          329       35.4685       76.7084        55.486       76.7084       62.1918
          330       35.4647       76.7135       55.4722       76.7135       62.1863
          331       35.4612       76.7188       55.4586       76.7188       62.1812
          332        35.458       76.7243       55.4453       76.7243       62.1764
          333        35.455       76.7298       55.4323       76.7298        62.172
          334       35.4524       76.7355       55.4196       76.7355       62.1679
          335         35.45       76.7413       55.4071       76.7413       62.1641
          336       35.4478       76.7471       55.3949       76.7471       62.1606
          337       35.4459        76.753       55.3829        76.753       62.1574
          338       35.4442       76.7591       55.3712       76.7591       62.1545
          339       35.4428       76.7651       55.3598       76.7651       62.1519
          340       35.4416       76.7713       55.3487       76.7713       62.1495
          341       35.4406       76.7775       55.3377       76.7775       62.1474
          342       35.4398       76.7838       55.3271       76.7838       62.1455
          343       35.4393       76.7901       55.3167       76.7901       62.1439
          344       35.4389       76.7964       55.3065       76.7964       62.1425
          345       35.4387       76.8028       55.2966       76.8028       62.1413
          346       35.4388       76.8092       55.2869       76.8092       62.1404
          347        35.439       76.8156       55.2774       76.8156       62.1396
          348       35.4394        76.822       55.2682        76.822       62.1391
          349         35.44       76.8285       55.2593       76.8285       62.1388
          350       35.4407       76.8349       55.2505       76.8349       62.1386
          351       35.4417       76.8414        55.242       76.8414       62.1386
          352       35.4427       76.8478       55.2337       76.8478       62.1388
          353       35.4439       76.8543       55.2256       76.8543       62.1392
          354       35.4453       76.8607       55.2177       76.8607       62.1397