# Probe 0 (0.0005 0.0001 0.0001)
# Probe 1 (0.0005 0.0001 0.0009)
# Probe 2 (0.0005 0.0009 0.0009)
# Probe 3 (0.0005 0.0009 0.0001)
# Probe 4 (0.0005 0.0005 0.0005)
#       Probe             0             1             2             3             4
#        Time
            1       10.0063       30.4823       10.2855       30.4823        10.001
            2       10.0234       71.6424        11.842       71.6424       10.0838
            3        10.072       172.988        16.843       172.988       10.2022
            4       10.1135       394.764       32.3571       394.764       10.3445
            5       10.1664       847.331       81.4504       847.331       10.5106
            6       10.2377       1712.76        207.45       1712.76          10.7
            7       10.3248       3217.01       475.297       3217.01        10.914
            8       10.4239       5633.67       985.575       5633.67       11.1545
            9       10.5329       9267.48       1888.71       9267.48       11.4239
           10       10.6514         14450       3395.79         14450       11.7246
           11       10.9189       26007.4       7767.48       26007.4        12.359
           12       11.2279       41466.6         15075       41466.6       13.0862
           13       11.6128       60764.2       25864.3       60764.2       13.9309
           14       12.0707       83845.4       40553.5       83845.4       14.9157
           15       12.5988        110498       59340.5        110498       16.0719
           16       13.1957        140270       82115.5        140270       17.4387
           17       13.8654        172569        108499        172569       19.0738
           18       14.6304        206773        137821        206773       21.0689
           19       15.5033        242054        169252        242054       23.5669
           20       16.4957        277684        201852        277684       26.8199
           21       18.0296        315324        237460        315324       33.2702
           22       19.7128        350845        271287        350845       44.5329
           23       21.4591        384497        302878        384497       66.3753
           24       23.4966        416534        332076        416534        111.57
           25       25.9352        446939        358866        446939       203.459
           26       28.8243        475908        383394        475908       384.211
           27       32.1742        503522        405846        503522       715.895
           28        35.584        529863        426437        529863       1288.41
           29       39.4675        554887        445354        554887       2211.41
           30       43.6549        578571        462785        578571       3568.82
           31       48.7344        600753        478862        600753       5362.08
           32       54.8975        621287        493682        621287       7356.33
           33       62.5967        640225        507376        640225       9595.25
           34       71.8757        657684        520032        657684       12098.9
           35       83.0718        673857        531718        673857       14878.4
           36       96.2495        688983        542501        688983       17940.2
           37       113.287        703149        552411        703149       21296.8
           38       138.343        716676        561524        716676       25333.5
           39       171.225        729495        569868        729495       29678.6
           40       214.872        741836        577493        741836       34358.5
           41       272.398        753846        584459        753846       39373.4
           42       348.251        765615        590828        765615       44635.3
           43       447.553        777187        596665        777187       49996.9
           44       576.819        788527        602043        788527         55435
           45       744.262        799486        607045        799486       60997.9
           46       960.181        809769        611760        809769       66705.1
           47       1237.42        818925        616286        818925       72551.5
           48       1585.72        826384        620720        826384       78487.6
           49       2011.67        831583        625153        831583       84435.2
           50       2554.84        834095        629665        834095       90281.8
           51       3143.06        833539        634322        833539       95871.5
           52       3720.16        829283        639199        829283        101098
           53        4235.7        821258        644434        821258        105827
           54       4751.52        810674        650182        810674        109922
           55       5340.68        799362        656587        799362        113298
           56        6091.6        789687        663770        789687        115964
           57       7201.66        781898        671813        781898        118032
           58       9094.84        776473        680755        776473        119721
           59         12243        772558        690585        772558        121258
           60       16893.1        769632        701125        769632        122868
           61       23273.3        767478        712231        767478        124650
           62       31320.5        765783        723611        765783        126555
           63       40374.3        764260        734869        764260        128523
           64       49139.4        762969        745588        762969        130495
           65       56992.1        761874        755323        761874        132424
           66       63410.3        760834        763698        760834        134285
           67       68161.4        759835        770443        759835        136064
           68       71325.3        758894        775453        758894        137750
           69         73199        758023        778731        758023        139342
           70       74157.5        757546        780427        757546        140842
           71       74483.1        757163        780827        757163        142223
           72       74483.8        756791        780150        756791        143522
           73       74314.1        756411        778608        756411        144743
           74       74080.5        756020        776428        756020        145886
           75       73849.6        755613        773803        755613        146955
           76       73655.2        755246        770908        755246        147953
           77       73535.1        755214        767939        755214        148746
           78       73442.4        755210        764852        755210        149521
           79       73375.3        755156        761785        755156        150266
           80       73334.9        755025        758821        755025        150974
           81       73317.4        754809        756015        754809        151641
           82       73316.4        754500        753377        754500        152264
           83       73324.8        754095        750978        754095        152843
           84       73334.8        753587        748873        753587        153375
           85       73340.6        752970        747019        752970        153863
           86       73337.3        752235        745415        752235        154305
           87       73321.1        751431        743989        751431        154704
           88       73286.2        750542        742732        750542        155059
           89       73231.6        749557        741625        749557        155371
           90       73157.5        748472        740636        748472        155643
           91       73063.8        747288        739752        747288        155875
           92       72949.6        746006        738939        746006        156068
           93       72815.4        744631        738162        744631        156225
           94       72615.6        743193        737328        743193        156357
           95       72395.6        741675        736524        741675        156444
           96       72158.7        740082        735732        740082        156494
           97       71908.9        738422        734930        738422        156510
           98       71649.8        736699        734119        736699        156496
           99       71384.8        734914        733298        734914        156454
          100       71117.2        733078        732461        733078        156386
          101       70849.6        731197        731603        731197        156295
          102       70583.1        729274        730727        729274        156180
          103       70318.8        727312        729834        727312        156045
          104       70057.6        725314        728925        725314        155889
          105         69801        723283        728003        723283        155714
          106         69550        721223        727070        721223        155521
          107       69305.5        719137        726133        719137        155311
          108         69068        717030        725193        717030        155083
          109       68837.5        714906        724250        714906        154840
          110       68613.9        712766        723322        712766        154583
          111       68397.3        710616        722408        710616        154311
          112       68187.5        708458        721502        708458        154025
          113       67984.5        706295        720617        706295        153726
          114       67788.2        704130        719754        704130        153416
          115       67598.4        701965        718906        701965        153095
          116       67414.5        699803        718069        699803        152764
          117       67236.3        697645        717241        697645        152424
          118       67063.3        695495        716420        695495        152075
          119       66895.5        693353        715609        693353        151719
          120       66732.5        691221        714806        691221        151358
          121       66572.6        689099        714013        689099        150995
          122       66416.3        686989        713230        686989        150629
          123       66263.6        684894        712458        684894        150262
          124       66144.1        682770        711724        682770        149936
          125       65995.6        680722        710966        680722        149561
          126       65850.1        678690        710223        678690        149186
          127       65735.9        676630        709521        676630        148857
          128         65594        674646        708800        674646        148482
          129       65454.8        672679        708096        672679        148111
          130       65318.4        670730        707414        670730        147745
          131         65211        668756        706772        668756        147423
          132       65077.7        666858        706116        666858        147063
          133       64946.6        664977        705475        664977        146711
          134       64842.9        663073        704880        663073        146405
          135         64714        661244        704299        661244        146060
          136       64586.9        659432        703741        659432        145721
          137       64461.8        657639        703200        657639        145388
          138       64362.4        655826        702689        655826        145098
          139       64238.8        654085        702160        654085        144772
          140       64116.6        652362        701666        652362        144452
          141       63995.8        650658        701205        650658        144139
          142       63876.5        648975        700756        648975        143830
          143       63758.6        647313        700313        647313        143526
          144       63641.8        645671        699876        645671        143226
          145       63526.1        644051        699442        644051        142930
          146       63411.3        642451        699011        642451        142638
          147       63297.2        640872        698582        640872        142349
          148       63183.8        639314        698157        639314        142062
          149       63070.9        637776        697734        637776        141779
          150       62958.4        636257        697313        636257        141499
          151       62846.3        634759        696895        634759        141221
          152       62734.4        633279        696479        633279        140947
          153       62622.6        631818        696065        631818        140674
          154       62510.9        630375        695654        630375        140403
          155       62399.3        628950        695246        628950        140134
          156       62287.7        627542        694840        627542        139866
          157         62176        626151        694436        626151        139600
          158       62064.2        624777        694034        624777        139336
          159       61952.2        623420        693636        623420        139073
          160       61840.2        622080        693239        622080        138812
          161       61727.9        620759        692845        620759        138553
          162       61615.5        619460        692454        619460        138295
          163       61502.9        618186        692065        618186        138038
          164         61390        616945        691678        616945        137783
          165         61277        615746        691294        615746        137529
          166       61163.8        614604        690912        614604        137277
          167       61050.3        613508        690532        613508        137026
          168       60936.7        612461        690155        612461        136777
          169       60822.8        611457        689781        611457        136530
          170       60708.8        610489        689409        610489        136286
          171       60594.5        609549        689039        609549        136043
          172       60480.2        608645        688672        608645        135802
          173       60365.7        607775        688307        607775        135564
          174       60251.1        606934        687944        606934        135328
          175       60136.4        606120        687585        606120        135094
          176       60021.8        605336        687228        605336        134862
          177       59907.1        604582        686874        604582        134633
          178       59792.4        603856        686524        603856        134406
          179       59677.9        603157        686176        603157        134182
          180       59563.4        602484        685833        602484        133960
          181       59449.2        601835        685494        601835        133741
          182       59335.1        601209        685158        601209        133525
          183       59221.4        600607        684826        600607        133311
          184       59107.9        600027        684498        600027        133099
          185       58994.8        599471        684174        599471        132890
          186       58882.1        598936        683854        598936        132684
          187       58769.8        598422        683537        598422        132481
          188         58658        597930        683225        597930        132281
          189       58546.7        597458        682916        597458        132083
          190       58436.1        597005        682612        597005        131888
          191         58326        596571        682312        596571        131696
          192       58216.5        596156        682016        596156        131507
          193       58107.8        595758        681724        595758        131321
          194       57999.8        595378        681435        595378        131137
          195       57892.5        595015        681151        595015        130957
          196         57786        594669        680871        594669        130780
          197       57680.4        594339        680595        594339        130605
          198       57575.6        594024        680324        594024        130433
          199       57471.8        593724        680058        593724        130264
          200       57368.8        593440        679796        593440        130099
          201       57266.8        593170        679539        593170        129936
          202       57165.8        592913        679287        592913        129775
          203       57065.8        592671        679039        592671        129618
          204       56966.8        592442        678795        592442        129464
          205       56868.8        592226        678556        592226        129313
          206         56772        592022        678320        592022        129164
          207       56676.2        591831        678089        591831        129018
          208       56581.5        591651        677862        591651        128876
          209         56488        591483        677638        591483        128736
          210       56395.6        591327        677419        591327        128598
          211       56304.3        591181        677204        591181        128464
          212       56214.2        591046        676992        591046        128332
          213       56125.3        590920        676784        590920        128204
          214       56037.6        590804        676580        590804        128078
          215       55951.1        590697        676379        590697        127954
          216       55865.8        590599        676182        590599        127834
          217       55781.7        590510        675988        590510        127716
          218       55698.8        590430        675797        590430        127601
          219       55617.2        590359        675610        590359        127488
          220       55536.8        590296        675427        590296        127378
          221       55457.7        590240        675247        590240        127271
          222       55379.8        590193        675071        590193        127166
          223       55303.2        590153        674898        590153        127064
          224       55227.9        590120        674729        590120        126964
          225       55153.9        590095        674564        590095        126867
          226       55081.1        590076        674402        590076        126773
          227       55009.7        590063        674243        590063        126681
          228       54939.5        590057        674087        590057        126591
          229       54870.6        590056        673935        590056        126504
          230       54803.1        590061        673785        590061        126419
          231       54736.8        590071        673639        590071        126336
          232       54671.9        590085        673496        590085        126256
          233       54608.2        590104        673355        590104        126178
          234       54545.9        590128        673217        590128        126103
          235       54484.8        590157        673082        590157        126029
          236         54425        590191        672950        590191        125958
          237       54366.6        590229        672821        590229        125889
          238       54309.4        590272        672694        590272        125822
          239       54253.5        590319        672571        590319        125758
          240       54198.8        590369        672449        590369        125695
          241       54145.4        590424        672331        590424        125634
          242       54093.3        590482        672215        590482        125575
          243       54042.4        590543        672102        590543        125519
          244       53992.8        590608        671991        590608        125464
          245       53944.3        590674        671882        590674        125411
          246       53897.1        590743        671776        590743        125360
          247       53851.1        590815        671673        590815        125311
          248       53806.3        590889        671571        590889        125263
          249       53762.7        590966        671473        590966        125218
          250       53720.2        591046        671376        591046        125174
          251       53678.8        591128        671282        591128        125131
          252       53638.6        591212        671189        591212        125091
          253       53599.5        591299        671100        591299        125052
          254       53561.5        591387        671012        591387        125015
          255       53524.6        591477        670926        591477        124979
          256       53488.8        591569        670843        591569        124945
          257         53454        591662        670761        591662        124912
          258       53420.2        591757        670682        591757        124880
          259       53387.5        591854        670605        591854        124850
          260       53355.7        591952        670529        591952        124822
          261       53324.9        592053        670456        592053        124795
          262       53295.1        592155        670384        592155        124769
          263       53271.5        592260        670316        592260        124747
          264       53248.1        592367        670250        592367        124726
          265       53224.8        592474        670185        592474        124705
          266       53201.8        592581        670121        592581        124686
          267       53179.1        592689        670060        592689        124667
          268       53156.7        592796        669999        592796        124649
          269       53134.8        592904        669941        592904        124632
          270       53113.3        593012        669884        593012        124616
          271       53092.3        593120        669829        593120        124600
          272       53071.9        593227        669775        593227        124586
          273         53052        593335        669723        593335        124572
          274       53032.6        593442        669672        593442        124559
          275       53013.9        593550        669623        593550        124547
          276       52995.7        593660        669575        593660        124536
          277       52978.1        593770        669529        593770        124525
          278       52961.1        593881        669484        593881        124516
          279       52944.8        593992        669441        593992        124507
          280         52929        594103        669399        594103        124498
          281       52913.8        594214        669358        594214        124491
          282       52899.2        594324        669319        594324        124484
          283       52885.2        594434        669281        594434        124478
          284       52871.7        594543        669244        594543        124473
          285       52858.9        594651        669209        594651        124468
          286       52846.6        594759        669175        594759        124464
          287       52834.9        594865        669142        594865        124460
          288       52823.7        594971        669110        594971        124457
          289       52813.1        595075        669079        595075        124455
          290         52803        595179        669050        595179        124453
          291       52793.5        595281        669022        595281        124452
          292       52784.5        595382        668995        595382        124452
          293       52775.9        595482        668969        595482        124452
          294       52767.9        595581        668944        595581        124452
          295       52760.4        595678        668920        595678        124453
          296       52753.4        595775        668897        595775        124454
          297       52746.8        595870        668876        595870        124456
          298       52740.7        595965        668855        595965        124458
          299         52735        596059        668835        596059        124461
          300       52729.8        596152        668816        596152        124464
          301       52724.9        596243        668799        596243        124467
          302       52720.5        596334        668782        596334        124471
          303       52716.6        596423        668766        596423        124475
          304         52713        596510        668751        596510        124480
          305       52709.7        596597        668737        596597        124485
          306       52706.9        596682        668723        596682        124490
          307       52704.4        596765        668711        596765        124495
          308       52702.2        596847        668699        596847        124500
          309       52700.4        596928        668688        596928        124506
          310       52698.9        597007        668678        597007        124512
          311       52697.8        597084        668669        597084        124519
          312       52696.9        597160        668661        597160        124525
          313       52696.3        597235        668653        597235        124532
          314         52696        597308        668646        597308        124538
          315         52696        597379        668639        597379        124545
          316       52696.2        597449        668634        597449        124552
          317       52696.7        597517        668629        597517        124560
          318       52697.4        597584        668624        597584        124567
          319       52698.4        597649        668620        597649        124575
          320       52699.6        597713        668617        597713        124582
          321       52700.9        597775        668615        597775        124590
          322       52702.5        597836        668613        597836        124598
          323       52704.8        597894        668612        597894        124607
          324       52707.3        597950        668611        597950        124616
          325         52710        598006        668611        598006        124624
          326       52712.8        598060        668611        598060        124633
          327       52715.8        598113        668612        598113        124642
          328       52718.9        598164        668614        598164        124651
          329       52722.1        598214        668615        598214        124660
          330       52725.5        598263        668617        598263        124668
          331       52728.9        598310        668620        598310        124677
          332       52732.4        598356        668623        598356        124686
          333         52736        598401        668626        598401        124694
          334       52739.6        598444        668630        598444        124703
          335       52743.4        598486        668634        598486        124711
          336       52747.2        598527        668639        598527        124720
          337       52751.1        598567        668644        598567        124728
          338         52755        598605        668649        598605        124736
          339         52759        598642        668655        598642        124745
          340       52763.1        598678        668660        598678        124753
          341       52767.2        598712        668666        598712        124761
          342       52771.3        598745        668673        598745        124769
          343       52775.5        598778        668679        598778        124777
          344       52779.8        598809        668686        598809        124785
          345         52784        598839        668693        598839        124793
          346       52788.3        598868        668701        598868        124800
          347       52792.7        598896        668708        598896        124808
          348         52797        598923        668716        598923        124816
          349       52801.4        598949        668724        598949        124823
          350       52805.8        598973        668732        598973        124831
          351       52810.2        598997        668740        598997        124838
          352       52814.7        599020        668749        599020        124845
          353       52819.1        599042        668757        599042        124852
          354       52823.5        599064        668766        599064        124859