# Probe 0 (0.0005 0.0001 0.0001)
# Probe 1 (0.0005 0.0001 0.0009)
# Probe 2 (0.0005 0.0009 0.0009)
# Probe 3 (0.0005 0.0009 0.0001)
# Probe 4 (0.0005 0.0005 0.0005)
#       Probe             0             1             2             3             4
#        Time
            1   7.81697e-14   5.92706e-14   1.24804e-13   9.11211e-14   8.39537e-14
            2   3.73581e-14   1.03317e-13  -1.20588e-14    3.8001e-14   4.22295e-14
            3    3.6405e-15  -7.52279e-14    2.5112e-14  -9.99145e-15  -1.97569e-14
            4   1.30418e-14   2.31085e-14   4.22487e-14   3.43573e-14   3.00549e-14
            5   6.15411e-15   5.10946e-14  -1.61008e-14  -2.10909e-15   1.05599e-14
            6   9.81132e-15  -3.70086e-14  -4.36257e-15   2.00761e-14  -2.06718e-15
            7    1.9387e-14    2.0787e-14   3.93472e-14   1.62881e-14   2.32071e-14
            8   3.64312e-15   3.76579e-14   3.38722e-15  -6.94864e-15   8.03972e-15
            9  -2.13863e-15  -4.56455e-14  -1.73877e-14   1.61313e-14  -1.48717e-14
           10  -9.42826e-15  -1.66858e-15  -6.94058e-15  -2.13783e-14  -3.46824e-15
           11  -2.70736e-15    2.4088e-14   5.59471e-15  -1.00017e-14   1.45529e-15
           12   1.09962e-14   3.45056e-16   2.56175e-14   4.49487e-14   1.92876e-14
           13  -7.82077e-16  -2.00513e-14  -2.89104e-14  -2.88116e-14  -1.73336e-14
           14  -3.41174e-15   9.02397e-15   7.20612e-15   -9.0673e-15  -2.21615e-16
           15  -1.43767e-14  -1.03901e-14  -1.74072e-14  -9.04855e-16  -1.54113e-14
           16   1.00747e-14   4.83415e-15   2.02301e-14   1.32084e-14      2.14e-14
           17   4.62509e-16   1.11712e-16  -2.71926e-15  -5.90738e-15  -6.01326e-15
           18   3.94048e-16   5.53579e-15  -1.60428e-15    6.8581e-15  -4.96984e-16
           19   -1.2755e-14  -2.84707e-14  -2.75232e-14  -2.65508e-14  -2.05911e-14
           20   2.68694e-14   5.11342e-14   5.86445e-14   5.35191e-14   5.03716e-14
           21   -1.4077e-14  -3.28827e-14  -3.55388e-14  -3.62288e-14  -3.49941e-14
           22    6.2315e-15   7.36528e-15    2.5524e-15   5.11301e-15   7.94157e-15
           23   9.56127e-15   2.49913e-14   3.14218e-14   2.99409e-14   2.48252e-14
           24  -4.77081e-15  -2.59539e-14  -2.91341e-14  -2.32903e-14  -2.50776e-14
           25   6.22271e-16   9.55928e-15   3.13207e-15  -7.16417e-16   9.11671e-15
           26  -3.40621e-15  -2.73313e-15   3.15457e-15   4.63226e-17   -6.3051e-15
           27  -1.46831e-14  -2.47889e-14  -2.30137e-14  -1.50283e-14  -2.12873e-14
           28   4.98249e-15    2.0738e-14   1.84937e-14   1.40269e-14   2.67639e-14
           29   4.63681e-15   3.84202e-15   9.93719e-15   6.88061e-15   -3.2605e-15
           30    9.5714e-15   6.35466e-15   1.00077e-15    6.3713e-15   6.28711e-15
           31   5.72855e-15   2.28598e-15   3.87121e-15   3.85935e-15   9.01232e-15
           32  -3.81372e-15  -5.02355e-15  -4.79814e-15  -9.23525e-15  -1.19689e-14
           33   6.59517e-15   1.15665e-14   8.81754e-15   1.28723e-14   1.19589e-14
           34   2.17461e-14   2.88897e-14   3.55438e-14   3.70031e-14   3.70519e-14
           35   5.40001e-16  -1.75065e-14  -2.17486e-14  -2.42044e-14  -2.81545e-14
           36  -8.28738e-15  -1.11777e-14  -1.57001e-14  -1.50452e-14  -7.74044e-15
           37   7.16578e-15   2.27305e-14   2.89085e-14   3.04446e-14   2.83558e-14
           38  -9.00396e-15  -2.03444e-14  -2.10952e-14  -2.51565e-14  -2.72983e-14
           39  -6.85769e-16   2.09922e-15   9.07435e-16   5.74271e-15   5.60807e-15
           40  -1.50281e-14  -1.76508e-14  -1.78559e-14  -1.61082e-14   -1.6008e-14
           41  -2.49857e-14  -3.07997e-14  -2.98093e-14  -3.60201e-14  -3.42078e-14
           42  -2.95968e-14  -2.15208e-14   -2.1496e-14  -2.02775e-14  -2.06603e-14
           43  -5.73082e-15    7.6947e-15   1.01659e-14   1.00516e-14   1.23691e-14
           44  -2.52686e-15  -1.78536e-14  -1.86793e-14  -2.19687e-14  -2.34958e-14
           45  -1.88474e-14  -1.92869e-14  -1.97363e-14  -1.36495e-14  -1.72865e-14
           46  -2.53659e-14  -2.61468e-14  -2.73302e-14  -2.52305e-14  -2.49632e-14
           47  -1.64299e-14  -1.37603e-14  -1.63123e-14  -1.84116e-14  -1.80561e-14
           48  -9.95958e-15  -3.15349e-15  -3.81444e-15  -4.97539e-15  -8.78675e-16
           49   -3.8313e-15   4.36922e-15   6.47482e-15   7.55141e-15   6.90216e-15
           50  -1.68793e-14  -4.04902e-14  -4.22671e-14  -4.01088e-14  -4.86672e-14
           51   8.50771e-15   2.43286e-14   3.19842e-14   2.81912e-14   3.73226e-14
           52   4.62419e-15   1.89547e-15   1.64467e-15   3.89719e-15  -3.17178e-15
           53   8.83543e-15   6.98612e-15   5.86959e-15    6.7542e-15  -8.11678e-16
           54   9.20587e-15   1.47404e-14    1.3647e-14   6.66099e-15    2.1741e-14
           55  -1.19347e-14   -2.6615e-14  -2.84039e-14  -3.07576e-14  -2.91931e-14
           56  -8.94196e-15  -1.23855e-14  -1.29264e-14   4.29577e-15  -1.17732e-14
           57  -5.10481e-15   3.69668e-15   1.79983e-15   2.75276e-15   5.29934e-15
           58  -2.40899e-14  -3.71888e-14  -1.75874e-14  -2.95678e-14   -2.4259e-14
           59  -1.88168e-14  -1.52222e-14  -1.68227e-14  -1.70824e-14  -1.46562e-14
           60  -1.48292e-14  -1.88137e-14  -3.47612e-14  -1.51792e-14  -2.12769e-14
           61  -2.91703e-15   4.25839e-15   1.99672e-14   8.69981e-15   7.83674e-15
           62    2.2389e-15     1.586e-14   1.59205e-14  -3.30822e-16   1.07036e-14
           63   5.53308e-15   1.35113e-14   5.47674e-16   2.81772e-15   4.09863e-15
           64   3.54663e-14   3.38506e-14   3.96322e-14   5.22832e-14   4.42693e-14
           65   3.99725e-14   2.94475e-14   3.08311e-14   3.88378e-14   3.22484e-14
           66    2.8578e-14   1.61705e-14   1.71925e-14   9.24433e-15    1.5062e-14
           67   3.49567e-14   4.43971e-14   4.94365e-14   4.40826e-14   4.66658e-14
           68   4.70105e-14   5.14519e-14   5.88694e-14   6.07108e-14   5.51085e-14
           69   6.62457e-14   6.75403e-14   5.25685e-14   6.86176e-14   6.56352e-14
           70   2.77511e-14  -1.68808e-15  -1.09448e-14  -1.72065e-14  -4.29841e-15
           71   4.89612e-14   7.03121e-14   9.82731e-14   9.29686e-14   8.44537e-14
           72   3.90483e-14   4.28751e-14   4.66409e-14   4.79424e-14   3.87501e-14
           73   5.72114e-14   5.18697e-14   1.42159e-14    1.8628e-14   3.53117e-14
           74   7.30322e-14   6.81738e-14   7.51711e-14   6.72122e-14   7.19053e-14
           75   2.54312e-14   2.31554e-15   3.07404e-14   2.83515e-14    2.2235e-14
           76  -5.36435e-15  -3.03587e-14  -3.60698e-14  -1.48194e-14  -3.63655e-14
           77  -4.61601e-14  -5.31176e-14  -6.19632e-14  -4.87974e-14  -5.43554e-14
           78  -8.69925e-14  -5.87521e-14  -8.10431e-14  -1.07932e-13  -7.64945e-14
           79  -7.34393e-14  -5.13776e-14  -3.73779e-14  -5.07118e-14  -5.03795e-14
           80  -6.08855e-14  -5.42582e-14  -4.01909e-14  -4.20543e-14  -4.79688e-14
           81  -6.42736e-14  -9.12373e-14  -1.03967e-13  -7.07599e-14  -7.91514e-14
           82  -3.70998e-14  -2.09469e-14  -2.36798e-14  -9.89108e-15  -2.40227e-14
           83   1.57627e-14   5.70128e-14   7.59903e-14   3.78204e-14   5.49679e-14
           84   5.93378e-16  -3.09379e-14  -2.78671e-14  -5.84014e-14  -3.03538e-14
           85  -2.16339e-14   -2.8569e-14  -3.33617e-14  -1.52959e-15   -2.6214e-14
           86  -6.62381e-15  -1.27317e-14  -1.62518e-14   2.11037e-14  -8.01056e-15
           87   3.93662e-14   7.30212e-14   5.71786e-14   5.57231e-14   6.43548e-14
           88   9.69551e-14   1.13005e-13   1.20854e-13   1.11006e-13   1.12282e-13
           89   1.27253e-13   1.30225e-13   1.58874e-13   1.31325e-13   1.37257e-13
           90   1.87892e-13   1.66812e-13    1.7624e-13    1.8324e-13   1.80971e-13
           91   2.74391e-13   2.74979e-13   2.62162e-13     2.746e-13   2.86692e-13
           92   2.03916e-13   1.78392e-13   1.47109e-13   1.36575e-13   1.43202e-13
           93   1.04625e-13   2.67653e-14   3.80439e-14   5.89612e-14   3.69047e-14
           94   5.42928e-14   5.63791e-14   8.73013e-14   7.11597e-14   8.06214e-14
           95  -6.77998e-14  -8.30077e-14   -9.5664e-14   -1.0281e-13  -1.00349e-13
           96  -1.24311e-13  -1.08364e-13  -1.37474e-13  -1.36328e-13  -1.38672e-13
           97  -1.94759e-13  -2.10821e-13  -1.84185e-13  -1.82516e-13  -1.79502e-13
           98  -2.24792e-13  -2.19245e-13  -2.13509e-13  -2.03724e-13   -2.1405e-13
           99  -1.81782e-13  -1.61338e-13  -1.61579e-13   -1.4408e-13  -1.60775e-13
          100  -1.76352e-13  -1.11418e-13  -1.40554e-13  -1.56281e-13   -1.4327e-13
          101  -1.98726e-13  -2.83554e-13  -2.36034e-13  -2.49259e-13  -2.37202e-13
          102  -1.39966e-13  -9.00553e-14  -1.12731e-13  -1.21248e-13  -1.12638e-13
          103   -8.1836e-14  -4.95641e-14  -5.31645e-14  -2.75172e-14   -5.5905e-14
          104  -4.98601e-14   -5.7952e-14  -4.54685e-14  -1.92432e-14   -3.8825e-14
          105  -7.16492e-14  -1.00888e-13  -9.86212e-14  -1.02976e-13  -9.28129e-14
          106  -6.14632e-14   -1.7705e-14  -2.34805e-14  -6.53392e-14  -4.23619e-14
          107  -6.40579e-14  -9.68626e-14  -7.29416e-14  -6.45934e-14  -7.68851e-14
          108  -1.73006e-13  -2.19777e-13  -2.48318e-13   -2.0804e-13  -2.20206e-13
          109   -2.3344e-13  -2.49059e-13  -2.61168e-13  -2.62658e-13  -2.50684e-13
          110  -1.45771e-13  -9.35623e-14  -4.39248e-14  -5.85664e-14  -7.36243e-14
          111  -9.72641e-14  -1.18072e-14  -2.01087e-14  -3.79816e-14  -3.35536e-14
          112   -5.0722e-14  -5.89056e-14  -1.10572e-13  -1.08915e-13   -8.4497e-14
          113  -1.52063e-15   1.43697e-15   1.47806e-14  -4.16495e-15   1.51265e-14
          114   9.20334e-14   1.11138e-13   1.37983e-13   1.69937e-13   1.30112e-13
          115   8.19316e-14   4.61171e-14   3.36917e-14   5.39247e-14   5.32623e-14
          116   2.94571e-14  -3.17082e-14  -3.85152e-14  -4.62888e-14  -1.92781e-14
          117   1.76952e-14   7.79812e-14    7.3212e-14   4.05612e-14   4.38123e-14
          118   1.71896e-14   4.01057e-14   1.78384e-14   2.86147e-14   2.81272e-14
          119   -9.1682e-14  -2.14479e-13  -1.56042e-13   -1.1733e-13  -1.51563e-13
          120  -1.10738e-13  -1.18905e-13  -1.08885e-13  -1.05488e-13  -1.09169e-13
          121    -9.623e-14  -1.31634e-14  -3.73834e-14  -7.02265e-14   -5.4291e-14
          122  -1.88789e-13  -2.40248e-13  -2.53445e-13  -2.42502e-13  -2.48947e-13
          123   -1.6979e-13  -1.98923e-13  -1.59759e-13  -1.45657e-13  -1.53495e-13
          124  -2.95777e-14   1.63039e-13   1.11074e-13   5.88417e-14   9.03693e-14
          125  -1.00766e-13  -2.14502e-13  -1.98104e-13  -1.95892e-13  -1.87087e-13
          126  -2.64735e-14  -5.88947e-14  -5.14647e-14   3.58547e-14  -3.36397e-14
          127  -1.92069e-13  -2.23609e-13  -2.11659e-13  -2.32806e-13  -2.23154e-13
          128  -2.19226e-13  -1.98372e-13  -2.52222e-13  -2.79714e-13  -2.47449e-13
          129  -2.21817e-13  -1.98344e-13  -1.31893e-13   -1.6154e-13  -1.50803e-13
          130    -1.897e-13  -1.42089e-13  -9.40754e-14   -7.8819e-14  -1.19646e-13
          131  -5.31957e-14   1.93874e-14  -9.62986e-14  -6.86894e-14  -4.45858e-14
          132   1.29832e-14  -2.56968e-14  -2.46112e-14  -1.66951e-14  -1.29036e-14
          133   3.65693e-14  -3.39097e-14   4.28824e-14   5.90428e-14   1.26962e-14
          134   3.12758e-14    1.0286e-13   1.11327e-13   5.20192e-14   8.60035e-14
          135   3.59518e-14     2.616e-14   3.23469e-14   3.66391e-14   3.25133e-14
          136    6.1173e-14   5.68826e-14   4.96071e-14   8.30694e-14   6.41122e-14
          137   1.55627e-14  -7.83427e-14  -7.89769e-14  -8.50009e-15  -2.67031e-14
          138  -6.36152e-15   6.47716e-14    3.5716e-14  -2.44076e-14   1.20526e-15
          139  -5.61564e-14  -1.14498e-13  -9.06439e-14  -1.20688e-13  -1.07399e-13
          140  -3.08877e-14   -3.0085e-14    9.9132e-15   2.90366e-14  -8.11305e-16
          141   -3.0608e-14  -5.50842e-14  -6.33492e-14  -4.65437e-14  -3.48398e-14
          142  -8.48017e-15   6.83582e-14   1.28748e-14  -9.43165e-15   2.20498e-14
          143   1.55317e-14   5.25074e-14   8.75747e-14   7.44322e-14   5.58282e-14
          144     1.431e-13   1.74291e-13   2.00385e-13   2.05871e-13   1.90148e-13
          145   1.52197e-13   1.15596e-13   8.22593e-14   1.15437e-13   1.31414e-13
          146   2.64229e-13   2.96408e-13   2.72638e-13    2.7357e-13   2.89369e-13
          147   2.80264e-13    2.6258e-13   2.84618e-13   2.44236e-13   2.39612e-13
          148   2.38133e-13   1.57764e-13   1.73553e-13   1.89882e-13   1.65103e-13
          149    1.0976e-13   5.94514e-14   6.43228e-14   7.46788e-14   7.49299e-14
          150   6.92662e-14   7.16545e-14   6.00042e-14   8.09954e-14   7.10087e-14
          151  -3.13154e-15   5.79743e-15  -2.08685e-14  -4.40846e-14  -2.51621e-14
          152   -3.3975e-14  -1.86445e-14   4.06056e-15  -3.08204e-15  -5.66121e-15
          153  -3.14089e-14  -4.50152e-14   1.35757e-15  -1.50857e-15  -2.18015e-14
          154  -4.22928e-14  -3.72952e-14  -5.85825e-14  -4.30844e-14  -4.07652e-14
          155  -4.72834e-14  -2.20934e-14  -8.42568e-14  -7.00168e-14  -5.56458e-14
          156  -6.02291e-14  -1.55172e-13  -8.57065e-14  -9.01653e-14  -9.97989e-14
          157  -5.61239e-14  -6.08033e-14   -7.5615e-15  -3.24157e-15  -3.07241e-14
          158  -8.03243e-14  -1.05877e-14  -7.06713e-14   -3.6864e-14  -7.49035e-14
          159  -1.20609e-13  -2.08834e-13  -2.22764e-13  -2.17194e-13  -1.73085e-13
          160  -1.23284e-13  -8.96976e-14   -4.3448e-14  -7.40112e-14  -7.46977e-14
          161   2.51547e-14   1.76103e-13   1.44436e-13   1.25321e-13   1.21933e-13
          162   1.18187e-13   8.36211e-14   8.86711e-14   9.11185e-14   1.07396e-13
          163   2.49523e-13   2.47859e-13   2.63718e-13   2.81842e-13   2.57784e-13
          164   4.72485e-13   5.36484e-13   5.37001e-13   5.73852e-13   5.59584e-13
          165   4.66169e-13   4.08608e-13   3.64696e-13    3.1889e-13   3.76327e-13
          166   1.68572e-13   2.29629e-14   1.06522e-14  -9.41301e-15   7.95049e-15
          167  -4.47452e-14  -1.62816e-13  -9.70844e-14  -7.77775e-14  -1.09366e-13
          168  -2.02234e-13  -1.69382e-13  -1.62496e-13  -1.45242e-13  -1.69872e-13
          169  -1.67641e-13  -8.33622e-14  -1.03297e-13  -1.05867e-13  -1.00384e-13
          170  -6.17743e-14  -8.52445e-15  -2.53853e-14  -2.10876e-14  -1.87349e-14
          171    4.2694e-14   8.86017e-14   8.01762e-14   8.32155e-14   8.15827e-14
          172   8.89237e-14   7.60106e-14   9.97909e-14   1.05481e-13   1.00295e-13
          173   2.13454e-13   2.43552e-13   2.37311e-13   2.22046e-13   2.35175e-13
          174   2.61591e-13   2.10846e-13   2.21186e-13   2.22864e-13   2.33097e-13
          175   2.14992e-13    1.8626e-13   1.89602e-13   1.80658e-13     1.806e-13
          176   3.00122e-13   3.07305e-13   3.22844e-13   3.23272e-13   3.10187e-13
          177   2.60213e-13   2.52543e-13   2.56874e-13   2.57805e-13   2.50511e-13
          178    2.5454e-13   2.50187e-13   2.13252e-13    2.3566e-13   2.31652e-13
          179   2.20117e-13   2.08691e-13   2.14926e-13   2.01678e-13   2.06874e-13
          180   2.69384e-13   2.79893e-13   3.09207e-13   2.65462e-13   2.95278e-13
          181   3.57337e-13   4.14479e-13   4.18146e-13   4.56797e-13   4.17771e-13
          182   3.66129e-13   3.26691e-13   2.98514e-13   3.34938e-13   3.14364e-13
          183   1.94511e-13   4.24759e-14     5.583e-14   8.71457e-14   9.27497e-14
          184   1.07244e-13   7.18144e-14   1.17824e-13   5.90578e-14   1.03355e-13
          185   9.06342e-14    1.5828e-13   1.65558e-13   1.63103e-13   1.17314e-13
          186   4.22027e-14   9.65797e-14   4.61514e-14   1.05667e-13   6.85054e-14
          187    9.2847e-14   3.39912e-14   4.45701e-14   3.56416e-15    8.1218e-14
          188  -1.31392e-15  -1.67861e-14  -5.13401e-14    -4.228e-14  -5.17744e-14
          189   1.03566e-13   1.38076e-13   1.72732e-13   1.73254e-13   1.35158e-13
          190   1.34519e-13   1.75766e-13   1.82381e-13   1.69556e-13    1.8774e-13
          191   1.16309e-13   8.27253e-14   8.31245e-14   1.15605e-13   7.97151e-14
          192   1.88922e-13   2.08913e-13   2.09064e-13   2.19234e-13   2.18229e-13
          193   1.67711e-13   1.68839e-13   1.40986e-13   1.40229e-13   1.50632e-13
          194   1.81209e-13   1.40088e-13   1.51068e-13   1.69415e-13   1.61425e-13
          195   2.13728e-13   1.93062e-13   2.75056e-13   2.51853e-13   2.29626e-13
          196   1.39766e-13   1.41523e-13    1.0704e-13   4.82559e-14   1.10993e-13
          197   3.05778e-14  -2.46143e-15  -5.13008e-14  -4.11842e-14  -2.92343e-14
          198  -3.93147e-14  -7.81255e-14  -2.81799e-14   3.10744e-14  -2.16661e-14
          199   2.53167e-14   1.37752e-13    1.3764e-13   1.54948e-13   1.19535e-13
          200   1.37086e-13   2.30551e-13   1.55926e-13   1.20537e-13   1.65407e-13
          201   1.69313e-13   8.04979e-14   1.48315e-13   1.27353e-13   1.32954e-13
          202   2.99505e-13   2.55009e-13   2.94381e-13    3.4417e-13   3.04625e-13
          203   4.41198e-13   5.26443e-13   4.44691e-13   4.76342e-13   4.73439e-13
          204   4.37593e-13   4.41598e-13   4.44352e-13   3.55625e-13   3.99432e-13
          205   3.10753e-13    1.6843e-13   2.23505e-13     1.987e-13    2.0906e-13
          206   9.64631e-14   1.81707e-14   2.74983e-14    8.7807e-14   4.38726e-14
          207   1.62208e-15   1.74285e-14  -8.25432e-15    3.2459e-14    6.1607e-15
          208  -2.06154e-13  -2.53779e-13   -3.2362e-13  -3.40772e-13  -2.90259e-13
          209  -2.91752e-13   -3.1065e-13  -3.35767e-13   -3.3666e-13  -3.20886e-13
          210  -2.43452e-13   -1.8466e-13   6.14714e-15  -4.95784e-14  -9.53586e-14
          211  -9.46595e-14  -4.70579e-15  -3.56712e-14   -1.9991e-14  -1.44679e-14
          212    2.3374e-14   4.52439e-14  -5.66084e-14   4.87826e-15   1.79834e-15
          213   2.27106e-13   2.77949e-13   2.66736e-13   2.64671e-13   2.83744e-13
          214   2.19203e-13   2.01452e-13   2.84856e-13   2.30134e-13   2.33563e-13
          215   1.10417e-13  -3.97098e-14   5.86437e-15   4.97769e-15  -3.27447e-14
          216  -3.77272e-14  -3.27138e-14  -1.80904e-13  -1.79615e-13  -1.18099e-13
          217  -1.52833e-13  -1.93395e-13  -1.65843e-13  -1.15552e-13  -1.47244e-13
          218  -2.22524e-13  -2.35307e-13  -1.43309e-13  -1.26149e-13  -1.89432e-13
          219  -2.56058e-13  -1.75753e-13  -1.99122e-13  -2.46681e-13  -2.10157e-13
          220  -2.08375e-13  -2.00133e-13  -2.16501e-13  -2.39876e-13  -2.14813e-13
          221  -2.37477e-13  -2.65343e-13   -2.6843e-13  -2.32862e-13  -2.44184e-13
          222  -2.79169e-13  -2.69911e-13  -3.24722e-13  -3.18428e-13  -2.76743e-13
          223  -1.96355e-13  -1.31422e-13  -3.87436e-14  -3.10863e-14  -1.07893e-13
          224  -2.04664e-14   2.43031e-14   4.72497e-14   1.49034e-14   2.51941e-14
          225  -3.75933e-14   -1.1557e-13  -2.16045e-13  -1.59404e-13  -1.28432e-13
          226   1.79154e-13   2.85685e-13   3.22568e-13    2.9687e-13   2.78203e-13
          227   2.81836e-13   3.28585e-13   3.63435e-13   3.09192e-13   3.27979e-13
          228   2.63416e-13   1.83832e-13   1.43862e-13   1.41102e-13   1.70996e-13
          229   2.19156e-13   1.64324e-13   1.96027e-13   2.45464e-13   1.86051e-13
          230   2.30876e-13   2.16244e-13   2.29771e-13   2.70203e-13   2.49564e-13
          231   1.49504e-13   1.18489e-13   5.28965e-14  -3.50938e-16   6.90685e-14
          232   2.17176e-13   2.58206e-13    3.0955e-13   2.82605e-13   2.58985e-13
          233   2.06981e-13   2.26829e-13   2.91817e-13   3.17923e-13   2.75344e-13
          234   1.41269e-13   8.76513e-14  -6.64111e-15   3.69467e-14   5.80599e-14
          235   7.36715e-14  -4.60192e-16    -5.782e-14   -5.8614e-14  -3.40507e-14
          236   -6.6121e-14  -2.54596e-14   2.02744e-14  -2.45258e-14  -1.60337e-14
          237  -8.27507e-14  -4.73022e-14    3.0254e-14   7.81516e-15  -2.03304e-14
          238  -1.68282e-14   1.75326e-16   -3.9322e-14  -4.02127e-15  -2.58432e-14
          239   2.72224e-15  -3.10015e-15  -7.14316e-14  -1.88887e-14  -1.80575e-15
          240   5.56156e-14   5.72728e-14   1.17382e-13   1.31992e-13   9.98827e-14
          241   1.30324e-13   1.66907e-13   2.17406e-13   1.55381e-13    1.5394e-13
          242   7.35601e-14   4.21151e-14   1.73165e-14  -3.63122e-14   3.24694e-14
          243  -9.89206e-15  -1.27231e-13  -1.31002e-13  -3.01763e-14  -9.66616e-14
          244  -1.11361e-13  -1.30938e-13  -1.21691e-13  -6.74885e-14  -9.72539e-14
          245  -1.76852e-13  -1.08584e-13  -1.24728e-13  -2.17341e-13  -1.57689e-13
          246  -1.71564e-13  -1.75648e-13  -1.63611e-13   -2.1894e-13  -1.81115e-13
          247  -1.15222e-13  -1.05362e-13  -1.01599e-13  -3.26151e-15  -7.14854e-14
          248  -3.09126e-14   1.07527e-14  -1.59493e-14  -7.30315e-15  -1.08568e-14
          249  -4.27705e-14  -4.20286e-14  -7.08271e-14  -1.06834e-13  -7.17903e-14
          250   4.20124e-14   3.64637e-14   1.43293e-13   1.54618e-13   9.95447e-14
          251   6.08878e-14    4.2477e-14  -1.86846e-14  -3.09318e-14   5.78781e-15
          252  -3.15026e-14  -3.07662e-14  -1.13048e-13  -1.41557e-13  -7.91574e-14
          253   6.00006e-14   3.78932e-14   2.00375e-13   2.28817e-13   1.34151e-13
          254   1.06232e-14   2.15487e-14  -5.06935e-15   1.88769e-15   1.39764e-14
          255  -7.33491e-14  -4.40756e-14   -1.5854e-13  -1.65502e-13  -1.22648e-13
          256  -5.93351e-14    -8.943e-14  -2.67395e-14  -3.05328e-14  -5.07723e-14
          257  -1.21826e-13  -1.87455e-13  -1.49822e-13  -1.56553e-13   -1.5764e-13
          258  -9.48159e-14  -5.29929e-14   -8.4996e-14  -8.94482e-14  -6.21067e-14
          259   6.74848e-14   1.84871e-13   1.98783e-13   2.07505e-13   1.67461e-13
          260    7.0341e-14   2.00884e-14    2.7599e-14   4.68987e-14   3.82916e-14
          261    1.1025e-13   4.03185e-14   5.51199e-14   5.81765e-14   8.00757e-14
          262   1.66713e-13    1.9951e-13   1.58757e-13   1.45998e-13   1.51766e-13
          263      7.88e-14   8.10802e-14   7.12244e-14   8.35518e-14   7.23344e-14
          264  -2.35168e-14  -9.83745e-14  -4.41044e-14  -5.24076e-14  -6.27912e-14
          265  -1.69487e-13  -2.28364e-13  -1.95843e-13  -2.14375e-13   -2.0794e-13
          266  -2.12525e-13  -1.69779e-13  -2.27683e-13  -1.98081e-13  -2.19085e-13
          267  -3.55928e-13  -3.82837e-13  -3.99175e-13  -3.86735e-13  -3.70069e-13
          268   -3.4576e-13  -3.13743e-13  -2.57317e-13  -2.99665e-13  -2.82469e-13
          269  -2.00567e-13  -6.97167e-14  -1.14468e-13  -5.55903e-14  -1.17127e-13
          270  -1.49354e-14   6.44074e-14   4.18586e-14   1.35403e-14   6.02105e-14
          271   2.10004e-14  -4.45153e-14   3.33144e-15   -2.0949e-16   3.68325e-16
          272   1.55846e-13   1.39127e-13   1.66349e-13   1.98218e-13   1.61618e-13
          273   1.44153e-13    1.6411e-13   1.08425e-13   1.19746e-13   1.26858e-13
          274   9.12637e-14   2.06143e-14   1.43663e-14    7.8591e-15   1.68006e-14
          275   4.68502e-14   3.03939e-14   5.19985e-14  -4.18714e-15   2.78732e-14
          276   -1.4809e-14  -2.90747e-14  -2.39245e-16  -2.42733e-15  -1.84259e-14
          277  -1.23586e-13   -1.9211e-13  -2.14733e-13  -1.11666e-13  -1.74967e-13
          278   -2.1786e-13  -2.50411e-13  -2.56632e-13  -2.56132e-13  -2.45461e-13
          279  -3.19452e-13  -2.61315e-13  -2.89245e-13  -3.74395e-13  -3.18673e-13
          280  -3.70756e-13  -3.90787e-13  -3.71001e-13  -3.68764e-13    -3.843e-13
          281  -3.11846e-13  -2.79507e-13  -2.34335e-13  -1.58161e-13  -2.21886e-13
          282  -1.95507e-13  -1.17263e-13  -1.25137e-13  -1.43233e-13  -1.17067e-13
          283  -3.67069e-14   4.91322e-14   2.88696e-14  -1.88958e-14   1.89376e-14
          284   1.34069e-13   2.31774e-13   2.29229e-13   1.90136e-13   1.95338e-13
          285   2.08169e-13   1.51688e-13   1.75121e-13   2.22373e-13   1.73538e-13
          286   1.53845e-13  -2.35872e-14     -2.25e-14   4.34082e-14   3.55491e-14
          287   3.90922e-14   6.28151e-14   9.93429e-15  -2.83603e-14  -1.13618e-15
          288   7.89212e-15   6.16405e-14   8.70061e-14   5.93572e-14   5.46827e-14
          289    -9.365e-14  -1.72327e-13  -1.24026e-13  -1.21885e-13  -1.30857e-13
          290  -1.74392e-13  -2.38277e-13  -2.29458e-13  -1.97337e-13  -2.08604e-13
          291  -1.99561e-13  -1.50997e-13  -2.22621e-13  -2.10753e-13  -1.97446e-13
          292  -2.17971e-13  -2.29409e-13  -1.78826e-13  -1.73794e-13  -2.09755e-13
          293  -2.46271e-13  -2.55249e-13  -2.22821e-13  -2.26738e-13  -2.36752e-13
          294  -1.20684e-13  -6.00672e-14  -1.00146e-13  -1.19133e-13  -8.35858e-14
          295   1.30509e-14    1.6006e-13   1.32887e-13   1.45489e-13    1.2353e-13
          296   1.26464e-13   1.12575e-13   1.44905e-13   1.46432e-13   1.42627e-13
          297   5.02007e-14  -8.22689e-14  -8.52238e-14  -9.02356e-14    -5.159e-14
          298  -3.08422e-15  -3.13133e-14  -5.38191e-14  -6.02188e-14  -4.70282e-14
          299  -4.11812e-14  -2.75782e-14    2.4947e-14   2.07539e-14  -1.48819e-14
          300  -9.74934e-14  -9.10266e-14  -8.65799e-14  -8.59093e-14  -1.00597e-13
          301  -2.02264e-13  -2.14112e-13  -2.75183e-13   -2.4441e-13  -2.55631e-13
          302  -1.85359e-13   -1.5661e-13  -1.35192e-13  -1.52012e-13  -1.32016e-13
          303  -1.75521e-13  -1.90156e-13  -1.63766e-13  -1.61539e-13  -1.67393e-13
          304  -1.56225e-13  -1.87333e-13  -1.57846e-13  -1.76719e-13  -1.69061e-13
          305  -9.06475e-14  -5.78326e-14  -7.63408e-14  -5.90761e-14  -6.31322e-14
          306  -1.42097e-13  -1.71379e-13  -1.88576e-13  -1.73384e-13  -1.71172e-13
          307   1.91156e-14   1.07536e-13   1.36734e-13   1.46829e-13    1.1673e-13
          308   1.24293e-13   1.43682e-13   1.53787e-13   1.66545e-13   1.53491e-13
          309   1.51604e-13   1.24807e-13   1.04111e-13   1.01348e-13   1.17674e-13
          310   1.74799e-13   2.00501e-13   1.65047e-13   1.19369e-13   1.59854e-13
          311   2.33175e-13   2.07753e-13   2.56929e-13   2.73754e-13   2.41218e-13
          312   1.64804e-13   1.12247e-13   1.42352e-13   1.32509e-13   1.37892e-13
          313    1.4253e-13   1.57273e-13   8.95829e-14   1.35316e-13   1.20919e-13
          314   1.54426e-13   1.69919e-13   1.47617e-13   1.69019e-13   1.50607e-13
          315   9.92443e-14  -8.91902e-15   1.07649e-13   1.01106e-13   7.66547e-14
          316   1.20813e-13   1.91498e-13   1.58171e-13   1.15545e-13   1.52085e-13
          317  -3.31239e-15   2.05447e-14  -1.01508e-13  -6.76015e-14  -6.97486e-14
          318  -9.84292e-14  -2.53099e-13  -1.93271e-13  -2.06621e-13  -1.78451e-13
          319  -7.23033e-14  -1.72859e-14   7.73673e-14   8.30534e-14   3.89112e-14
          320  -1.39707e-13  -8.97317e-14  -1.16456e-13  -1.32744e-13  -1.37857e-13
          321  -1.30071e-13  -1.00971e-13  -1.18972e-13  -1.04902e-13  -1.11816e-13
          322  -1.65465e-13  -2.26516e-13  -2.40246e-13  -1.99758e-13  -2.06209e-13
          323  -1.70005e-13   -1.6987e-13  -1.64937e-13   -1.5889e-13  -1.65702e-13
          324  -1.60728e-13  -1.51448e-13   -1.5045e-13   -1.5317e-13  -1.55776e-13
          325  -9.12127e-14  -5.36492e-14  -7.37144e-14  -1.14939e-13  -6.71284e-14
          326  -1.37527e-13  -1.93748e-13  -1.19325e-13  -1.18737e-13  -1.44074e-13
          327   -1.0235e-13  -1.09147e-13  -1.25912e-13  -1.20874e-13  -1.34958e-13
          328   -6.5054e-14   5.48703e-15  -5.94526e-14  -2.59177e-14  -2.42908e-14
          329  -8.81488e-14  -5.85527e-14  -6.00727e-14   -7.2178e-14  -6.36142e-14
          330  -1.55113e-13  -2.41384e-13  -1.76572e-13  -2.19132e-13  -2.12004e-13
          331  -1.11007e-13  -1.54858e-13  -1.26568e-13  -7.57907e-14  -1.18121e-13
          332  -6.60316e-14   9.81855e-15  -4.25483e-14  -3.80539e-14  -2.49491e-14
          333  -1.65031e-14   4.31187e-15   6.45116e-15  -2.12052e-14   8.13122e-15
          334   7.58145e-15  -2.75809e-14   7.36931e-15   3.60307e-14  -4.71735e-15
          335  -8.49606e-14   -1.0198e-13  -1.56929e-13  -1.92433e-13  -1.50322e-13
          336  -1.80902e-13  -2.00685e-13  -1.87278e-13  -1.90607e-13  -1.89098e-13
          337  -1.37172e-13   -1.2478e-13  -1.06548e-13  -7.20655e-14  -1.15288e-13
          338  -7.88981e-14  -2.84558e-14  -2.92105e-14   9.61643e-15  -1.27137e-14
          339  -1.01017e-13  -9.78312e-14  -1.30599e-13   -1.7006e-13  -1.27685e-13
          340  -6.86753e-14  -6.58658e-14  -3.99432e-14  -7.09915e-14  -8.11696e-14
          341   1.83097e-15   1.24942e-14   4.29797e-14   5.80582e-14    4.3909e-14
          342   3.29994e-15   1.04964e-14  -2.47366e-14   2.18603e-14   1.65215e-14
          343  -1.99759e-14  -4.06873e-14  -3.12691e-14  -1.84788e-14   -2.2527e-14
          344   9.44876e-14   1.53571e-13   2.13775e-13   1.16831e-13   1.50343e-13
          345   1.95468e-13   2.31194e-13   1.94894e-13   2.16083e-13   2.05842e-13
          346    1.5637e-13   7.96616e-14     6.629e-14   1.60645e-13   1.03625e-13
          347   1.80683e-13   1.47462e-13   1.42778e-13   1.08074e-13   1.61403e-13
          348   2.57257e-13   2.87532e-13   3.44171e-13   3.18741e-13   2.93003e-13
          349   2.28866e-13    2.1486e-13   2.02981e-13   2.49405e-13    2.2326e-13
          350    1.7326e-13   1.41432e-13    6.7925e-14   7.38182e-14    1.2562e-13
          351   1.22663e-13   1.12411e-13   1.75092e-13   1.49863e-13   1.29732e-13
          352   6.04575e-14   6.93072e-14   1.01499e-13   5.03569e-14   6.32875e-14
          353  -1.00725e-13  -1.92911e-13  -2.72956e-13  -2.01875e-13  -2.06575e-13
          354  -1.64082e-13  -1.79905e-13  -1.60124e-13  -1.64598e-13  -1.58579e-13