7 	0.0118766634903468 	1.37043154602168e-16 	-0.0154276573212609 	-4.32997538928992e-07 	7.2864125901214e-20
7 	0.0201339998195326 	1.31838984174237e-16 	-0.0120575909511007 	7.83785088279443e-05 	-2.13808315685969e-20
7 	0.0286938265600377 	1.2490009027033e-16 	-0.00543697851467246 	0.000129753312345447 	-4.70259198023526e-20
7 	0.0375672248214896 	1.14491749414469e-16 	0.000598495620871054 	0.000165550401711266 	-4.50253629279346e-21
7 	0.0467656816470147 	1.17961196366423e-16 	0.00581499986661066 	0.000183204109505308 	1.48925736945588e-20
7 	0.0563011048837713 	1.2490009027033e-16 	0.0105402767987701 	0.000181832391624998 	-3.39331865349049e-21
7 	0.0661858385982335 	1.14491749414469e-16 	0.0149906963595444 	0.000161756184919713 	-2.59238883921488e-20
7 	0.0764326790561828 	1.05818132034585e-16 	0.0192927417927093 	0.000123519400900228 	-1.98575243883431e-20
7 	0.0870548912880936 	1.16226472890446e-16 	0.023525861803991 	6.75031533839878e-05 	1.70828274753903e-21
7 	0.0980662262613554 	1.2490009027033e-16 	0.0277444392861333 	-6.06017058717769e-06 	1.38978348960083e-20
7 	0.109480938681567 	1.28369537222284e-16 	0.0319887400466682 	-9.70172056129454e-05 	-2.20930350877375e-20
7 	0.121313805445942 	1.31838984174237e-16 	0.0362907144704364 	-0.000205247595962544 	4.83292982148932e-22
7 	0.133580144772717 	1.21430643318376e-16 	0.0406772897138335 	-0.000330632281235755 	5.52324911946537e-22
7 	0.146295836031327 	1.04083408558608e-16 	0.0451723609215956 	-0.000473027100394159 	9.74245825237369e-21
7 	0.159477340299017 	9.71445146547012e-17 	0.049798070302121 	-0.00063223833758375 	7.11584716108466e-22
7 	0.173141721670501 	8.67361737988404e-17 	0.0545756771055936 	-0.000807998600129227 	2.98139565015159e-22
7 	0.187306669348262 	7.28583859910259e-17 	0.0595261817994662 	-0.000999941927148568 	-1.77983100421221e-20
7 	0.201990520542081 	7.28583859910259e-17 	0.0646707996410953 	-0.00120757712009946 	-1.83279717184197e-20
7 	0.217212284207436 	7.28583859910259e-17 	0.0700313397308591 	-0.00143025847301224 	-9.25322447965649e-22
7 	0.232991665653523 	7.28583859910259e-17 	0.0756305240521593 	-0.00166715326161132 	-2.22518887897928e-22
7 	0.249349092052728 	7.63278329429795e-17 	0.0814922682956462 	-0.00191720541285893 	1.72732988432602e-20
7 	0.266305738884589 	7.63278329429795e-17 	0.0876419383952976 	-0.00217909482662189 	1.74267601147914e-20
7 	0.283883557348484 	7.05815614288063e-17 	0.0941065344572783 	-0.00245069343852695 	1.72482224777372e-20
7 	0.302105302780517 	5.97395397039513e-17 	0.100916010026932 	-0.00272820086945054 	4.82201005733818e-22
7 	0.320994564111403 	5.50774703622636e-17 	0.10810256805918 	-0.00301077102898623 	2.1113841523032e-22
7 	0.340575794403482 	5.33427468862868e-17 	0.115699889580722 	-0.0032955152135178 	-2.81428281502947e-21
7 	0.360874342506392 	5.24753851482984e-17 	0.12374425273261 	-0.00357898944907964 	-4.09556242020831e-21
7 	0.381916485872381 	5.20417042793042e-17 	0.13227471934064 	-0.00385711798941368 	-2.70677174766802e-20
7 	0.403729464573739 	5.29090660172926e-17 	0.141333297541512 	-0.00412511147300203 	9.97519994973172e-22
7 	0.426341516566396 	5.03069808033274e-17 	0.150965069166194 	-0.00437738062731588 	4.88511674907634e-21
7 	0.44978191424532 	4.5102810375397e-17 	0.161218266893929 	-0.00460744621192461 	2.5927581270326e-20
7 	0.474081002339049 	5.03069808033274e-17 	0.172144282217463 	-0.00480784595154538 	-3.29625349044179e-21
7 	0.499270237192414 	5.72458747072346e-17 	0.183797579648439 	-0.00497005153963686 	-1.80456352759004e-21
7 	0.525382227488299 	5.72458747072346e-17 	0.196235481951994 	-0.00508442852288871 	2.53916199318543e-20
7 	0.552450776461161 	5.89805981832114e-17 	0.209517801644296 	-0.00514007837981054 	-9.97595841465439e-22
7 	0.580510925656957 	6.59194920871187e-17 	0.223706442645364 	-0.00512372859764863 	7.70625653529407e-21
7 	0.609599000296117 	6.59194920871187e-17 	0.238869377293916 	-0.00502203496711768 	1.72004785574831e-20
7 	0.639752656298308 	6.59194920871187e-17 	0.255142594887522 	-0.00483184358879463 	-2.38564533881952e-20
7 	0.671010929029843 	7.28583859910259e-17 	0.272905160117529 	-0.00455676007124207 	2.11517204201134e-20
7 	0.703414283836854 	7.28583859910259e-17 	0.292612106402729 	-0.00419650835039032 	2.06572890876208e-16
7 	0.737004668429647 	6.59194920871187e-17 	0.314489298066078 	-0.00373854416483088 	2.79460393934588e-16
7 	0.761419519668443 	6.15826833971767e-17 	0.331162998112213 	-0.00334862183538561 	-1.29039021878339e-16
7 	0.779162313841553 	6.15826833971767e-17 	0.343692322203949 	-0.00302675357275894 	-3.75179572366469e-16
7 	0.807992742715646 	6.28837260041593e-17 	0.364527236382217 	-0.00244305760521119 	-2.29298173456179e-16
7 	0.845475280399478 	6.20163642661709e-17 	0.392376244957924 	-0.00157566334167804 	2.47385111038226e-20
7 	0.884326557652535 	6.59194920871187e-17 	0.421881239724449 	-0.000555919710425899 	1.74735861662666e-20
7 	0.924596372923087 	7.89299181569447e-17 	0.452871495107302 	0.000611081696294341 	3.70664107742731e-20
7 	0.966336321272196 	8.67361737988404e-17 	0.485184824425847 	0.00191622445620553 	-7.41245255503093e-20
7 	1.00959985787075 	8.67361737988404e-17 	0.518637029590756 	0.00334591963559787 	4.19976969323177e-20
7 	1.05444236361788 	8.84708972748172e-17 	0.552991012802088 	0.00487963146319908 	4.87651075615627e-21
7 	1.10092121293912 	9.0205620750794e-17 	0.587940185327899 	0.00648719090655084 	1.25655577610343e-19
7 	1.14909584382294 	9.0205620750794e-17 	0.623113472168367 	0.00812775160136136 	-1.17664872733187e-20
7 	1.19902783015393 	8.67361737988404e-17 	0.658100595895662 	0.00975120595641805 	7.8674186831427e-20
7 	1.25078095640108 	7.89299181569447e-17 	0.692490273068408 	0.0113043948332046 	-8.98754508910169e-20
7 	1.30442129471847 	7.89299181569447e-17 	0.725866786014993 	0.0127349085750327 	-1.51760505485045e-19
7 	1.36001728451516 	7.63278329429795e-17 	0.757866258537357 	0.0139786128591328 	-1.57465483647605e-20
7 	1.41763981454947 	6.76542155630955e-17 	0.788278487402178 	0.0150005667113018 	-2.96546042826901e-20
7 	1.47736230760124 	6.76542155630955e-17 	0.81701917400614 	0.0157829468350604 	-4.97416437332387e-16
7 	1.53926080777324 	6.59194920871187e-17 	0.844094846801046 	0.0163230674709313 	-3.40499647600283e-15
7 	1.60341407047001 	6.24500451351651e-17 	0.869562347811672 	0.0166275625747289 	2.81599651329749e-15
7 	1.66893489902569 	6.93889390390723e-17 	0.893151570488202 	0.0167089765873852 	1.0506201046918e-15
7 	1.7027752979414 	7.64362531602281e-17 	0.904736179755476 	0.0166922442448359 	2.90009696999702e-17
7 	1.73884798288128 	7.38341679462629e-17 	0.915954508074384 	0.0165852467040748 	-1.24957047221795e-19
7 	1.81031024575141 	7.19910242530375e-17 	0.936964477334144 	0.0162688406405933 	-1.95122399301657e-19
7 	1.88432958821742 	6.76542155630955e-17 	0.956404375871384 	0.0157608943308698 	3.45924394100066e-20
7 	1.9609947218388 	6.24500451351651e-17 	0.9738247079415 	0.0150595322069259 	7.73990652988858e-21
7 	2.02024009608345 	6.24500451351651e-17 	0.986079411258489 	0.0144569791553931 	5.57819010777429e-22
7 	2.06000503604194 	5.55111512312578e-17 	0.993982252641128 	0.014047183800393 	0
7 	2.09836474743796 	5.55111512312578e-17 	1.00099952750804 	0.0136531613388779 	0
7 	2.13536888877257 	6.59194920871187e-17 	1.00745066477924 	0.0132757075996036 	0
7 	2.17106536369584 	7.28583859910259e-17 	1.01336463004057 	0.0129117345858804 	0
7 	2.20550038302044 	7.28583859910259e-17 	1.01877123203588 	0.0125588596935966 	0
7 	2.23871852454378 	6.93889390390723e-17 	1.02369995195469 	0.0122160152681508 	0
7 	2.27076279075613 	7.28583859910259e-17 	1.0281789655992 	0.0118825005902164 	0
7 	2.30167466450941 	6.93889390390723e-17 	1.0322345204843 	0.0115578423480078 	0
7 	2.33149416271872 	6.24500451351651e-17 	1.03589057836101 	0.0112417305283158 	0
7 	2.36025988816627 	5.20417042793042e-17 	1.03916862973221 	0.0109339505845855 	0
7 	2.38800907947441 	4.16333634234434e-17 	1.04208761676395 	0.0106343361045661 	0
7 	2.41477765931296 	3.46944695195361e-17 	1.04466392098796 	0.0103427393913601 	0
7 	2.44060028090272 	2.77555756156289e-17 	1.04691138611017 	0.0100590137757291 	0
7 	2.46551037287586 	2.77555756156289e-17 	1.04884135622221 	0.00978300377578503 	0
7 	2.48954018255081 	2.77555756156289e-17 	1.05046271663993 	0.00951454046401636 	0
7 	2.51272081767801 	2.42861286636753e-17 	1.05178192937195 	0.00925344016268926 	0
7 	2.53508228671037 	2.08166817117217e-17 	1.05280305860265 	0.00899950517240642 	0
7 	2.55665353765073 	1.73472347597681e-17 	1.05352778410501 	0.00875252566191944 	0
7 	2.57746249552636 	6.93889390390723e-18 	1.05395540256662 	0.00851228213899705 	0
7 	2.59753609853934 	-3.46944695195361e-18 	1.05408281869429 	0.00827854811797261 	0
7 	2.61690033293929 	-3.46944695195361e-18 	1.05390452985428 	0.0080510927265997 	0
7 	2.63558026666389 	3.46944695195361e-18 	1.05341261002977 	0.0078296830724092 	0
7 	2.65360008179049 	6.93889390390723e-18 	1.05259670108256 	0.00761408623109395 	0
7 	2.67098310584102 	1.38777878078145e-17 	1.05144402164552 	0.00740407073736012 	0
7 	2.68775184198056 	1.73472347597681e-17 	1.04993940627546 	0.00719940746109966 	0
7 	2.70392799814879 	1.38777878078145e-17 	1.04806538943626 	0.0069998697470074 	0
7 	2.71953251516198 	1.73472347597681e-17 	1.04580234995949 	0.00680523269261944 	0
7 	2.73458559382185 	2.42861286636753e-17 	1.04312873118191 	0.0066152714477275 	0
7 	2.74910672106653 	2.42861286636753e-17 	1.04002134924545 	0.00642975844735472 	0
7 	2.76311469519732 	2.08166817117217e-17 	1.03645579639979 	0.00624845955020845 	0
7 	2.776627650214 	1.73472347597681e-17 	1.03240693723268 	0.00607112915057099 	0
7 	2.78966307929018 	1.38777878078145e-17 	1.02784948383522 	0.00589750446287097 	0
7 	2.80223785741904 	1.04083408558608e-17 	1.02275862207711 	0.00572729933368774 	0
7 	2.81436826325886 	6.93889390390723e-18 	1.01711064734518 	0.00556019809385818 	0
7 	2.82607000020647 	6.93889390390723e-18 	1.01088355674158 	0.00539585009202694 	0
7 	2.83735821672613 	3.46944695195361e-18 	1.00405753820706 	0.00523386560639355 	0
7 	2.8482475259599 	-3.46944695195361e-18 	0.996615296826396 	0.00507381379050216 	0
7 	2.85875202464506 	-6.93889390390723e-18 	0.988542164687388 	0.00491522336887792 	0
7 	2.86888531136304 	-6.93889390390723e-18 	0.979825951415464 	0.00475758704298044 	0
7 	2.87866050414343 	-6.93889390390723e-18 	0.970456504861067 	0.00460036723683262 	0
7 	2.88809025744591 	-3.46944695195361e-18 	0.960424961711273 	0.00444299035029871 	0
7 	2.89718677854204 	-3.46944695195361e-18 	0.949722672403475 	0.00428486856186814 	0
7 	2.90596184331818 	-6.93889390390723e-18 	0.938336049231039 	0.00412569960658823 	0
7 	2.91442681151997 	-6.93889390390723e-18 	0.926210332963434 	0.00396429490956628 	0
7 	2.922592641458 	-3.46944695195361e-18 	0.913252165422214 	0.00379904236948037 	0
7 	2.93046990419394 	0 	0.899417447879224 	0.00362818455219354 	0
7 	2.93806879722526 	-3.46944695195361e-18 	0.884739663337303 	0.00345072471564117 	0
7 	2.94539915768638 	-1.04083408558608e-17 	0.869279035796847 	0.00326563973049392 	0
7 	2.95247047508334 	-1.38777878078145e-17 	0.853078282129121 	0.0030718883127192 	0
7 	2.9592919035784 	-1.04083408558608e-17 	0.836119887136101 	0.00286912320988807 	0
7 	2.96587227384055 	-6.93889390390723e-18 	0.818273152467138 	0.00265869619047388 	0
7 	2.97222010447726 	-6.93889390390723e-18 	0.79931358631278 	0.00244181190233408 	0
7 	2.97834361306218 	-6.93889390390723e-18 	0.778974539877966 	0.00222047201138775 	0
7 	2.98425072677325 	-3.46944695195361e-18 	0.756910519901596 	0.00199510449358868 	0
7 	2.98994909265477 	3.46944695195361e-18 	0.732629007823406 	0.00176634456463091 	0
7 	2.99544608751689 	6.93889390390723e-18 	0.705407212956537 	0.00153518602297262 	0
7 	3.00074882748522 	6.93889390390723e-18 	0.674151248539497 	0.00130298428074588 	0
7 	3.00586417721304 	6.93889390390723e-18 	0.637121463242347 	0.00107164359330168 	0
7 	3.01079875876789 	6.93889390390723e-18 	0.591408790993759 	0.000843834707100131 	0
7 	3.01555896020418 	6.93889390390723e-18 	0.532269421129978 	0.000624328388573975 	0
7 	3.02015094383282 	6.93889390390723e-18 	0.452306872567778 	0.000418307004498817 	0
7 	3.02458065419862 	6.93889390390723e-18 	0.34375397578899 	0.000232892029365164 	0
7 	3.02885382577583 	6.93889390390723e-18 	0.21117881534574 	9.00272144175735e-05 	0
7 	3.03297599039166 	6.93889390390723e-18 	0.0709519741335267 	1.16855486774185e-05 	0
