# wallShearStress  FACE_DATA 235
#  x  y  z  wallShearStress_x  wallShearStress_y  wallShearStress_z  
0.0005 0.001 4.69794e-05 -7.55712 5.76616e-17 3.66786e-17
0.0005 0.001 0.000140066 -7.55673 1.0345e-16 7.38775e-17
0.0005 0.001 0.000231425 -7.55586 -1.82549e-16 2.54759e-16
0.0005 0.001 0.000321089 -7.55458 1.06064e-16 2.57266e-16
0.0005 0.001 0.000409087 -7.55285 -1.12958e-16 2.29154e-16
0.0005 0.001 0.000495453 -7.55074 3.8305e-17 2.55165e-16
0.0005 0.001 0.000580215 -7.54817 -1.01457e-16 2.4637e-16
0.0005 0.001 0.000663404 -7.54522 2.65548e-18 4.14238e-16
0.0005 0.001 0.000745049 -7.54184 6.05972e-16 3.62109e-16
0.0005 0.001 0.000825179 -7.53807 7.74999e-16 8.86016e-17
0.0005 0.001 0.000903821 -7.53389 6.19987e-17 -5.10576e-18
0.0005 0.001 0.000981003 -7.52931 -9.22911e-17 8.93953e-17
0.0005 0.001 0.00105675 -7.52429 -2.33581e-16 1.14184e-16
0.0005 0.001 0.0011311 -7.51885 -2.34228e-16 1.13815e-16
0.0005 0.001 0.00120406 -7.51296 -3.95643e-16 1.3948e-16
0.0005 0.001 0.00127567 -7.50666 -2.42331e-16 1.7787e-16
0.0005 0.001 0.00134595 -7.49991 -3.68205e-16 2.14235e-16
0.0005 0.001 0.00141493 -7.49271 -4.61885e-16 2.14618e-16
0.0005 0.001 0.00148262 -7.48508 -8.11627e-16 1.88673e-16
0.0005 0.001 0.00154906 -7.47697 -7.85635e-16 3.41165e-16
0.0005 0.001 0.00161427 -7.46839 -8.0488e-16 4.07668e-16
0.0005 0.001 0.00167826 -7.45931 -5.31519e-16 2.97827e-16
0.0005 0.001 0.00174107 -7.44979 -6.05215e-16 3.39631e-16
0.0005 0.001 0.00180271 -7.43977 -2.73273e-16 3.28097e-16
0.0005 0.001 0.00186321 -7.42928 -3.12028e-16 3.40372e-16
0.0005 0.001 0.00192258 -7.41829 1.40091e-17 3.89352e-16
0.0005 0.001 0.00198085 -7.40681 6.86913e-17 3.83959e-16
0.0005 0.001 0.00203805 -7.39483 1.49334e-16 3.6856e-16
0.0005 0.001 0.00209417 -7.38235 3.47749e-16 3.03259e-16
0.0005 0.001 0.00214926 -7.3694 3.50581e-16 2.5463e-16
0.0005 0.001 0.00220333 -7.35595 4.88885e-16 2.20389e-16
0.0005 0.001 0.00225639 -7.34201 4.46868e-16 1.68144e-16
0.0005 0.001 0.00230846 -7.32757 3.27492e-16 1.01192e-16
0.0005 0.001 0.00235957 -7.31266 3.01703e-16 1.02828e-16
0.0005 0.001 0.00240973 -7.29728 2.76507e-16 1.11388e-16
0.0005 0.001 0.00245896 -7.28143 2.57272e-16 1.31834e-16
0.0005 0.001 0.00250728 -7.2651 2.54848e-16 7.32375e-17
0.0005 0.001 0.0025547 -7.24831 6.6214e-17 6.95512e-17
0.0005 0.001 0.00260124 -7.23107 8.74108e-17 1.30989e-16
0.0005 0.001 0.00264691 -7.21333 1.47357e-17 1.33788e-16
0.0005 0.001 0.00269174 -7.19515 9.3638e-17 1.72504e-16
0.0005 0.001 0.00273574 -7.17655 6.51834e-17 1.34642e-16
0.0005 0.001 0.00277892 -7.15754 -1.59934e-17 1.27095e-16
0.0005 0.001 0.00282129 -7.13815 -3.35302e-17 1.58429e-16
0.0005 0.001 0.00286288 -7.11838 -7.54981e-17 1.2348e-16
0.0005 0.001 0.0029037 -7.09823 -8.27728e-17 1.17305e-16
0.0005 0.001 0.00294376 -7.07778 -1.29662e-16 8.43589e-17
0.0005 0.001 0.00298308 -7.05695 -1.10678e-16 1.32581e-16
0.0005 0.001 0.00302167 -7.03582 -1.35626e-16 1.81093e-16
0.0005 0.001 0.00305954 -7.01437 -9.37235e-17 1.38386e-16
0.0005 0.001 0.00309671 -6.99265 -9.97342e-17 1.89543e-16
0.0005 0.001 0.00313319 -6.97063 -6.19372e-17 1.82491e-16
0.0005 0.001 0.00316899 -6.94834 -7.3022e-17 1.82152e-16
0.0005 0.001 0.00320413 -6.92582 -6.85458e-18 2.02331e-16
0.0005 0.001 0.00323861 -6.90303 -2.35525e-17 2.53597e-16
0.0005 0.001 0.00327246 -6.88004 -7.92634e-18 2.51187e-16
0.0005 0.001 0.00330567 -6.85684 -8.03689e-17 2.48169e-16
0.0005 0.001 0.00333827 -6.8334 -6.35959e-17 3.09705e-16
0.0005 0.001 0.00337027 -6.8098 -2.12679e-17 3.07029e-16
0.0005 0.001 0.00340167 -6.78602 1.13052e-16 3.22859e-16
0.0005 0.001 0.00343249 -6.76206 2.05603e-16 2.74418e-16
0.0005 0.001 0.00346273 -6.73794 2.47925e-16 2.2206e-16
0.0005 0.001 0.00349242 -6.71369 2.64225e-16 2.30492e-16
0.0005 0.001 0.00352155 -6.68929 3.58669e-16 1.83221e-16
0.0005 0.001 0.00355014 -6.66475 3.77316e-16 1.6355e-16
0.0005 0.001 0.0035782 -6.64008 3.91653e-16 1.78981e-16
0.0005 0.001 0.00360575 -6.61531 3.03649e-16 1.20513e-16
0.0005 0.001 0.00363277 -6.59043 2.53494e-16 1.15004e-16
0.0005 0.001 0.0036593 -6.56545 3.06793e-16 1.21098e-16
0.0005 0.001 0.00368534 -6.54036 2.88587e-16 7.55688e-17
0.0005 0.001 0.00371089 -6.51517 3.81626e-16 2.29814e-17
0.0005 0.001 0.00373597 -6.48993 3.63012e-16 -1.65424e-17
0.0005 0.001 0.00376058 -6.46455 4.83424e-16 -4.29074e-17
0.0005 0.001 0.00378474 -6.43912 5.15692e-16 -7.99143e-17
0.0005 0.001 0.00380845 -6.41362 4.89318e-16 -1.29706e-16
0.0005 0.001 0.00383171 -6.38801 3.69475e-16 -1.57684e-16
0.0005 0.001 0.00385455 -6.36235 2.6866e-16 -1.5044e-16
0.0005 0.001 0.00387696 -6.33661 1.43879e-16 -1.57137e-16
0.0005 0.001 0.00389896 -6.31079 5.65892e-17 -1.12528e-16
0.0005 0.001 0.00392054 -6.28489 -3.10945e-17 -7.25573e-17
0.0005 0.001 0.00394173 -6.25894 -1.22079e-16 -8.58793e-18
0.0005 0.001 0.00396252 -6.23288 -1.55074e-16 2.94419e-17
0.0005 0.001 0.00398293 -6.20678 -1.73553e-16 8.80283e-17
0.0005 0.001 0.00400296 -6.18057 -1.26279e-16 1.43031e-16
0.0005 0.001 0.00402262 -6.1543 -1.01463e-16 1.35959e-16
0.0005 0.001 0.00404191 -6.12793 -6.09926e-17 1.19259e-16
0.0005 0.001 0.00406084 -6.10149 -7.69088e-17 1.10465e-16
0.0005 0.001 0.00407943 -6.07494 -6.72012e-17 1.48474e-16
0.0005 0.001 0.00409766 -6.04831 -4.3677e-17 1.72724e-16
0.0005 0.001 0.00411556 -6.02157 1.56061e-18 1.87961e-16
0.0005 0.001 0.00413313 -5.99473 4.1124e-17 1.69919e-16
0.0005 0.001 0.00415037 -5.96781 5.59428e-17 1.65724e-16
0.0005 0.001 0.00416729 -5.94074 4.64551e-17 1.88982e-16
0.0005 0.001 0.0041839 -5.91359 1.01643e-16 1.99006e-16
0.0005 0.001 0.0042002 -5.88627 8.02285e-17 2.01243e-16
0.0005 0.001 0.00421619 -5.85886 1.16187e-16 1.88763e-16
0.0005 0.001 0.00423189 -5.83129 5.3129e-17 1.8526e-16
0.0005 0.001 0.0042473 -5.80356 4.8167e-17 2.15504e-16
0.0005 0.001 0.00426242 -5.7757 5.34579e-17 2.2806e-16
0.0005 0.001 0.00427726 -5.74766 5.56322e-17 2.26582e-16
0.0005 0.001 0.00429183 -5.71943 6.16102e-17 2.10554e-16
0.0005 0.001 0.00430612 -5.69102 5.32866e-17 1.98575e-16
0.0005 0.001 0.00432015 -5.6624 3.61418e-17 2.03095e-16
0.0005 0.001 0.00433392 -5.63358 8.51564e-17 1.91138e-16
0.0005 0.001 0.00434743 -5.60451 3.58566e-17 2.06933e-16
0.0005 0.001 0.0043607 -5.57527 8.31815e-17 2.07819e-16
0.0005 0.001 0.00437371 -5.54579 2.8899e-17 1.94548e-16
0.0005 0.001 0.00438649 -5.51612 3.22734e-17 2.13778e-16
0.0005 0.001 0.00439903 -5.48622 5.4843e-17 1.99086e-16
0.0005 0.001 0.00441133 -5.45609 2.17075e-17 1.91002e-16
0.0005 0.001 0.00442341 -5.42574 2.18067e-17 1.97175e-16
0.0005 0.001 0.00443526 -5.39519 -6.50532e-18 2.09786e-16
0.0005 0.001 0.00444689 -5.36437 1.54198e-17 2.26002e-16
0.0005 0.001 0.00445831 -5.33332 2.662e-17 2.22269e-16
0.0005 0.001 0.00446952 -5.30203 -1.08996e-17 2.31475e-16
0.0005 0.001 0.00448051 -5.27049 1.7812e-17 2.36388e-16
0.0005 0.001 0.0044913 -5.23868 -2.98597e-18 2.31454e-16
0.0005 0.001 0.0045019 -5.20663 3.88744e-17 2.3587e-16
0.0005 0.001 0.00451229 -5.1743 2.81504e-17 2.30357e-16
0.0005 0.001 0.0045225 -5.1417 1.06402e-17 2.35925e-16
0.0005 0.001 0.00453251 -5.10882 2.40803e-18 2.44308e-16
0.0005 0.001 0.00454234 -5.07568 1.54837e-17 2.59813e-16
0.0005 0.001 0.00455198 -5.04219 3.92972e-17 2.74404e-16
0.0005 0.001 0.00456145 -5.00845 5.2443e-17 2.71184e-16
0.0005 0.001 0.00457074 -4.97436 3.26393e-17 2.80424e-16
0.0005 0.001 0.00457986 -4.93996 3.73696e-17 2.9929e-16
0.0005 0.001 0.0045888 -4.90522 2.55106e-17 3.13185e-16
0.0005 0.001 0.00459759 -4.87015 4.71982e-17 3.18478e-16
0.0005 0.001 0.00460621 -4.8347 4.4668e-17 3.19297e-16
0.0005 0.001 0.00461467 -4.79894 5.52624e-17 3.26792e-16
0.0005 0.001 0.00462297 -4.76281 5.8879e-17 3.46412e-16
0.0005 0.001 0.00463112 -4.72632 7.6144e-17 3.57074e-16
0.0005 0.001 0.00463911 -4.68949 8.19692e-17 3.66239e-16
0.0005 0.001 0.00464696 -4.65226 9.14692e-17 3.82541e-16
0.0005 0.001 0.00465467 -4.6147 7.97222e-17 3.93106e-16
0.0005 0.001 0.00466223 -4.57674 8.23452e-17 4.16531e-16
0.0005 0.001 0.00466965 -4.53839 7.42106e-17 4.35946e-16
0.0005 0.001 0.00467693 -4.49968 8.24767e-17 4.40539e-16
0.0005 0.001 0.00468408 -4.46054 7.81985e-17 4.38784e-16
0.0005 0.001 0.00469109 -4.42102 8.56064e-17 4.43443e-16
0.0005 0.001 0.00469797 -4.3811 7.95822e-17 4.52206e-16
0.0005 0.001 0.00470473 -4.34076 8.68094e-17 4.56911e-16
0.0005 0.001 0.00471136 -4.30003 8.58287e-17 4.61249e-16
0.0005 0.001 0.00471787 -4.25888 9.63846e-17 4.6136e-16
0.0005 0.001 0.00472426 -4.21734 9.67994e-17 4.58584e-16
0.0005 0.001 0.00473052 -4.17538 1.04664e-16 4.57051e-16
0.0005 0.001 0.00473668 -4.13303 1.02284e-16 4.59493e-16
0.0005 0.001 0.00474271 -4.09029 1.07343e-16 4.58101e-16
0.0005 0.001 0.00474864 -4.04718 1.04792e-16 4.56729e-16
0.0005 0.001 0.00475446 -4.00365 1.07799e-16 4.56252e-16
0.0005 0.001 0.00476016 -3.95975 1.05025e-16 4.54336e-16
0.0005 0.001 0.00476577 -3.91546 1.08067e-16 4.57883e-16
0.0005 0.001 0.00477126 -3.87084 1.04657e-16 4.61361e-16
0.0005 0.001 0.00477666 -3.82582 1.07341e-16 4.62501e-16
0.0005 0.001 0.00478195 -3.78043 1.04662e-16 4.63187e-16
0.0005 0.001 0.00478715 -3.7347 1.07323e-16 4.62242e-16
0.0005 0.001 0.00479225 -3.68864 1.03999e-16 4.62091e-16
0.0005 0.001 0.00479726 -3.6422 1.05387e-16 4.61597e-16
0.0005 0.001 0.00480217 -3.59543 1.02387e-16 4.61825e-16
0.0005 0.001 0.00480699 -3.54834 1.0357e-16 4.62832e-16
0.0005 0.001 0.00481173 -3.50089 1.01186e-16 4.6121e-16
0.0005 0.001 0.00481637 -3.45315 1.04243e-16 4.60274e-16
0.0005 0.001 0.00482093 -3.4051 1.01733e-16 4.58542e-16
0.0005 0.001 0.0048254 -3.35673 1.04535e-16 4.56036e-16
0.0005 0.001 0.0048298 -3.30807 1.02147e-16 4.55928e-16
0.0005 0.001 0.0048341 -3.25913 1.034e-16 4.54983e-16
0.0005 0.001 0.00483833 -3.2099 1.00623e-16 4.50676e-16
0.0005 0.001 0.00484249 -3.1604 1.0081e-16 4.46072e-16
0.0005 0.001 0.00484656 -3.11067 9.84699e-17 4.43889e-16
0.0005 0.001 0.00485056 -3.06068 9.75198e-17 4.40159e-16
0.0005 0.001 0.00485448 -3.01048 9.40887e-17 4.36051e-16
0.0005 0.001 0.00485833 -2.96008 9.33856e-17 4.31358e-16
0.0005 0.001 0.00486211 -2.90946 9.07145e-17 4.27544e-16
0.0005 0.001 0.00486582 -2.85868 8.96436e-17 4.2195e-16
0.0005 0.001 0.00486946 -2.80772 8.7573e-17 4.1511e-16
0.0005 0.001 0.00487304 -2.75664 8.76738e-17 4.07873e-16
0.0005 0.001 0.00487654 -2.70542 8.58951e-17 4.00367e-16
0.0005 0.001 0.00487998 -2.65409 8.59994e-17 3.92024e-16
0.0005 0.001 0.00488336 -2.60271 8.43309e-17 3.82906e-16
0.0005 0.001 0.00488668 -2.55125 8.55647e-17 3.74717e-16
0.0005 0.001 0.00488993 -2.49976 8.45127e-17 3.67429e-16
0.0005 0.001 0.00489312 -2.44826 8.5093e-17 3.59233e-16
0.0005 0.001 0.00489626 -2.39676 8.32509e-17 3.50111e-16
0.0005 0.001 0.00489933 -2.3453 8.31084e-17 3.41717e-16
0.0005 0.001 0.00490235 -2.2939 8.18313e-17 3.34046e-16
0.0005 0.001 0.00490531 -2.24258 8.12661e-17 3.2648e-16
0.0005 0.001 0.00490822 -2.19137 7.94759e-17 3.18366e-16
0.0005 0.001 0.00491108 -2.14028 7.93874e-17 3.09807e-16
0.0005 0.001 0.00491388 -2.08935 7.77354e-17 3.02768e-16
0.0005 0.001 0.00491663 -2.0386 7.66429e-17 2.95815e-16
0.0005 0.001 0.00491932 -1.98804 7.52927e-17 2.88615e-16
0.0005 0.001 0.00492197 -1.93769 7.46245e-17 2.81631e-16
0.0005 0.001 0.00492457 -1.88759 7.33186e-17 2.75099e-16
0.0005 0.001 0.00492712 -1.83774 7.27213e-17 2.68102e-16
0.0005 0.001 0.00492962 -1.78816 7.17932e-17 2.61464e-16
0.0005 0.001 0.00493208 -1.73887 7.14561e-17 2.55404e-16
0.0005 0.001 0.00493449 -1.68988 7.04687e-17 2.49672e-16
0.0005 0.001 0.00493686 -1.64121 7.00707e-17 2.44332e-16
0.0005 0.001 0.00493918 -1.59287 6.90361e-17 2.39197e-16
0.0005 0.001 0.00494146 -1.54486 6.79951e-17 2.34331e-16
0.0005 0.001 0.00494369 -1.4972 6.69105e-17 2.29515e-16
0.0005 0.001 0.00494589 -1.44989 6.58545e-17 2.24789e-16
0.0005 0.001 0.00494804 -1.40294 6.4704e-17 2.20242e-16
0.0005 0.001 0.00495016 -1.35635 6.36368e-17 2.15303e-16
0.0005 0.001 0.00495223 -1.31012 6.25649e-17 2.10621e-16
0.0005 0.001 0.00495427 -1.26426 6.12554e-17 2.06072e-16
0.0005 0.001 0.00495627 -1.21875 6.00954e-17 2.01203e-16
0.0005 0.001 0.00495823 -1.17361 5.86418e-17 1.9603e-16
0.0005 0.001 0.00496016 -1.12883 5.72291e-17 1.90617e-16
0.0005 0.001 0.00496205 -1.0844 5.57493e-17 1.84974e-16
0.0005 0.001 0.0049639 -1.04032 5.46031e-17 1.79114e-16
0.0005 0.001 0.00496572 -0.996581 5.29931e-17 1.73032e-16
0.0005 0.001 0.00496751 -0.95317 5.1547e-17 1.66732e-16
0.0005 0.001 0.00496926 -0.910083 4.98609e-17 1.60304e-16
0.0005 0.001 0.00497098 -0.867305 4.8251e-17 1.53434e-16
0.0005 0.001 0.00497267 -0.824822 4.63031e-17 1.46238e-16
0.0005 0.001 0.00497433 -0.782627 4.43704e-17 1.38805e-16
0.0005 0.001 0.00497595 -0.740699 4.21925e-17 1.30968e-16
0.0005 0.001 0.00497755 -0.699019 4.02615e-17 1.22865e-16
0.0005 0.001 0.00497912 -0.657573 3.78552e-17 1.14498e-16
0.0005 0.001 0.00498065 -0.616333 3.55425e-17 1.05778e-16
0.0005 0.001 0.00498216 -0.575278 3.29249e-17 9.66854e-17
0.0005 0.001 0.00498365 -0.534378 3.03061e-17 8.716e-17
0.0005 0.001 0.0049851 -0.493601 2.74066e-17 7.72133e-17
0.0005 0.001 0.00498653 -0.452908 2.47909e-17 6.69336e-17
0.0005 0.001 0.00498793 -0.412257 2.19448e-17 5.64445e-17
0.0005 0.001 0.0049893 -0.371589 1.92537e-17 4.58333e-17
0.0005 0.001 0.00499065 -0.330844 1.64937e-17 3.51917e-17
0.0005 0.001 0.00499197 -0.289933 1.41983e-17 2.47684e-17
0.0005 0.001 0.00499327 -0.248746 1.22843e-17 1.50221e-17
0.0005 0.001 0.00499455 -0.207133 1.10963e-17 6.44428e-18
0.0005 0.001 0.0049958 -0.16487 1.03185e-17 -8.18681e-20
0.0005 0.001 0.00499703 -0.121597 9.90738e-18 -3.70106e-18
0.0005 0.001 0.00499823 -0.0766322 8.50214e-18 -4.14982e-18
0.0005 0.001 0.00499941 -0.0283849 5.56764e-18 -1.11587e-18
