/*--------------------------------*- C++ -*----------------------------------*\
  =========                 |
  \\      /  F ield         | OpenFOAM: The Open Source CFD Toolbox
   \\    /   O peration     | Website:  https://openfoam.org
    \\  /    A nd           | Version:  7
     \\/     M anipulation  |
\*---------------------------------------------------------------------------*/
FoamFile
{
    version     2.0;
    format      ascii;
    class       volScalarField;
    location    "334";
    object      k;
}
// * * * * * * * * * * * * * * * * * * * * * * * * * * * * * * * * * * * * * //

dimensions      [0 2 -2 0 0 0 0];

internalField   nonuniform List<scalar> 
2209
(
7.8243
8.07633
8.50155
9.03468
9.6283
10.2511
10.884
11.5158
12.1397
12.751
13.3451
13.9174
14.4622
14.9733
15.4438
15.8669
16.2332
16.533
16.752
16.8759
16.8911
16.7842
16.5415
16.1489
15.592
14.8578
13.9369
12.8273
11.5388
10.0962
8.5376
6.92015
5.34157
3.91139
2.71636
1.79386
1.13023
0.680365
0.390402
0.212
0.107473
0.0497109
0.020186
0.00671672
0.00159745
0.000199039
5.96988e-06
8.07633
8.33442
8.76825
9.30924
9.90719
10.5288
11.1538
11.7707
12.3732
12.9578
13.5214
14.0609
14.5723
15.0505
15.4898
15.8838
16.2238
16.5008
16.7014
16.8113
16.816
16.7015
16.4536
16.0573
15.4983
14.7631
13.8427
12.7351
11.45
10.0126
8.46086
6.85243
5.28489
3.86686
2.68369
1.77143
1.11575
0.671526
0.385292
0.209214
0.106058
0.0490563
0.0199201
0.00662825
0.00157641
0.000196417
5.89127e-06
8.50155
8.76825
9.21456
9.76699
10.3712
10.9908
11.6037
12.1978
12.7673
13.3098
13.8245
14.3106
14.7665
15.1896
15.5757
15.9197
16.2146
16.451
16.6183
16.7021
16.6872
16.5583
16.3001
15.8969
15.3336
14.5966
13.6768
12.5724
11.2934
9.86525
8.32555
6.73311
5.18511
3.78856
2.62631
1.73209
1.09037
0.656036
0.376338
0.204334
0.10358
0.0479094
0.0194543
0.00647327
0.00153955
0.000191825
5.75356e-06
9.03468
9.30924
9.76699
10.3298
10.9392
11.5557
12.155
12.724
13.2569
13.7523
14.2109
14.6342
15.0234
15.3785
15.6977
15.9778
16.2136
16.3973
16.5189
16.5657
16.5223
16.3722
16.0987
15.6849
15.115
14.3751
13.4557
12.3553
11.0844
9.6686
8.14508
6.57412
5.05237
3.68459
2.55024
1.68
1.0568
0.635557
0.364504
0.197886
0.100306
0.0463941
0.0188389
0.00626849
0.00149085
0.000185758
5.57158e-06
9.6283
9.90719
10.3712
10.9392
11.5498
12.1606
12.7454
13.2899
13.788
14.2383
14.6422
15.0025
15.3224
15.6046
15.8503
16.0587
16.2265
16.3483
16.4151
16.4157
16.3354
16.1572
15.863
15.4348
14.8558
14.1114
13.1919
12.0961
10.8346
9.43361
7.92956
6.38451
4.89437
3.56111
2.46009
1.61838
1.01713
0.611381
0.350539
0.190278
0.0964435
0.0446063
0.0181128
0.00602689
0.00143339
0.000178599
5.35688e-06
10.2511
10.5288
10.9908
11.5557
12.1606
12.7613
13.3298
13.8508
14.3177
14.7286
15.0845
15.3877
15.6423
15.8532
16.0245
16.1582
16.2537
16.3074
16.3134
16.2606
16.1362
15.9233
15.6031
15.1565
14.5655
13.8149
12.8946
11.8035
10.5527
9.16844
7.68658
6.1711
4.71698
3.42286
2.35944
1.54972
0.972988
0.5845
0.33502
0.181825
0.0921522
0.0426203
0.0173061
0.00575848
0.00136956
0.000170646
5.11836e-06
10.884
11.1538
11.6037
12.155
12.7454
13.3298
13.8787
14.3758
14.8144
15.1916
15.507
15.7618
15.9594
16.1055
16.2065
16.2673
16.2901
16.2739
16.2145
16.1043
15.9302
15.677
15.3259
14.857
14.2511
13.4924
12.5706
11.4842
10.2449
8.87921
7.42187
5.9391
4.52471
3.27351
2.25102
1.47595
0.925633
0.555691
0.318395
0.172772
0.0875568
0.0404936
0.0164424
0.00547109
0.00130121
0.000162131
4.86296e-06
11.5158
11.7707
12.1978
12.724
13.2899
13.8508
14.3758
14.8472
15.2587
15.6059
15.8854
16.098
16.2472
16.3387
16.3782
16.3726
16.3267
16.2423
16.1173
15.9465
15.7199
15.4222
15.036
14.5411
13.9177
13.1492
12.2248
11.1433
9.91633
8.57068
7.13994
5.69264
4.32114
3.11596
2.13705
1.39859
0.876069
0.525568
0.301022
0.163314
0.0827567
0.0382722
0.0155403
0.00517089
0.00122982
0.000153235
4.59617e-06
12.1397
12.3732
12.7673
13.2569
13.788
14.3177
14.8144
15.2587
15.644
15.962
16.2086
16.3837
16.4908
16.5352
16.5234
16.4611
16.3539
16.2061
16.0182
15.7872
15.506
15.1616
14.737
14.2129
13.5694
12.7893
11.8614
10.7845
9.57042
8.24583
6.8436
5.43435
4.10864
2.9522
2.01902
1.31871
0.824985
0.494557
0.283148
0.153586
0.0778199
0.0359878
0.0146125
0.00486217
0.00115639
0.000144087
4.3218e-06
12.751
12.9578
13.3098
13.7523
14.2383
14.7286
15.1916
15.6059
15.962
16.2506
16.4665
16.6089
16.6803
16.6854
16.63
16.5202
16.3612
16.1573
15.9116
15.6233
15.2877
14.8956
14.4307
13.8749
13.2087
12.415
11.4823
10.4095
9.20842
7.90392
6.53228
5.16414
3.88745
2.78262
1.89735
1.23665
0.77262
0.462811
0.264863
0.143638
0.0727728
0.0336524
0.0136641
0.00454659
0.00108134
0.000134736
4.04132e-06
13.3451
13.5214
13.8245
14.2109
14.6422
15.0845
15.507
15.8854
16.2086
16.4665
16.6532
16.7668
16.8082
16.7808
16.6895
16.5398
16.3373
16.0865
15.79
15.4494
15.0625
14.6226
14.117
13.5283
12.838
12.0294
11.0914
10.0228
8.8353
7.55199
6.21267
4.88786
3.6624
2.61094
1.7747
1.15419
0.720117
0.43102
0.246565
0.133686
0.0677242
0.0313165
0.0127154
0.00423092
0.00100627
0.000125382
3.76077e-06
13.9174
14.0609
14.3106
14.6342
15.0025
15.3877
15.7618
16.098
16.3837
16.6089
16.7668
16.8539
16.8695
16.8153
16.6948
16.5125
16.2738
15.9834
15.6447
15.2587
14.8253
14.3403
13.7948
13.173
12.458
11.6339
10.6901
9.62586
8.4528
7.19195
5.88677
4.60744
3.43522
2.43858
1.65213
1.07207
0.667944
0.39947
0.228418
0.12382
0.0627197
0.0290011
0.0117751
0.00391804
0.000931853
0.00011611
3.48268e-06
14.4622
14.5723
14.7665
15.0234
15.3224
15.6423
15.9594
16.2472
16.4908
16.6803
16.8082
16.8695
16.8617
16.7848
16.6404
16.432
16.1639
15.8406
15.4659
15.0422
14.5686
14.0431
13.4596
12.8057
12.066
11.2263
10.277
9.21773
8.06021
6.82346
5.55456
4.32311
3.20628
2.2659
1.52996
0.990498
0.61624
0.368245
0.21047
0.114066
0.0577726
0.0267124
0.0108457
0.00360877
0.000858297
0.000106945
3.2078e-06
14.9733
15.0505
15.1896
15.3785
15.6046
15.8532
16.1055
16.3387
16.5352
16.6854
16.7808
16.8153
16.7848
16.6873
16.5229
16.2935
16.002
15.6522
15.2477
14.7913
14.284
13.7237
13.106
12.4218
11.6584
10.8036
9.84919
8.79544
7.65205
6.44172
5.21255
4.03255
2.97413
2.09206
1.40766
0.909186
0.564834
0.337248
0.192669
0.104395
0.0528692
0.0244442
0.0099246
0.00330227
0.000785403
9.7863e-05
2.93538e-06
15.4438
15.4898
15.5757
15.6977
15.8503
16.0245
16.2065
16.3782
16.5234
16.63
16.6895
16.6948
16.6404
16.5229
16.3406
16.0938
15.7838
15.4132
14.985
14.5018
13.9654
13.3754
12.7282
12.0169
11.2321
10.3638
9.40592
8.35935
7.23202
6.05071
4.8644
3.73894
2.74135
1.91898
1.28658
0.829
0.514266
0.3068
0.175196
0.0949067
0.0480588
0.0222191
0.00902104
0.00300161
0.000713896
8.89534e-05
2.66815e-06
15.8669
15.8838
15.9197
15.9778
16.0587
16.1582
16.2673
16.3726
16.4611
16.5202
16.5398
16.5125
16.432
16.2935
16.0938
15.8313
15.5063
15.1198
14.6733
14.1689
13.6089
12.9938
12.3214
11.587
10.7838
9.90468
8.94531
7.90598
6.79763
5.64924
4.50989
3.44268
2.50857
1.74727
1.16721
0.750284
0.46476
0.277038
0.158131
0.0856434
0.0433636
0.0200475
0.00813924
0.0027082
0.000644112
8.02583e-05
2.40734e-06
16.2332
16.2238
16.2146
16.2136
16.2265
16.2537
16.2901
16.3267
16.3539
16.3612
16.3373
16.2738
16.1639
16.002
15.7838
15.5063
15.1681
14.769
14.3088
13.7883
13.2102
12.5752
11.8827
11.1297
10.3121
9.42543
8.46632
7.4371
6.35156
5.24029
4.15207
3.14654
2.2781
1.57866
1.05072
0.673797
0.416782
0.248238
0.141632
0.076691
0.0388269
0.0179493
0.00728728
0.00242472
0.00057669
7.18575e-05
2.15537e-06
16.533
16.5008
16.451
16.3973
16.3483
16.3074
16.2739
16.2423
16.2061
16.1573
16.0865
15.9834
15.8406
15.6522
15.4132
15.1198
14.769
14.3591
13.888
13.3557
12.7646
12.1155
11.4085
10.6424
9.8152
8.92514
7.97008
6.95519
5.89688
4.82723
3.79423
2.85348
2.05228
1.41483
0.93825
0.600259
0.370773
0.220661
0.125845
0.0681287
0.0344886
0.0159431
0.00647269
0.00215367
0.000512225
6.38252e-05
1.91445e-06
16.752
16.7014
16.6183
16.5189
16.4151
16.3134
16.2145
16.1173
16.0182
15.9116
15.79
15.6447
15.4659
15.2477
14.985
14.6733
14.3088
13.888
13.4076
12.8676
12.2683
11.6106
10.895
10.1216
9.29045
8.40217
7.45655
6.4613
5.43542
4.41235
3.43882
2.56569
1.83285
1.25701
0.830593
0.530165
0.327032
0.194481
0.11087
0.0600094
0.0303756
0.0140412
0.00570047
0.00189672
0.000451114
5.62107e-05
1.68605e-06
16.8759
16.8113
16.7021
16.5657
16.4157
16.2606
16.1043
15.9465
15.7872
15.6233
15.4494
15.2587
15.0422
14.7913
14.5018
14.1689
13.7883
13.3557
12.8676
12.3221
11.7185
11.0572
10.3387
9.56412
8.7352
7.85477
6.925
5.95568
4.9683
3.99735
3.08771
2.28489
1.62112
1.10609
0.728302
0.463844
0.285749
0.169808
0.0967676
0.0523664
0.0265045
0.0122514
0.00497377
0.00165493
0.000393606
4.90451e-05
1.47112e-06
16.8911
16.816
16.6872
16.5223
16.3354
16.1362
15.9302
15.7199
15.506
15.2877
15.0625
14.8253
14.5686
14.284
13.9654
13.6089
13.2102
12.7646
12.2683
11.7185
11.1138
10.4531
9.73723
8.96751
8.14734
7.2816
6.37494
5.43876
4.49674
3.58396
2.74277
2.01268
1.41825
0.962808
0.631816
0.401548
0.247069
0.146723
0.0835833
0.0452239
0.0228877
0.0105792
0.00429488
0.00142904
0.000339882
4.2351e-05
1.27034e-06
16.7842
16.7015
16.5583
16.3722
16.1572
15.9233
15.677
15.4222
15.1616
14.8956
14.6226
14.3403
14.0431
13.7237
13.3754
12.9938
12.5752
12.1155
11.6106
11.0572
10.4531
9.79745
9.08899
8.33017
7.52575
6.68233
5.80675
4.91169
4.02258
3.17442
2.40616
1.75081
1.22544
0.827893
0.541548
0.343508
0.211121
0.1253
0.0713571
0.0386032
0.0195358
0.00902975
0.00366582
0.00121974
0.000290104
3.61485e-05
1.0843e-06
16.5415
16.4536
16.3001
16.0987
15.863
15.6031
15.3259
15.036
14.737
14.4307
14.117
13.7948
13.4596
13.106
12.7282
12.3214
11.8827
11.4085
10.895
10.3387
9.73723
9.08899
8.39351
7.65202
6.87095
6.05823
5.22224
4.37685
3.54869
2.77171
2.08052
1.50126
1.04399
0.702109
0.457929
0.289962
0.178039
0.105612
0.0601305
0.0325265
0.0164601
0.00760809
0.0030887
0.00102772
0.000244437
3.04584e-05
9.13621e-07
16.1489
16.0573
15.8969
15.6849
15.4348
15.1565
14.857
14.5411
14.2129
13.8749
13.5283
13.173
12.8057
12.4218
12.0169
11.587
11.1297
10.6424
10.1216
9.56412
8.96751
8.33017
7.65202
6.93526
6.1859
5.41286
4.62517
3.83833
3.07931
2.37979
1.76911
1.26632
0.875332
0.58628
0.381414
0.241162
0.147962
0.0877387
0.0499472
0.0270171
0.0136723
0.00631972
0.00256574
0.000853735
0.000203059
2.53027e-05
7.58974e-07
15.592
15.4983
15.3336
15.115
14.8558
14.5655
14.2511
13.9177
13.5694
13.2087
12.838
12.458
12.066
11.6584
11.2321
10.7838
10.3121
9.8152
9.29045
8.7352
8.14734
7.52575
6.87095
6.1859
5.47675
4.75246
4.02161
3.30219
2.62028
2.00375
1.47578
1.04857
0.720988
0.481256
0.312463
0.197358
0.121029
0.0717572
0.0408495
0.0220977
0.0111837
0.00516987
0.00209905
0.00069848
0.000166137
2.07022e-05
6.20982e-07
14.8578
14.7631
14.5966
14.3751
14.1114
13.8149
13.4924
13.1492
12.7893
12.415
12.0294
11.6339
11.2263
10.8036
10.3638
9.90468
9.42543
8.92514
8.40217
7.85477
7.2816
6.68233
6.05823
5.41286
4.75246
4.08443
3.41958
2.77675
2.17923
1.64974
1.20485
0.850683
0.582457
0.387817
0.251476
0.158757
0.0973505
0.0577261
0.032869
0.0177845
0.00900257
0.00416225
0.00169014
0.000562454
0.000133789
1.66717e-05
5.00087e-07
13.9369
13.8427
13.6768
13.4557
13.1919
12.8946
12.5706
12.2248
11.8614
11.4823
11.0914
10.6901
10.277
9.84919
9.40592
8.94531
8.46632
7.97008
7.45655
6.925
6.37494
5.80675
5.22224
4.62517
4.02161
3.41958
2.83113
2.27345
1.76569
1.32471
0.960754
0.67512
0.460962
0.306521
0.198693
0.12546
0.0769663
0.0456623
0.0260127
0.0140807
0.0071301
0.00329738
0.00133919
0.000445719
0.000106029
1.32129e-05
3.96341e-07
12.8273
12.7351
12.5724
12.3553
12.0961
11.8035
11.4842
11.1433
10.7845
10.4095
10.0228
9.62586
9.21773
8.79544
8.35935
7.90598
7.4371
6.95519
6.4613
5.95568
5.43876
4.91169
4.37685
3.83833
3.30219
2.77675
2.27345
1.80651
1.39018
1.03545
0.747252
0.523634
0.357155
0.237522
0.154084
0.0973936
0.0598127
0.0355204
0.020252
0.0109698
0.00555773
0.00257122
0.00104455
0.000347717
8.27244e-05
1.03093e-05
3.09245e-07
11.5388
11.45
11.2934
11.0844
10.8346
10.5527
10.2449
9.91633
9.57042
9.20842
8.8353
8.4528
8.06021
7.65205
7.23202
6.79763
6.35156
5.89688
5.43542
4.9683
4.49674
4.02258
3.54869
3.07931
2.62028
2.17923
1.76569
1.39018
1.06202
0.787105
0.566561
0.396795
0.270879
0.18045
0.117296
0.0742893
0.0457063
0.0271849
0.0155189
0.00841429
0.00426617
0.00197476
0.000802545
0.000267222
6.35831e-05
7.92432e-06
2.37708e-07
10.0962
10.0126
9.86525
9.6686
9.43361
9.16844
8.87921
8.57068
8.24583
7.90392
7.55199
7.19195
6.82346
6.44172
6.05071
5.64924
5.24029
4.82723
4.41235
3.99735
3.58396
3.17442
2.77171
2.37979
2.00375
1.64974
1.32471
1.03545
0.787105
0.581918
0.418809
0.293805
0.201134
0.134431
0.0876739
0.0556982
0.0343588
0.0204803
0.0117119
0.00635866
0.00322718
0.00149492
0.000607844
0.000202459
4.81823e-05
6.00543e-06
1.80149e-07
8.5376
8.46086
8.32555
8.14508
7.92956
7.68658
7.42187
7.13994
6.8436
6.53228
6.21267
5.88677
5.55456
5.21255
4.8644
4.50989
4.15207
3.79423
3.43882
3.08771
2.74277
2.40616
2.08052
1.76911
1.47578
1.20485
0.960754
0.747252
0.566561
0.418809
0.302027
0.212645
0.146233
0.0982095
0.0643491
0.0410514
0.0254141
0.0151931
0.00870847
0.00473649
0.00240709
0.0011161
0.000454116
0.00015132
3.60209e-05
4.49011e-06
1.34696e-07
6.92015
6.85243
6.73311
6.57412
6.38451
6.1711
5.9391
5.69264
5.43435
5.16414
4.88786
4.60744
4.32311
4.03255
3.73894
3.44268
3.14654
2.85348
2.56569
2.28489
2.01268
1.75081
1.50126
1.26632
1.04857
0.850683
0.67512
0.523634
0.396795
0.293805
0.212645
0.150473
0.104089
0.070335
0.0463577
0.0297321
0.0184914
0.0110966
0.00637969
0.00347797
0.00177059
0.000822002
0.000334743
0.000111605
2.65754e-05
3.31315e-06
9.93921e-08
5.34157
5.28489
5.18511
5.05237
4.89437
4.71698
4.52471
4.32114
4.10864
3.88745
3.6624
3.43522
3.20628
2.97413
2.74135
2.50857
2.2781
2.05228
1.83285
1.62112
1.41825
1.22544
1.04399
0.875332
0.720988
0.582457
0.460962
0.357155
0.270879
0.201134
0.146233
0.104089
0.0724908
0.0493335
0.0327441
0.0211378
0.0132218
0.00797273
0.0046016
0.00251623
0.00128389
0.000597031
0.000243403
8.12109e-05
1.93459e-05
2.41228e-06
7.23694e-08
3.91139
3.86686
3.78856
3.68459
3.56111
3.42286
3.27351
3.11596
2.9522
2.78262
2.61094
2.43858
2.2659
2.09206
1.91898
1.74727
1.57866
1.41483
1.25701
1.10609
0.962808
0.827893
0.702109
0.58628
0.481256
0.387817
0.306521
0.237522
0.18045
0.134431
0.0982095
0.070335
0.0493335
0.0338338
0.0226338
0.0147224
0.00927301
0.00562538
0.00326301
0.00179132
0.000916748
0.000427227
0.000174436
5.82563e-05
1.38853e-05
1.73179e-06
5.19569e-08
2.71636
2.68369
2.62631
2.55024
2.46009
2.35944
2.25102
2.13705
2.01902
1.89735
1.7747
1.65213
1.52996
1.40766
1.28658
1.16721
1.05072
0.93825
0.830593
0.728302
0.631816
0.541548
0.457929
0.381414
0.312463
0.251476
0.198693
0.154084
0.117296
0.0876739
0.0643491
0.0463577
0.0327441
0.0226338
0.0152689
0.0100164
0.00636046
0.00388709
0.00226903
0.00125207
0.00064332
0.000300675
0.000123013
4.11356e-05
9.81182e-06
1.22413e-06
3.67284e-08
1.79386
1.77143
1.73209
1.68
1.61838
1.54972
1.47595
1.39859
1.31871
1.23665
1.15419
1.07207
0.990498
0.909186
0.829
0.750284
0.673797
0.600259
0.530165
0.463844
0.401548
0.343508
0.289962
0.241162
0.197358
0.158757
0.12546
0.0973936
0.0742893
0.0556982
0.0410514
0.0297321
0.0211378
0.0147224
0.0100164
0.00663064
0.00424938
0.0026199
0.00154149
0.000856319
0.000442323
0.000207552
8.51492e-05
2.85249e-05
6.81074e-06
8.50078e-07
2.55077e-08
1.13023
1.11575
1.09037
1.0568
1.01713
0.972988
0.925633
0.876069
0.824985
0.77262
0.720117
0.667944
0.61624
0.564834
0.514266
0.46476
0.416782
0.370773
0.327032
0.285749
0.247069
0.211121
0.178039
0.147962
0.121029
0.0973505
0.0769663
0.0598127
0.0457063
0.0343588
0.0254141
0.0184914
0.0132218
0.00927301
0.00636046
0.00424938
0.00275045
0.001713
0.00101769
0.000570235
0.000296655
0.000139963
5.76436e-05
1.93592e-05
4.62891e-06
5.78106e-07
1.7349e-08
0.680365
0.671526
0.656036
0.635557
0.611381
0.5845
0.555691
0.525568
0.494557
0.462811
0.43102
0.39947
0.368245
0.337248
0.3068
0.277038
0.248238
0.220661
0.194481
0.169808
0.146723
0.1253
0.105612
0.0877387
0.0717572
0.0577261
0.0456623
0.0355204
0.0271849
0.0204803
0.0151931
0.0110966
0.00797273
0.00562538
0.00388709
0.0026199
0.001713
0.00107874
0.000648207
0.000367164
0.000192835
9.16762e-05
3.7967e-05
1.27976e-05
3.06635e-06
3.83296e-07
1.15048e-08
0.390402
0.385292
0.376338
0.364504
0.350539
0.33502
0.318395
0.301022
0.283148
0.264863
0.246565
0.228418
0.21047
0.192669
0.175196
0.158131
0.141632
0.125845
0.11087
0.0967676
0.0835833
0.0713571
0.0601305
0.0499472
0.0408495
0.032869
0.0260127
0.020252
0.0155189
0.0117119
0.00870847
0.00637969
0.0046016
0.00326301
0.00226903
0.00154149
0.00101769
0.000648207
0.00039446
0.000226379
0.000120379
5.78398e-05
2.41488e-05
8.18441e-06
1.96717e-06
2.46225e-07
7.39247e-09
0.212
0.209214
0.204334
0.197886
0.190278
0.181825
0.172772
0.163314
0.153586
0.143638
0.133686
0.12382
0.114066
0.104395
0.0949067
0.0856434
0.076691
0.0681287
0.0600094
0.0523664
0.0452239
0.0386032
0.0325265
0.0270171
0.0220977
0.0177845
0.0140807
0.0109698
0.00841429
0.00635866
0.00473649
0.00347797
0.00251623
0.00179132
0.00125207
0.000856319
0.000570235
0.000367164
0.000226379
0.000131864
7.12155e-05
3.47182e-05
1.46691e-05
5.01359e-06
1.21098e-06
1.51893e-07
4.56221e-09
0.107473
0.106058
0.10358
0.100306
0.0964435
0.0921522
0.0875568
0.0827567
0.0778199
0.0727728
0.0677242
0.0627197
0.0577726
0.0528692
0.0480588
0.0433636
0.0388269
0.0344886
0.0303756
0.0265045
0.0228877
0.0195358
0.0164601
0.0136723
0.0111837
0.00900257
0.0071301
0.00555773
0.00426617
0.00322718
0.00240709
0.00177059
0.00128389
0.000916748
0.00064332
0.000442323
0.000296655
0.000192835
0.000120379
7.12155e-05
3.91631e-05
1.94588e-05
8.36597e-06
2.8976e-06
7.0558e-07
8.88089e-08
2.66927e-09
0.0497109
0.0490563
0.0479094
0.0463941
0.0446063
0.0426203
0.0404936
0.0382722
0.0359878
0.0336524
0.0313165
0.0290011
0.0267124
0.0244442
0.0222191
0.0200475
0.0179493
0.0159431
0.0140412
0.0122514
0.0105792
0.00902975
0.00760809
0.00631972
0.00516987
0.00416225
0.00329738
0.00257122
0.00197476
0.00149492
0.0011161
0.000822002
0.000597031
0.000427227
0.000300675
0.000207552
0.000139963
9.16762e-05
5.78398e-05
3.47182e-05
1.94588e-05
9.89295e-06
4.35795e-06
1.54177e-06
3.80758e-07
4.82235e-08
1.4512e-09
0.020186
0.0199201
0.0194543
0.0188389
0.0181128
0.0173061
0.0164424
0.0155403
0.0146125
0.0136641
0.0127154
0.0117751
0.0108457
0.0099246
0.00902104
0.00813924
0.00728728
0.00647269
0.00570047
0.00497377
0.00429488
0.00366582
0.0030887
0.00256574
0.00209905
0.00169014
0.00133919
0.00104455
0.000802545
0.000607844
0.000454116
0.000334743
0.000243403
0.000174436
0.000123013
8.51492e-05
5.76436e-05
3.7967e-05
2.41488e-05
1.46691e-05
8.36597e-06
4.35795e-06
1.97984e-06
7.23725e-07
1.83377e-07
2.35107e-08
7.09231e-10
0.00671672
0.00662825
0.00647327
0.00626849
0.00602689
0.00575848
0.00547109
0.00517089
0.00486217
0.00454659
0.00423092
0.00391804
0.00360877
0.00330227
0.00300161
0.0027082
0.00242472
0.00215367
0.00189672
0.00165493
0.00142904
0.00121974
0.00102772
0.000853735
0.00069848
0.000562454
0.000445719
0.000347717
0.000267222
0.000202459
0.00015132
0.000111605
8.12109e-05
5.82563e-05
4.11356e-05
2.85249e-05
1.93592e-05
1.27976e-05
8.18441e-06
5.01359e-06
2.8976e-06
1.54177e-06
7.23725e-07
2.76664e-07
7.34337e-08
9.67337e-09
2.93439e-10
0.00159745
0.00157641
0.00153955
0.00149085
0.00143339
0.00136956
0.00130121
0.00122982
0.00115639
0.00108134
0.00100627
0.000931853
0.000858297
0.000785403
0.000713896
0.000644112
0.00057669
0.000512225
0.000451114
0.000393606
0.000339882
0.000290104
0.000244437
0.000203059
0.000166137
0.000133789
0.000106029
8.27244e-05
6.35831e-05
4.81823e-05
3.60209e-05
2.65754e-05
1.93459e-05
1.38853e-05
9.81182e-06
6.81074e-06
4.62891e-06
3.06635e-06
1.96717e-06
1.21098e-06
7.0558e-07
3.80758e-07
1.83377e-07
7.34337e-08
2.09512e-08
2.94717e-09
9.08619e-11
0.000199039
0.000196417
0.000191825
0.000185758
0.000178599
0.000170646
0.000162131
0.000153235
0.000144087
0.000134736
0.000125382
0.00011611
0.000106945
9.7863e-05
8.89534e-05
8.02583e-05
7.18575e-05
6.38252e-05
5.62107e-05
4.90451e-05
4.2351e-05
3.61485e-05
3.04584e-05
2.53027e-05
2.07022e-05
1.66717e-05
1.32129e-05
1.03093e-05
7.92432e-06
6.00543e-06
4.49011e-06
3.31315e-06
2.41228e-06
1.73179e-06
1.22413e-06
8.50078e-07
5.78106e-07
3.83296e-07
2.46225e-07
1.51893e-07
8.88089e-08
4.82235e-08
2.35107e-08
9.67337e-09
2.94717e-09
4.73165e-10
1.56545e-11
5.96988e-06
5.89127e-06
5.75356e-06
5.57158e-06
5.35688e-06
5.11836e-06
4.86296e-06
4.59617e-06
4.3218e-06
4.04132e-06
3.76077e-06
3.48268e-06
3.2078e-06
2.93538e-06
2.66815e-06
2.40734e-06
2.15537e-06
1.91445e-06
1.68605e-06
1.47112e-06
1.27034e-06
1.0843e-06
9.13621e-07
7.58974e-07
6.20982e-07
5.00087e-07
3.96341e-07
3.09245e-07
2.37708e-07
1.80149e-07
1.34696e-07
9.93921e-08
7.23694e-08
5.19569e-08
3.67284e-08
2.55077e-08
1.7349e-08
1.15048e-08
7.39247e-09
4.56221e-09
2.66927e-09
1.4512e-09
7.09231e-10
2.93439e-10
9.08619e-11
1.56545e-11
8.59276e-13
)
;

boundaryField
{
    inflow
    {
        type            cyclic;
    }
    outflow
    {
        type            cyclic;
    }
    wallTop
    {
        type            fixedValue;
        value           uniform 0;
    }
    wallSide
    {
        type            fixedValue;
        value           uniform 0;
    }
    symmetryBottom
    {
        type            symmetry;
    }
    symmetrySide
    {
        type            symmetry;
    }
}


// ************************************************************************* //
