/*--------------------------------*- C++ -*----------------------------------*\
  =========                 |
  \\      /  F ield         | OpenFOAM: The Open Source CFD Toolbox
   \\    /   O peration     | Website:  https://openfoam.org
    \\  /    A nd           | Version:  7
     \\/     M anipulation  |
\*---------------------------------------------------------------------------*/
FoamFile
{
    version     2.0;
    format      ascii;
    class       volScalarField;
    location    "334";
    object      nut;
}
// * * * * * * * * * * * * * * * * * * * * * * * * * * * * * * * * * * * * * //

dimensions      [0 2 -1 0 0 0 0];

internalField   nonuniform List<scalar> 
2209
(
0.000309439
0.000305842
0.000299222
0.000290004
0.000278594
0.000265425
0.000250948
0.000235602
0.000219789
0.000203854
0.000188078
0.000172672
0.000157788
0.00014353
0.00012996
0.000116908
0.000103719
9.15096e-05
8.04458e-05
7.04194e-05
6.12938e-05
5.29691e-05
4.5383e-05
3.8498e-05
3.2289e-05
2.67299e-05
2.18117e-05
1.75111e-05
1.37983e-05
1.06262e-05
7.85966e-06
5.43439e-06
3.53853e-06
2.15203e-06
1.21561e-06
6.36209e-07
3.08361e-07
1.38263e-07
5.70911e-08
2.14755e-08
7.21138e-09
2.08768e-09
4.91058e-10
8.44464e-11
8.64408e-12
3.34888e-13
1.63575e-15
0.000305842
0.000302652
0.00029671
0.000288276
0.000277638
0.000265155
0.000251233
0.000236294
0.000220743
0.000204939
0.000189185
0.000173722
0.000158729
0.000144331
0.000130613
0.000117623
0.0001045
9.21366e-05
8.08743e-05
7.06727e-05
6.14144e-05
5.29983e-05
4.53539e-05
3.84351e-05
3.22091e-05
2.66446e-05
2.17284e-05
1.74343e-05
1.37303e-05
1.05674e-05
7.80518e-06
5.39142e-06
3.50691e-06
2.1306e-06
1.20237e-06
6.28788e-07
3.04585e-07
1.36515e-07
5.6355e-08
2.11956e-08
7.11682e-09
2.06022e-09
4.84594e-10
8.33342e-11
8.53024e-12
3.30478e-13
1.61421e-15
0.000299222
0.00029671
0.000291858
0.000284704
0.000275356
0.000264048
0.000251113
0.000236937
0.000221916
0.000206427
0.000190803
0.000175323
0.000160207
0.000145623
0.000131685
0.000118471
0.000105739
9.32113e-05
8.16444e-05
7.11491e-05
6.16575e-05
5.30748e-05
4.53212e-05
3.8337e-05
3.2077e-05
2.65e-05
2.15853e-05
1.73012e-05
1.36118e-05
1.04645e-05
7.70925e-06
5.31571e-06
3.4512e-06
2.09288e-06
1.17909e-06
6.15754e-07
2.9796e-07
1.3345e-07
5.5065e-08
2.0705e-08
6.95114e-09
2.01213e-09
4.73269e-10
8.1386e-11
8.3308e-12
3.22752e-13
1.57648e-15
0.000290004
0.000288276
0.000284704
0.000279071
0.000271299
0.000261481
0.000249852
0.000236746
0.000222537
0.000207604
0.000192303
0.000176949
0.000161805
0.000147083
0.000132942
0.000119492
0.000106804
9.44687e-05
8.26528e-05
7.18218e-05
6.20312e-05
5.32212e-05
4.53118e-05
3.82304e-05
3.1917e-05
2.63178e-05
2.14013e-05
1.7128e-05
1.34564e-05
1.03287e-05
7.58155e-06
5.2148e-06
3.37697e-06
2.04266e-06
1.14815e-06
5.98464e-07
2.89184e-07
1.29395e-07
5.33591e-08
2.00565e-08
6.7322e-09
1.94858e-09
4.58304e-10
7.88117e-11
8.06728e-12
3.12543e-13
1.52661e-15
0.000278594
0.000277638
0.000275356
0.000271299
0.000265204
0.000257033
0.000246919
0.000235123
0.000221982
0.000207862
0.000193128
0.000178115
0.000163121
0.000148397
0.000134145
0.000120516
0.000107618
9.55153e-05
8.373e-05
7.26274e-05
6.25239e-05
5.3449e-05
4.53456e-05
3.81369e-05
3.17491e-05
2.6116e-05
2.11918e-05
1.69276e-05
1.32748e-05
1.01689e-05
7.42932e-06
5.09436e-06
3.28841e-06
1.98286e-06
1.11139e-06
5.77964e-07
2.78797e-07
1.24601e-07
5.13446e-08
1.92912e-08
6.47384e-09
1.8736e-09
4.40649e-10
7.57745e-11
7.75637e-12
3.00498e-13
1.46779e-15
0.000265425
0.000265155
0.000264048
0.000261481
0.000257033
0.000250537
0.000242033
0.000231703
0.000219831
0.000206754
0.00019283
0.000178403
0.000163788
0.00014926
0.000135054
0.000121364
0.000108334
9.60646e-05
8.46155e-05
7.34486e-05
6.30899e-05
5.37485e-05
4.54291e-05
3.80687e-05
3.15873e-05
2.59072e-05
2.09677e-05
1.67093e-05
1.30747e-05
9.99134e-06
7.25787e-06
4.95857e-06
3.18867e-06
1.91566e-06
1.0702e-06
5.55052e-07
2.67214e-07
1.19264e-07
4.91041e-08
1.84404e-08
6.18675e-09
1.79029e-09
4.21035e-10
7.24004e-11
7.41098e-12
2.87117e-13
1.40243e-15
0.000250948
0.000251233
0.000251113
0.000249852
0.000246919
0.000242033
0.000235138
0.000226345
0.000215872
0.000203247
0.000190243
0.000177136
0.000163482
0.000149385
0.000135432
0.000121847
0.000108811
9.64644e-05
8.48986e-05
7.41142e-05
6.36461e-05
5.40838e-05
4.55518e-05
3.80274e-05
3.14376e-05
2.56986e-05
2.07362e-05
1.64794e-05
1.28617e-05
9.8007e-06
7.07096e-06
4.81049e-06
3.08007e-06
1.8427e-06
1.02563e-06
5.30346e-07
2.54757e-07
1.13534e-07
4.67017e-08
1.75289e-08
5.87926e-09
1.70108e-09
4.00032e-10
6.87874e-11
7.04113e-12
2.72789e-13
1.33245e-15
0.000235602
0.000236294
0.000236937
0.000236746
0.000235123
0.000231703
0.000226345
0.000218358
0.000207582
0.000196125
0.000184469
0.000172612
0.000160549
0.000148224
0.000135057
0.00012178
0.000108904
9.66043e-05
8.50119e-05
7.42119e-05
6.40461e-05
5.43943e-05
4.56882e-05
3.80043e-05
3.12992e-05
2.54925e-05
2.05005e-05
1.62416e-05
1.26389e-05
9.59994e-06
6.87122e-06
4.65236e-06
2.9644e-06
1.76529e-06
9.78533e-07
5.04335e-07
2.4168e-07
1.07533e-07
4.41885e-08
1.6576e-08
5.55798e-09
1.60789e-09
3.78093e-10
6.50136e-11
6.65481e-12
2.57823e-13
1.25935e-15
0.000219789
0.000220743
0.000221916
0.000222537
0.000221982
0.000219831
0.000215872
0.000207582
0.000198048
0.000188086
0.00017781
0.000167194
0.000156228
0.000144915
0.00013328
0.000121016
0.00010848
9.63768e-05
8.48727e-05
7.40877e-05
6.40984e-05
5.45812e-05
4.579e-05
3.79776e-05
3.11639e-05
2.52871e-05
2.02613e-05
1.59968e-05
1.24065e-05
9.38349e-06
6.65944e-06
4.48517e-06
2.84263e-06
1.68419e-06
9.29448e-07
4.77345e-07
2.28158e-07
1.01341e-07
4.15997e-08
1.55953e-08
5.22746e-09
1.51204e-09
3.5553e-10
6.11325e-11
6.25751e-12
2.42431e-13
1.18417e-15
0.000203854
0.000204939
0.000206427
0.000207604
0.000207862
0.000206754
0.000203247
0.000196125
0.000188086
0.000179532
0.000170496
0.000160983
0.000151014
0.000140637
0.000129915
0.000118904
0.000107427
9.56809e-05
8.43971e-05
7.37298e-05
6.37878e-05
5.45791e-05
4.57997e-05
3.79136e-05
3.10158e-05
2.50763e-05
2.0017e-05
1.57443e-05
1.21587e-05
9.11361e-06
6.43264e-06
4.3076e-06
2.71429e-06
1.59936e-06
8.78444e-07
4.49455e-07
2.14243e-07
9.49874e-08
3.8948e-08
1.45919e-08
4.88944e-09
1.41404e-09
3.32464e-10
5.71651e-11
5.85138e-12
2.26697e-13
1.10732e-15
0.000188078
0.000189185
0.000190803
0.000192303
0.000193128
0.00019283
0.000190243
0.000184469
0.00017781
0.000170496
0.000162564
0.000154052
0.000145019
0.000135535
0.000125676
0.000115516
0.000105126
9.44244e-05
8.35021e-05
7.30688e-05
6.32645e-05
5.41845e-05
4.5638e-05
3.77713e-05
3.08313e-05
2.48473e-05
1.97616e-05
1.54831e-05
1.19027e-05
8.83171e-06
6.19667e-06
4.12377e-06
2.58223e-06
1.51264e-06
8.26631e-07
4.21272e-07
2.00236e-07
8.86096e-08
3.62906e-08
1.35872e-08
4.55122e-09
1.316e-09
3.09392e-10
5.31966e-11
5.44515e-12
2.10959e-13
1.03045e-15
0.000172672
0.000173722
0.000175323
0.000176949
0.000178115
0.000178403
0.000177136
0.000172612
0.000167194
0.000160983
0.000154052
0.000146476
0.000138336
0.000129717
0.0001207
0.000111361
0.000101777
9.2025e-05
8.21108e-05
7.20353e-05
6.24706e-05
5.35411e-05
4.5269e-05
3.74979e-05
3.05744e-05
2.45798e-05
1.94848e-05
1.52086e-05
1.16368e-05
8.53749e-06
5.95195e-06
3.93442e-06
2.4472e-06
1.42464e-06
7.74415e-07
3.93031e-07
1.86261e-07
8.22641e-08
3.36514e-08
1.25905e-08
4.21583e-09
1.21881e-09
2.86522e-10
4.92631e-11
5.04249e-12
1.95359e-13
9.54256e-16
0.000157788
0.000158729
0.000160207
0.000161805
0.000163121
0.000163788
0.000163482
0.000160549
0.000156228
0.000151014
0.000145019
0.000138336
0.000131061
0.000123284
0.000115091
0.000106559
9.77632e-05
8.87759e-05
7.96803e-05
7.05561e-05
6.13479e-05
5.26574e-05
4.46025e-05
3.70395e-05
3.02081e-05
2.42491e-05
1.91702e-05
1.49095e-05
1.13536e-05
8.22749e-06
5.6967e-06
3.73877e-06
2.30898e-06
1.33536e-06
7.2186e-07
3.64787e-07
1.72348e-07
7.59668e-08
3.10372e-08
1.16043e-08
3.88417e-09
1.12273e-09
2.63914e-10
4.53748e-11
4.64447e-12
1.79939e-13
8.78937e-16
0.00014353
0.000144331
0.000145623
0.000147083
0.000148397
0.00014926
0.000149385
0.000148224
0.000144915
0.000140637
0.000135535
0.000129717
0.000123284
0.000116332
0.000108945
0.000101204
9.31828e-05
8.49509e-05
7.65783e-05
6.8144e-05
5.97544e-05
5.14839e-05
4.36642e-05
3.63601e-05
2.96962e-05
2.38304e-05
1.88017e-05
1.4564e-05
1.09646e-05
7.89175e-06
5.42534e-06
3.53386e-06
2.1661e-06
1.24413e-06
6.68668e-07
3.36414e-07
1.58447e-07
6.96966e-08
2.844e-08
1.06257e-08
3.55531e-09
1.02749e-09
2.41508e-10
4.15215e-11
4.25002e-12
1.64657e-13
8.04294e-16
0.00012996
0.000130613
0.000131685
0.000132942
0.000134145
0.000135054
0.000135432
0.000135057
0.00013328
0.000129915
0.000125676
0.0001207
0.000115091
0.000108945
0.000102349
9.53814e-05
8.81175e-05
8.06249e-05
7.29686e-05
6.522e-05
5.74673e-05
4.98236e-05
4.24236e-05
3.54265e-05
2.90034e-05
2.32921e-05
1.83552e-05
1.41664e-05
1.05377e-05
7.53356e-06
5.1403e-06
3.32157e-06
2.01995e-06
1.15187e-06
6.154e-07
3.0821e-07
1.44702e-07
6.35186e-08
2.58864e-08
9.66476e-09
3.23256e-09
9.34042e-10
2.19527e-10
3.77415e-11
3.86309e-12
1.49667e-13
7.31072e-16
0.000116908
0.000117623
0.000118471
0.000119492
0.000120516
0.000121364
0.000121847
0.00012178
0.000121016
0.000118904
0.000115516
0.000111361
0.000106559
0.000101204
9.53814e-05
8.91726e-05
8.26472e-05
7.58773e-05
6.89237e-05
6.18511e-05
5.4739e-05
4.76809e-05
4.07922e-05
3.42168e-05
2.8112e-05
2.26167e-05
1.78047e-05
1.36228e-05
1.00683e-05
7.14892e-06
4.83992e-06
3.10149e-06
1.87064e-06
1.05884e-06
5.62246e-07
2.80293e-07
1.31173e-07
5.74604e-08
2.3388e-08
8.72578e-09
2.91741e-09
8.4283e-10
1.98075e-10
3.40524e-11
3.48547e-12
1.35037e-13
6.59613e-16
0.000103719
0.0001045
0.000105739
0.000106804
0.000107618
0.000108334
0.000108811
0.000108904
0.00010848
0.000107427
0.000105126
0.000101777
9.77632e-05
9.31828e-05
8.81175e-05
8.26472e-05
7.68481e-05
7.07822e-05
6.4514e-05
5.81037e-05
5.16289e-05
4.51725e-05
3.8833e-05
3.27307e-05
2.70034e-05
2.17746e-05
1.70851e-05
1.30044e-05
9.55831e-06
6.73974e-06
4.52613e-06
2.87536e-06
1.71954e-06
9.6592e-07
5.09731e-07
2.52937e-07
1.17991e-07
5.15795e-08
2.09682e-08
7.8175e-09
2.61278e-09
7.54689e-10
1.77348e-10
3.04882e-11
3.12064e-12
1.20902e-13
5.90572e-16
9.15096e-05
9.21366e-05
9.32113e-05
9.44687e-05
9.55153e-05
9.60646e-05
9.64644e-05
9.66043e-05
9.63768e-05
9.56809e-05
9.44244e-05
9.2025e-05
8.87759e-05
8.49509e-05
8.06249e-05
7.58773e-05
7.07822e-05
6.541e-05
5.98063e-05
5.4045e-05
4.82022e-05
4.23517e-05
3.65767e-05
3.09758e-05
2.56687e-05
2.07602e-05
1.62511e-05
1.23255e-05
9.0104e-06
6.30857e-06
4.20135e-06
2.64521e-06
1.56813e-06
8.74075e-07
4.58392e-07
2.26411e-07
1.05283e-07
4.59305e-08
1.86489e-08
6.94804e-09
2.32135e-09
6.70397e-10
1.57528e-10
2.70803e-11
2.7718e-12
1.07388e-13
5.24558e-16
8.04458e-05
8.08743e-05
8.16444e-05
8.26528e-05
8.373e-05
8.46155e-05
8.48986e-05
8.50119e-05
8.48727e-05
8.43971e-05
8.35021e-05
8.21108e-05
7.96803e-05
7.65783e-05
7.29686e-05
6.89237e-05
6.4514e-05
5.98063e-05
5.48642e-05
4.9742e-05
4.45226e-05
3.92737e-05
3.40659e-05
2.89787e-05
2.41205e-05
1.95794e-05
1.53255e-05
1.15865e-05
8.42545e-06
5.85691e-06
3.86731e-06
2.41264e-06
1.4176e-06
7.84039e-07
4.08626e-07
2.00912e-07
9.31353e-08
4.05505e-08
1.6445e-08
6.12285e-09
2.04494e-09
5.90474e-10
1.38738e-10
2.38497e-11
2.44112e-12
9.45762e-14
4.61979e-16
7.04194e-05
7.06727e-05
7.11491e-05
7.18218e-05
7.26274e-05
7.34486e-05
7.41142e-05
7.42119e-05
7.40877e-05
7.37298e-05
7.30688e-05
7.20353e-05
7.05561e-05
6.8144e-05
6.522e-05
6.18511e-05
5.81037e-05
5.4045e-05
4.9742e-05
4.52683e-05
4.06573e-05
3.59986e-05
3.1352e-05
2.67774e-05
2.23841e-05
1.82439e-05
1.43072e-05
1.07866e-05
7.80374e-06
5.38586e-06
3.52551e-06
2.17901e-06
1.26893e-06
6.96401e-07
3.60738e-07
1.7658e-07
8.16096e-08
3.54645e-08
1.43661e-08
5.34542e-09
1.7847e-09
5.15249e-10
1.21055e-10
2.08094e-11
2.12993e-12
8.25199e-14
4.03088e-16
6.12938e-05
6.14144e-05
6.16575e-05
6.20312e-05
6.25239e-05
6.30899e-05
6.36461e-05
6.40461e-05
6.40984e-05
6.37878e-05
6.32645e-05
6.24706e-05
6.13479e-05
5.97544e-05
5.74673e-05
5.4739e-05
5.16289e-05
4.82022e-05
4.45226e-05
4.06573e-05
3.66814e-05
3.25927e-05
2.84871e-05
2.44136e-05
2.04916e-05
1.67724e-05
1.3197e-05
9.9263e-06
7.14636e-06
4.89707e-06
3.17771e-06
1.94582e-06
1.12313e-06
6.11717e-07
3.14997e-07
1.53532e-07
7.07541e-08
3.06915e-08
1.24193e-08
4.61829e-09
1.54146e-09
4.44959e-10
1.04535e-10
1.79692e-11
1.83921e-12
7.12569e-14
3.48073e-16
5.29691e-05
5.29983e-05
5.30748e-05
5.32212e-05
5.3449e-05
5.37485e-05
5.40838e-05
5.43943e-05
5.45812e-05
5.45791e-05
5.41845e-05
5.35411e-05
5.26574e-05
5.14839e-05
4.98236e-05
4.76809e-05
4.51725e-05
4.23517e-05
3.92737e-05
3.59986e-05
3.25927e-05
2.91285e-05
2.55116e-05
2.19315e-05
1.8481e-05
1.5191e-05
1.19989e-05
9.00837e-06
6.45597e-06
4.3933e-06
2.82639e-06
1.71489e-06
9.81313e-07
5.3058e-07
2.71676e-07
1.31883e-07
6.06145e-08
2.6249e-08
1.06111e-08
3.94375e-09
1.31595e-09
3.79815e-10
8.92261e-11
1.53375e-11
1.56985e-12
6.0821e-14
2.97097e-16
4.5383e-05
4.53539e-05
4.53212e-05
4.53118e-05
4.53456e-05
4.54291e-05
4.55518e-05
4.56882e-05
4.579e-05
4.57997e-05
4.5638e-05
4.5269e-05
4.46025e-05
4.36642e-05
4.24236e-05
4.07922e-05
3.8833e-05
3.65767e-05
3.40659e-05
3.1352e-05
2.84871e-05
2.55116e-05
2.24864e-05
1.93804e-05
1.63947e-05
1.35311e-05
1.07209e-05
8.03839e-06
5.73735e-06
3.87875e-06
2.47489e-06
1.4885e-06
8.44809e-07
4.53646e-07
2.31067e-07
1.11755e-07
5.12381e-08
2.21551e-08
8.94832e-09
3.32417e-09
1.10895e-09
3.20038e-10
7.51808e-11
1.29231e-11
1.32273e-12
5.12472e-14
2.50332e-16
3.8498e-05
3.84351e-05
3.8337e-05
3.82304e-05
3.81369e-05
3.80687e-05
3.80274e-05
3.80043e-05
3.79776e-05
3.79136e-05
3.77713e-05
3.74979e-05
3.70395e-05
3.63601e-05
3.54265e-05
3.42168e-05
3.27307e-05
3.09758e-05
2.89787e-05
2.67774e-05
2.44136e-05
2.19315e-05
1.93804e-05
1.68161e-05
1.42779e-05
1.18278e-05
9.37635e-06
7.02582e-06
4.99795e-06
3.35934e-06
2.12754e-06
1.26941e-06
7.15126e-07
3.81646e-07
1.93489e-07
9.32761e-08
4.26753e-08
1.84289e-08
7.43794e-09
2.76206e-09
9.21273e-10
2.65859e-10
6.24529e-11
1.07354e-11
1.09882e-12
4.25725e-14
2.07959e-16
3.2289e-05
3.22091e-05
3.2077e-05
3.1917e-05
3.17491e-05
3.15873e-05
3.14376e-05
3.12992e-05
3.11639e-05
3.10158e-05
3.08313e-05
3.05744e-05
3.02081e-05
2.96962e-05
2.90034e-05
2.8112e-05
2.70034e-05
2.56687e-05
2.41205e-05
2.23841e-05
2.04916e-05
1.8481e-05
1.63947e-05
1.42779e-05
1.21745e-05
1.0114e-05
7.98586e-06
5.98513e-06
4.24846e-06
2.84293e-06
1.78965e-06
1.06078e-06
5.93919e-07
3.15346e-07
1.59264e-07
7.65752e-08
3.49758e-08
1.50892e-08
6.08688e-09
2.25982e-09
7.53694e-10
2.17499e-10
5.10942e-11
8.78314e-12
8.99024e-13
3.48321e-14
1.70149e-16
2.67299e-05
2.66446e-05
2.65e-05
2.63178e-05
2.6116e-05
2.59072e-05
2.56986e-05
2.54925e-05
2.52871e-05
2.50763e-05
2.48473e-05
2.45798e-05
2.42491e-05
2.38304e-05
2.32921e-05
2.26167e-05
2.17746e-05
2.07602e-05
1.95794e-05
1.82439e-05
1.67724e-05
1.5191e-05
1.35311e-05
1.18278e-05
1.0114e-05
8.3455e-06
6.57919e-06
4.93767e-06
3.50376e-06
2.33947e-06
1.46737e-06
8.66024e-07
4.82855e-07
2.55475e-07
1.28688e-07
6.17642e-08
2.81806e-08
1.21507e-08
4.90036e-09
1.81922e-09
6.06777e-10
1.75117e-10
4.11413e-11
7.0727e-12
7.23978e-13
2.80506e-14
1.37024e-16
2.18117e-05
2.17284e-05
2.15853e-05
2.14013e-05
2.11918e-05
2.09677e-05
2.07362e-05
2.05005e-05
2.02613e-05
2.0017e-05
1.97616e-05
1.94848e-05
1.91702e-05
1.88017e-05
1.83552e-05
1.78047e-05
1.70851e-05
1.62511e-05
1.53255e-05
1.43072e-05
1.3197e-05
1.19989e-05
1.07209e-05
9.37635e-06
7.98586e-06
6.57919e-06
5.2018e-06
3.91504e-06
2.78421e-06
1.86117e-06
1.16744e-06
6.88469e-07
3.83405e-07
2.02617e-07
1.01967e-07
4.89107e-08
2.23101e-08
9.61929e-09
3.87993e-09
1.44068e-09
4.80623e-10
1.38736e-10
3.25991e-11
5.60481e-12
5.73761e-13
2.22312e-14
1.08597e-16
1.75111e-05
1.74343e-05
1.73012e-05
1.7128e-05
1.69276e-05
1.67093e-05
1.64794e-05
1.62416e-05
1.59968e-05
1.57443e-05
1.54831e-05
1.52086e-05
1.49095e-05
1.4564e-05
1.41664e-05
1.36228e-05
1.30044e-05
1.23255e-05
1.15865e-05
1.07866e-05
9.9263e-06
9.00837e-06
8.03839e-06
7.02582e-06
5.98513e-06
4.93767e-06
3.91504e-06
2.95905e-06
2.11534e-06
1.42191e-06
8.96505e-07
5.30929e-07
2.96594e-07
1.57077e-07
7.91644e-08
3.80127e-08
1.73532e-08
7.48721e-09
3.02176e-09
1.1226e-09
3.74667e-10
1.08187e-10
2.54272e-11
4.37247e-12
4.47652e-13
1.73457e-14
8.47331e-17
1.37983e-05
1.37303e-05
1.36118e-05
1.34564e-05
1.32748e-05
1.30747e-05
1.28617e-05
1.26389e-05
1.24065e-05
1.21587e-05
1.19027e-05
1.16368e-05
1.13536e-05
1.09646e-05
1.05377e-05
1.00683e-05
9.55831e-06
9.0104e-06
8.42545e-06
7.80374e-06
7.14636e-06
6.45597e-06
5.73735e-06
4.99795e-06
4.24846e-06
3.50376e-06
2.78421e-06
2.11534e-06
1.52466e-06
1.03565e-06
6.60424e-07
3.95321e-07
2.22819e-07
1.18807e-07
6.01656e-08
2.89859e-08
1.32628e-08
5.73168e-09
2.31602e-09
8.61191e-10
2.87617e-10
8.30926e-11
1.95363e-11
3.36027e-12
3.44071e-13
1.33329e-14
6.51319e-17
1.06262e-05
1.05674e-05
1.04645e-05
1.03287e-05
1.01689e-05
9.99134e-06
9.8007e-06
9.59994e-06
9.38349e-06
9.11361e-06
8.83171e-06
8.53749e-06
8.22749e-06
7.89175e-06
7.53356e-06
7.14892e-06
6.73974e-06
6.30857e-06
5.85691e-06
5.38586e-06
4.89707e-06
4.3933e-06
3.87875e-06
3.35934e-06
2.84293e-06
2.33947e-06
1.86117e-06
1.42191e-06
1.03565e-06
7.1407e-07
4.63515e-07
2.82526e-07
1.61841e-07
8.74169e-08
4.46904e-08
2.16716e-08
9.95963e-09
4.31684e-09
1.74782e-09
6.50828e-10
2.17579e-10
6.29034e-11
1.47968e-11
2.54589e-12
2.60732e-13
1.01043e-14
4.93609e-17
7.85966e-06
7.80518e-06
7.70925e-06
7.58155e-06
7.42932e-06
7.25787e-06
7.07096e-06
6.87122e-06
6.65944e-06
6.43264e-06
6.19667e-06
5.95195e-06
5.6967e-06
5.42534e-06
5.1403e-06
4.83992e-06
4.52613e-06
4.20135e-06
3.86731e-06
3.52551e-06
3.17771e-06
2.82639e-06
2.47489e-06
2.12754e-06
1.78965e-06
1.46737e-06
1.16744e-06
8.96505e-07
6.60424e-07
4.63515e-07
3.07838e-07
1.92434e-07
1.12942e-07
6.22757e-08
3.2344e-08
1.58603e-08
7.34339e-09
3.19835e-09
1.29906e-09
4.84742e-10
1.62286e-10
4.69638e-11
1.10547e-11
1.90284e-12
1.94922e-13
7.55475e-15
3.69068e-17
5.43439e-06
5.39142e-06
5.31571e-06
5.2148e-06
5.09436e-06
4.95857e-06
4.81049e-06
4.65236e-06
4.48517e-06
4.3076e-06
4.12377e-06
3.93442e-06
3.73877e-06
3.53386e-06
3.32157e-06
3.10149e-06
2.87536e-06
2.64521e-06
2.41264e-06
2.17901e-06
1.94582e-06
1.71489e-06
1.4885e-06
1.26941e-06
1.06078e-06
8.66024e-07
6.88469e-07
5.30929e-07
3.95321e-07
2.82526e-07
1.92434e-07
1.23995e-07
7.51208e-08
4.26488e-08
2.26855e-08
1.13218e-08
5.30546e-09
2.3288e-09
9.50548e-10
3.55805e-10
1.19361e-10
3.4588e-11
8.14874e-12
1.40342e-12
1.43809e-13
5.57448e-15
2.72335e-17
3.53853e-06
3.50691e-06
3.4512e-06
3.37697e-06
3.28841e-06
3.18867e-06
3.08007e-06
2.9644e-06
2.84263e-06
2.71429e-06
2.58223e-06
2.4472e-06
2.30898e-06
2.1661e-06
2.01995e-06
1.87064e-06
1.71954e-06
1.56813e-06
1.4176e-06
1.26893e-06
1.12313e-06
9.81313e-07
8.44809e-07
7.15126e-07
5.93919e-07
4.82855e-07
3.83405e-07
2.96594e-07
2.22819e-07
1.61841e-07
1.12942e-07
7.51208e-08
4.72052e-08
2.78116e-08
1.52909e-08
7.83409e-09
3.74055e-09
1.66232e-09
6.83786e-10
2.57171e-10
8.65265e-11
2.512e-11
5.92516e-12
1.02122e-12
1.04688e-13
4.05874e-15
1.98292e-17
2.15203e-06
2.1306e-06
2.09288e-06
2.04266e-06
1.98286e-06
1.91566e-06
1.8427e-06
1.76529e-06
1.68419e-06
1.59936e-06
1.51264e-06
1.42464e-06
1.33536e-06
1.24413e-06
1.15187e-06
1.05884e-06
9.6592e-07
8.74075e-07
7.84039e-07
6.96401e-07
6.11717e-07
5.3058e-07
4.53646e-07
3.81646e-07
3.15346e-07
2.55475e-07
2.02617e-07
1.57077e-07
1.18807e-07
8.74169e-08
6.22757e-08
4.26488e-08
2.78116e-08
1.70854e-08
9.79274e-09
5.20295e-09
2.55495e-09
1.15771e-09
4.82143e-10
1.82693e-10
6.17413e-11
1.79724e-11
4.24616e-12
7.32564e-13
7.51385e-14
2.9138e-15
1.42362e-17
1.21561e-06
1.20237e-06
1.17909e-06
1.14815e-06
1.11139e-06
1.0702e-06
1.02563e-06
9.78533e-07
9.29448e-07
8.78444e-07
8.26631e-07
7.74415e-07
7.2186e-07
6.68668e-07
6.154e-07
5.62246e-07
5.09731e-07
4.58392e-07
4.08626e-07
3.60738e-07
3.14997e-07
2.71676e-07
2.31067e-07
1.93489e-07
1.59264e-07
1.28688e-07
1.01967e-07
7.91644e-08
6.01656e-08
4.46904e-08
3.2344e-08
2.26855e-08
1.52909e-08
9.79274e-09
5.88116e-09
3.27183e-09
1.67139e-09
7.80157e-10
3.31416e-10
1.27111e-10
4.32601e-11
1.26434e-11
2.99414e-12
5.17269e-13
5.30954e-14
2.05963e-15
1.00636e-17
6.36209e-07
6.28788e-07
6.15754e-07
5.98464e-07
5.77964e-07
5.55052e-07
5.30346e-07
5.04335e-07
4.77345e-07
4.49455e-07
4.21272e-07
3.93031e-07
3.64787e-07
3.36414e-07
3.0821e-07
2.80293e-07
2.52937e-07
2.26411e-07
2.00912e-07
1.7658e-07
1.53532e-07
1.31883e-07
1.11755e-07
9.32761e-08
7.65752e-08
6.17642e-08
4.89107e-08
3.80127e-08
2.89859e-08
2.16716e-08
1.58603e-08
1.13218e-08
7.83409e-09
5.20295e-09
3.27183e-09
1.91697e-09
1.03029e-09
5.0197e-10
2.20007e-10
8.60878e-11
2.96417e-11
8.71911e-12
2.07211e-12
3.58681e-13
3.68554e-14
1.43028e-15
6.98913e-18
3.08361e-07
3.04585e-07
2.9796e-07
2.89184e-07
2.78797e-07
2.67214e-07
2.54757e-07
2.4168e-07
2.28158e-07
2.14243e-07
2.00236e-07
1.86261e-07
1.72348e-07
1.58447e-07
1.44702e-07
1.31173e-07
1.17991e-07
1.05283e-07
9.31353e-08
8.16096e-08
7.07541e-08
6.06145e-08
5.12381e-08
4.26753e-08
3.49758e-08
2.81806e-08
2.23101e-08
1.73532e-08
1.32628e-08
9.95963e-09
7.34339e-09
5.30546e-09
3.74055e-09
2.55495e-09
1.67139e-09
1.03029e-09
5.86647e-10
3.02421e-10
1.38888e-10
5.61588e-11
1.97261e-11
5.86611e-12
1.40204e-12
2.4341e-13
2.50485e-14
9.72681e-16
4.75362e-18
1.38263e-07
1.36515e-07
1.3345e-07
1.29395e-07
1.24601e-07
1.19264e-07
1.13534e-07
1.07533e-07
1.01341e-07
9.49874e-08
8.86096e-08
8.22641e-08
7.59668e-08
6.96966e-08
6.35186e-08
5.74604e-08
5.15795e-08
4.59305e-08
4.05505e-08
3.54645e-08
3.06915e-08
2.6249e-08
2.21551e-08
1.84289e-08
1.50892e-08
1.21507e-08
9.61929e-09
7.48721e-09
5.73168e-09
4.31684e-09
3.19835e-09
2.3288e-09
1.66232e-09
1.15771e-09
7.80157e-10
5.0197e-10
3.02421e-10
1.66394e-10
8.14308e-11
3.46605e-11
1.26e-11
3.8207e-12
9.22227e-13
1.60876e-13
1.65928e-14
6.44908e-16
3.15231e-18
5.70911e-08
5.6355e-08
5.5065e-08
5.33591e-08
5.13446e-08
4.91041e-08
4.67017e-08
4.41885e-08
4.15997e-08
3.8948e-08
3.62906e-08
3.36514e-08
3.10372e-08
2.844e-08
2.58864e-08
2.3388e-08
2.09682e-08
1.86489e-08
1.6445e-08
1.43661e-08
1.24193e-08
1.06111e-08
8.94832e-09
7.43794e-09
6.08688e-09
4.90036e-09
3.87993e-09
3.02176e-09
2.31602e-09
1.74782e-09
1.29906e-09
9.50548e-10
6.83786e-10
4.82143e-10
3.31416e-10
2.20007e-10
1.38888e-10
8.14308e-11
4.29468e-11
1.96605e-11
7.56548e-12
2.37729e-12
5.84499e-13
1.02825e-13
1.06443e-14
4.1428e-16
2.02554e-18
2.14755e-08
2.11956e-08
2.0705e-08
2.00565e-08
1.92912e-08
1.84404e-08
1.75289e-08
1.6576e-08
1.55953e-08
1.45919e-08
1.35872e-08
1.25905e-08
1.16043e-08
1.06257e-08
9.66476e-09
8.72578e-09
7.8175e-09
6.94804e-09
6.12285e-09
5.34542e-09
4.61829e-09
3.94375e-09
3.32417e-09
2.76206e-09
2.25982e-09
1.81922e-09
1.44068e-09
1.1226e-09
8.61191e-10
6.50828e-10
4.84742e-10
3.55805e-10
2.57171e-10
1.82693e-10
1.27111e-10
8.60878e-11
5.61588e-11
3.46605e-11
1.96605e-11
9.82795e-12
4.11832e-12
1.379e-12
3.51575e-13
6.28774e-14
6.55156e-15
2.55563e-16
1.25005e-18
7.21138e-09
7.11682e-09
6.95114e-09
6.7322e-09
6.47384e-09
6.18675e-09
5.87926e-09
5.55798e-09
5.22746e-09
4.88944e-09
4.55122e-09
4.21583e-09
3.88417e-09
3.55531e-09
3.23256e-09
2.91741e-09
2.61278e-09
2.32135e-09
2.04494e-09
1.7847e-09
1.54146e-09
1.31595e-09
1.10895e-09
9.21273e-10
7.53694e-10
6.06777e-10
4.80623e-10
3.74667e-10
2.87617e-10
2.17579e-10
1.62286e-10
1.19361e-10
8.65265e-11
6.17413e-11
4.32601e-11
2.96417e-11
1.97261e-11
1.26e-11
7.56548e-12
4.11832e-12
1.91991e-12
7.12245e-13
1.94999e-13
3.61321e-14
3.81513e-15
1.49421e-16
7.31382e-19
2.08768e-09
2.06022e-09
2.01213e-09
1.94858e-09
1.8736e-09
1.79029e-09
1.70108e-09
1.60789e-09
1.51204e-09
1.41404e-09
1.316e-09
1.21881e-09
1.12273e-09
1.02749e-09
9.34042e-10
8.4283e-10
7.54689e-10
6.70397e-10
5.90474e-10
5.15249e-10
4.44959e-10
3.79815e-10
3.20038e-10
2.65859e-10
2.17499e-10
1.75117e-10
1.38736e-10
1.08187e-10
8.30926e-11
6.29034e-11
4.69638e-11
3.4588e-11
2.512e-11
1.79724e-11
1.26434e-11
8.71911e-12
5.86611e-12
3.8207e-12
2.37729e-12
1.379e-12
7.12245e-13
3.02229e-13
9.39692e-14
1.88484e-14
2.05408e-15
8.113e-17
3.9763e-19
4.91058e-10
4.84594e-10
4.73269e-10
4.58304e-10
4.40649e-10
4.21035e-10
4.00032e-10
3.78093e-10
3.5553e-10
3.32464e-10
3.09392e-10
2.86522e-10
2.63914e-10
2.41508e-10
2.19527e-10
1.98075e-10
1.77348e-10
1.57528e-10
1.38738e-10
1.21055e-10
1.04535e-10
8.92261e-11
7.51808e-11
6.24529e-11
5.10942e-11
4.11413e-11
3.25991e-11
2.54272e-11
1.95363e-11
1.47968e-11
1.10547e-11
8.14874e-12
5.92516e-12
4.24616e-12
2.99414e-12
2.07211e-12
1.40204e-12
9.22227e-13
5.84499e-13
3.51575e-13
1.94999e-13
9.39692e-14
3.49195e-14
8.25161e-15
9.78723e-16
3.95377e-17
1.94329e-19
8.44464e-11
8.33342e-11
8.1386e-11
7.88117e-11
7.57745e-11
7.24004e-11
6.87874e-11
6.50136e-11
6.11325e-11
5.71651e-11
5.31966e-11
4.92631e-11
4.53748e-11
4.15215e-11
3.77415e-11
3.40524e-11
3.04882e-11
2.70803e-11
2.38497e-11
2.08094e-11
1.79692e-11
1.53375e-11
1.29231e-11
1.07354e-11
8.78314e-12
7.0727e-12
5.60481e-12
4.37247e-12
3.36027e-12
2.54589e-12
1.90284e-12
1.40342e-12
1.02122e-12
7.32564e-13
5.17269e-13
3.58681e-13
2.4341e-13
1.60876e-13
1.02825e-13
6.28774e-14
3.61321e-14
1.88484e-14
8.25161e-15
2.5126e-15
3.71082e-16
1.62173e-17
8.04024e-20
8.64408e-12
8.53024e-12
8.3308e-12
8.06728e-12
7.75637e-12
7.41098e-12
7.04113e-12
6.65481e-12
6.25751e-12
5.85138e-12
5.44515e-12
5.04249e-12
4.64447e-12
4.25002e-12
3.86309e-12
3.48547e-12
3.12064e-12
2.7718e-12
2.44112e-12
2.12993e-12
1.83921e-12
1.56985e-12
1.32273e-12
1.09882e-12
8.99024e-13
7.23978e-13
5.73761e-13
4.47652e-13
3.44071e-13
2.60732e-13
1.94922e-13
1.43809e-13
1.04688e-13
7.51385e-14
5.30954e-14
3.68554e-14
2.50485e-14
1.65928e-14
1.06443e-14
6.55156e-15
3.81513e-15
2.05408e-15
9.78723e-16
3.71082e-16
8.14588e-17
4.79141e-18
2.48962e-20
3.34888e-13
3.30478e-13
3.22752e-13
3.12543e-13
3.00498e-13
2.87117e-13
2.72789e-13
2.57823e-13
2.42431e-13
2.26697e-13
2.10959e-13
1.95359e-13
1.79939e-13
1.64657e-13
1.49667e-13
1.35037e-13
1.20902e-13
1.07388e-13
9.45762e-14
8.25199e-14
7.12569e-14
6.0821e-14
5.12472e-14
4.25725e-14
3.48321e-14
2.80506e-14
2.22312e-14
1.73457e-14
1.33329e-14
1.01043e-14
7.55475e-15
5.57448e-15
4.05874e-15
2.9138e-15
2.05963e-15
1.43028e-15
9.72681e-16
6.44908e-16
4.1428e-16
2.55563e-16
1.49421e-16
8.113e-17
3.95377e-17
1.62173e-17
4.79141e-18
5.69405e-19
4.28934e-21
1.63575e-15
1.61421e-15
1.57648e-15
1.52661e-15
1.46779e-15
1.40243e-15
1.33245e-15
1.25935e-15
1.18417e-15
1.10732e-15
1.03045e-15
9.54256e-16
8.78937e-16
8.04294e-16
7.31072e-16
6.59613e-16
5.90572e-16
5.24558e-16
4.61979e-16
4.03088e-16
3.48073e-16
2.97097e-16
2.50332e-16
2.07959e-16
1.70149e-16
1.37024e-16
1.08597e-16
8.47331e-17
6.51319e-17
4.93609e-17
3.69068e-17
2.72335e-17
1.98292e-17
1.42362e-17
1.00636e-17
6.98913e-18
4.75362e-18
3.15231e-18
2.02554e-18
1.25005e-18
7.31382e-19
3.9763e-19
1.94329e-19
8.04024e-20
2.48962e-20
4.28934e-21
2.35442e-22
)
;

boundaryField
{
    inflow
    {
        type            cyclic;
    }
    outflow
    {
        type            cyclic;
    }
    wallTop
    {
        type            nutLowReWallFunction;
        Cmu             0.09;
        kappa           0.41;
        E               9.8;
        value           uniform 0;
    }
    wallSide
    {
        type            nutLowReWallFunction;
        Cmu             0.09;
        kappa           0.41;
        E               9.8;
        value           uniform 0;
    }
    symmetryBottom
    {
        type            symmetry;
    }
    symmetrySide
    {
        type            symmetry;
    }
}


// ************************************************************************* //
