/*--------------------------------*- C++ -*----------------------------------*\
  =========                 |
  \\      /  F ield         | OpenFOAM: The Open Source CFD Toolbox
   \\    /   O peration     | Website:  https://openfoam.org
    \\  /    A nd           | Version:  7
     \\/     M anipulation  |
\*---------------------------------------------------------------------------*/
FoamFile
{
    version     2.0;
    format      ascii;
    class       volVectorField;
    location    "334";
    object      wallShearStress;
}
// * * * * * * * * * * * * * * * * * * * * * * * * * * * * * * * * * * * * * //

dimensions      [0 2 -2 0 0 0 0];

internalField   uniform (0 0 0);

boundaryField
{
    inflow
    {
        type            cyclic;
    }
    outflow
    {
        type            cyclic;
    }
    wallTop
    {
        type            calculated;
        value           nonuniform List<vector> 
47
(
(-8.18125 2.53221e-18 -3.32484e-17)
(-8.14264 1.74896e-16 1.31374e-16)
(-8.07392 3.27127e-16 1.30519e-16)
(-7.98064 3.92344e-18 -5.44937e-17)
(-7.86674 1.32855e-17 -7.05613e-17)
(-7.73503 -1.28413e-16 -6.22244e-17)
(-7.58752 -1.64132e-16 -7.67638e-17)
(-7.42582 -1.34363e-16 -9.59878e-17)
(-7.251 -1.44711e-16 -1.14531e-16)
(-7.06368 -1.12314e-16 -1.04606e-16)
(-6.86518 -1.47312e-16 -7.21514e-17)
(-6.65622 -1.16164e-16 -6.92689e-17)
(-6.4369 -1.27274e-16 -4.76534e-17)
(-6.20722 -1.00584e-16 -4.94938e-17)
(-5.96787 -9.42089e-17 -3.32493e-17)
(-5.71961 -8.43676e-17 -5.98004e-17)
(-5.46367 -1.00969e-16 -6.35949e-17)
(-5.20143 -1.04707e-16 -4.60766e-17)
(-4.93429 -1.11916e-16 -5.28212e-17)
(-4.66383 -1.24176e-16 -3.88473e-17)
(-4.39161 -1.2446e-16 -1.43102e-17)
(-4.11945 -1.32738e-16 8.73161e-18)
(-3.84931 -1.1773e-16 2.11976e-17)
(-3.58314 -1.11733e-16 3.31077e-17)
(-3.32301 -9.33919e-17 3.32907e-17)
(-3.07078 -8.62638e-17 3.14077e-17)
(-2.82808 -7.55664e-17 3.02042e-17)
(-2.5961 -7.2616e-17 3.27079e-17)
(-2.37569 -6.66921e-17 3.74804e-17)
(-2.16725 -6.25542e-17 4.00064e-17)
(-1.97083 -5.38768e-17 3.97654e-17)
(-1.78625 -4.50182e-17 3.40269e-17)
(-1.6131 -3.53586e-17 2.69145e-17)
(-1.45086 -2.73089e-17 1.76474e-17)
(-1.29894 -1.99656e-17 7.83052e-18)
(-1.15672 -1.42386e-17 -1.03695e-18)
(-1.02356 -9.7708e-18 -7.82094e-18)
(-0.898829 -7.00583e-18 -1.24955e-17)
(-0.781902 -4.83072e-18 -1.57885e-17)
(-0.67217 -3.08081e-18 -1.72567e-17)
(-0.569021 -1.67514e-18 -1.73223e-17)
(-0.471837 -4.74973e-19 -1.65252e-17)
(-0.379976 8.94162e-19 -1.48184e-17)
(-0.292719 2.15385e-18 -1.23414e-17)
(-0.209176 3.28605e-18 -9.2574e-18)
(-0.127988 3.78099e-18 -5.2831e-18)
(-0.0464667 2.49067e-18 -1.26078e-18)
)
;
    }
    wallSide
    {
        type            calculated;
        value           nonuniform List<vector> 
47
(
(-8.18125 8.01653e-17 -2.02818e-17)
(-8.14264 -4.59856e-17 -2.50707e-17)
(-8.07392 -1.22259e-16 -1.21983e-17)
(-7.98064 -2.45742e-17 -1.07876e-17)
(-7.86674 -4.33671e-17 3.0235e-18)
(-7.73503 -7.03577e-17 9.10906e-18)
(-7.58752 -7.06734e-17 4.36392e-18)
(-7.42582 -4.17522e-17 2.10436e-18)
(-7.251 2.8367e-20 -1.39621e-19)
(-7.06368 2.02309e-17 -1.82381e-18)
(-6.86518 4.75994e-18 -5.16107e-18)
(-6.65622 -1.56401e-17 -2.70189e-18)
(-6.4369 -4.74991e-17 2.61177e-18)
(-6.20722 -4.02219e-17 1.80038e-18)
(-5.96787 -6.203e-17 3.94299e-19)
(-5.71961 -4.95032e-17 2.71393e-18)
(-5.46367 -5.34877e-17 1.85914e-18)
(-5.20143 -7.17258e-17 2.08509e-18)
(-4.93429 -6.65855e-17 1.83251e-18)
(-4.66383 -6.63223e-17 -1.39768e-19)
(-4.39161 -6.47346e-17 -3.06018e-18)
(-4.11945 -5.80928e-17 -2.63616e-18)
(-3.84931 -4.95466e-17 -4.1305e-18)
(-3.58314 -5.2019e-17 -3.67498e-18)
(-3.32301 -4.80805e-17 -2.8549e-18)
(-3.07078 -4.6246e-17 -4.46052e-18)
(-2.82808 -4.50942e-17 -3.64096e-18)
(-2.5961 -4.54716e-17 -3.36747e-18)
(-2.37569 -4.47045e-17 -2.86279e-18)
(-2.16725 -4.31224e-17 -3.40921e-18)
(-1.97083 -4.03428e-17 -3.26169e-18)
(-1.78625 -3.68444e-17 -4.14122e-18)
(-1.6131 -3.50064e-17 -5.10213e-18)
(-1.45086 -3.30202e-17 -5.23801e-18)
(-1.29894 -3.04955e-17 -5.87778e-18)
(-1.15672 -2.76501e-17 -6.77648e-18)
(-1.02356 -2.50584e-17 -7.75499e-18)
(-0.898829 -2.21736e-17 -8.32711e-18)
(-0.781902 -1.85364e-17 -8.73698e-18)
(-0.67217 -1.48197e-17 -9.02174e-18)
(-0.569021 -1.11974e-17 -8.97968e-18)
(-0.471837 -7.46402e-18 -8.69846e-18)
(-0.379976 -4.08346e-18 -8.34712e-18)
(-0.292719 -1.43942e-18 -7.99593e-18)
(-0.209176 1.90265e-19 -7.4479e-18)
(-0.127988 3.85954e-19 -6.14561e-18)
(-0.0464667 -6.76847e-19 -3.02982e-18)
)
;
    }
    symmetryBottom
    {
        type            symmetry;
    }
    symmetrySide
    {
        type            symmetry;
    }
}


// ************************************************************************* //
