/*--------------------------------*- C++ -*----------------------------------*\
  =========                 |
  \\      /  F ield         | OpenFOAM: The Open Source CFD Toolbox
   \\    /   O peration     | Website:  https://openfoam.org
    \\  /    A nd           | Version:  7
     \\/     M anipulation  |
\*---------------------------------------------------------------------------*/
FoamFile
{
    version     2.0;
    format      ascii;
    class       volScalarField;
    location    "20000";
    object      Cx;
}
// * * * * * * * * * * * * * * * * * * * * * * * * * * * * * * * * * * * * * //

dimensions      [0 1 0 0 0 0 0];

internalField   nonuniform List<scalar> 
15600
(
0.0348279109254663
0.104483732776399
0.174146470907575
0.243790147082894
0.313292977228853
0.382443561504889
0.450893848437823
0.518219266644015
0.584151231861435
0.648698065360056
0.712017874316546
0.774328339291464
0.835852788638985
0.896809486736439
0.957415301672697
1.01788702231284
1.07843609198226
1.1392044561253
1.20021800010992
1.26145023819605
1.32287270251809
1.38445690588327
1.44617471401484
1.50799807001953
1.56989899339425
1.63185631812391
1.69389137540461
1.7560759098146
1.8184942492834
1.88122873168277
1.94436007839598
2.00796619454038
2.07212508618303
2.13690416706771
2.20234023531496
2.26843474555737
2.33515354218899
2.4024529080104
2.4702848417441
2.53859304895095
2.60731451681829
2.67637806332899
2.74570862733127
2.81522338992341
2.88483834832266
2.95449058316147
3.02414640501241
3.09380222686334
3.16345804871427
3.23311387056521
3.30276969241614
3.37242551426707
3.44208133611801
3.51173715796894
3.58139297981987
3.65104880167081
3.72070462352174
3.79036044537267
3.86001626722361
3.92967208907454
3.99932791092548
4.06898373277641
4.13863955462734
4.20829537647827
4.27795119832921
4.34760702018014
4.41726284203107
4.486918663882
4.55657448573293
4.62623030758387
4.6958861294348
4.76554195128573
4.83519777313666
4.9048535949876
4.97450941683853
5.04416154186633
5.1137761327797
5.18329000480604
5.25261924175644
5.32168093982877
5.39039986298933
5.45870536420947
5.52653416988835
5.59383009705193
5.66054510862564
5.72663558360055
5.79206788270964
5.85684284021379
5.92099793547091
5.984601087189
6.04772987599969
6.11046223567293
6.17287876644184
6.23506202090633
6.29709647750359
6.35905346905544
6.42095400946374
6.48277681975119
6.54449391816712
6.60607724626467
6.66749866794938
6.72872952114762
6.78974148466914
6.85050833678024
6.91105645908007
6.97152844138137
7.03213582215044
7.093095372603
7.15462392100146
7.21693971789769
7.28026604300068
7.34482134510429
7.41076230780836
7.47809567619712
7.54655167450092
7.6157051950161
7.68520951765363
7.75485362654305
7.82451626722364
7.89417208907454
0.0348207661718193
0.104462298515458
0.174110764647285
0.243740335018193
0.31322965397382
0.382368171881958
0.450809209758949
0.518129855362218
0.584062539298575
0.648615553270704
0.711946390976054
0.774271878321307
0.83581446435738
0.896791549719924
0.957419141503018
1.01791316631706
1.07848422587288
1.13927370682042
1.20030739584273
1.26155891214701
1.32299990073967
1.38460198751024
1.44633714993882
1.50817744265406
1.57009499643026
1.63206872882592
1.6941198826602
1.75631991530673
1.81875281825088
1.88150060079874
1.94464366214276
2.00825959637048
2.0724260981116
2.13721031172731
2.20264888970287
2.26874328263209
2.33545947102457
2.4027539121178
2.47057879598673
2.53887805279921
2.60758892107238
2.67664050281893
2.74595803636116
2.81545903326932
2.88505982885493
2.95469778101724
3.02433931336088
3.09398084570452
3.16362237804816
3.2332639103918
3.30290544273543
3.37254697507907
3.44218850742271
3.51183003976635
3.58147157210999
3.65111310445363
3.72075463679727
3.7903961691409
3.86003770148455
3.92967923382819
3.99932076617183
4.06896229851547
4.13860383085911
4.20824536320274
4.27788689554638
4.34752842789002
4.41716996023366
4.4868114925773
4.55645302492093
4.62609455726457
4.69573608960821
4.76537762195185
4.83501915429549
4.90466068663913
4.97430221898277
5.04394006162232
5.11354049109741
5.1830406009949
5.25235681278137
5.32140655346731
5.39011488718943
5.45841144881172
5.52623321711058
5.59352423326382
5.6602366517052
5.72632702546244
5.79176184934035
5.85654195605115
5.92070467656414
5.98431765820831
6.04745817186927
6.1102038401732
6.1726349416491
6.23483369946494
6.29688425502502
6.35885765556737
6.4207748278865
6.48261457704119
6.5443490325627
6.60595024753198
6.66739019761817
6.72864033453262
6.78967244935584
6.85046042426658
6.91103054025204
6.97152482572538
7.03215397714895
7.09313390356285
7.15468057240516
7.21701137056858
7.28034869867348
7.34491014776885
7.41085179378142
7.4781803581105
7.54662708450198
7.61576852673052
7.68525933194065
7.75488933310471
7.82453770148451
7.89417923382818
0.0348133596852608
0.104440079055783
0.174073750363682
0.24368869819386
0.313164011004613
0.382290020517622
0.450721470517475
0.518037168683717
0.583970597670668
0.648530018528789
0.71187228900046
0.774213349029027
0.835774736151205
0.896772955620663
0.957423121997075
1.01794026805002
1.07853412304533
1.13934549436782
1.20040006640005
1.26167156714077
1.32313175860306
1.38475238390117
1.44650553636615
1.50836338623382
1.57029817963231
1.63228892075531
1.69435676080752
1.75657285943677
1.81902085935923
1.88178242927892
1.94493763439459
2.00856374637
2.07273813698859
2.13752767136069
2.20296885100141
2.269063122318
2.33577660692211
2.40306594287833
2.47088351862398
2.53917349716194
2.60787337754617
2.67691255622399
2.74621658196242
2.81570330890979
2.88528942285719
2.95491256912744
3.02453928849796
3.09416600786848
3.163792727239
3.23341944660952
3.30304616598005
3.37267288535057
3.44229960472109
3.51192632409161
3.58155304346213
3.65117976283266
3.72080648220318
3.7904332015737
3.86005992094422
3.92968664031475
3.99931335968527
4.06894007905579
4.13856679842631
4.20819351779683
4.27782023716735
4.34744695653788
4.4170736759084
4.48670039527892
4.55632711464944
4.62595383401996
4.69558055339049
4.76520727276101
4.83483399213153
4.90446071150205
4.97408743087257
5.04371046791888
5.11329621718152
5.18278206080357
5.25208477027637
5.32112211554161
5.38981947190254
5.45810676644232
5.52592123956003
5.59320716479662
5.65991689510986
5.7260071639396
5.79144460507416
5.85623004962053
5.92040067472362
5.98402384639211
6.04717651441855
6.10993597888723
6.17238218483799
6.23459701393873
6.29666425821424
6.35865466885693
6.42058908236305
6.48244639090582
6.54419883937521
6.60581859646538
6.66727775370335
6.72854788075367
6.78960088508031
6.8504107565808
6.91100367194412
6.97152107761778
7.03217279721548
7.0931738460185
7.1547392991071
7.21708564807761
7.28043438225874
7.34500220353182
7.41094455788735
7.4782681421703
7.54670525699094
7.61583417846902
7.6853109710687
7.7549263477006
7.82455992094422
7.89418664031474
0.0348056818777734
0.10441704563332
0.174035380140314
0.243635169763712
0.313095963343476
0.382209006241303
0.450630517130709
0.51794108662118
0.583875287955203
0.64844135040621
0.711795472462133
0.774152675646558
0.835733552591038
0.896753680367997
0.957427248307746
1.01796836259593
1.07858584809349
1.13941991169962
1.2004961317481
1.2617883490144
1.32326844680443
1.38490828975141
1.44668009128115
1.50855614147179
1.57050880603099
1.63251717896132
1.69460231649699
1.75683506965334
1.81929871960087
1.88207458196414
1.94524237571299
2.00887903827596
2.0730616067634
2.13785665680507
2.20330053341555
2.26939467866244
2.33610536042856
2.40338940422992
2.47119940413294
2.53947976450493
2.60816825448102
2.67719457572914
2.74648459883352
2.81595653307019
2.88552742754879
2.95513522554458
3.02474658930012
3.09435795305567
3.16396931681121
3.23358068056676
3.30319204432231
3.37280340807785
3.4424147718334
3.51202613558895
3.5816374993445
3.65124886310004
3.72086022685559
3.79047159061114
3.86008295436668
3.92969431812223
3.99930568187778
4.06891704563333
4.13852840938887
4.20813977314442
4.27775113689997
4.34736250065551
4.41697386441106
4.48658522816661
4.55619659192216
4.6258079556777
4.69541931943325
4.7650306831888
4.83464204694434
4.90425341069989
4.97386477445543
5.04347246353704
5.11304299480887
5.18251404954058
5.25180276207057
5.3208272578343
5.38951323470052
5.45779092267635
5.52559783336762
5.59287848119066
5.65958542489981
5.7256755849562
5.79111573922319
5.85590671714398
5.92008553640415
5.98371927138657
6.04688453902808
6.10965830505541
6.17212016880237
6.23435165792664
6.2964362022746
6.35844424614797
6.42039653243676
6.48227204362007
6.54404314417236
6.60568212263634
6.6671611906411
6.72845204012525
6.78952669919952
6.85035926942603
6.91097581937428
6.97151719220653
7.03219230671322
7.09321525167667
7.15480017713091
7.21716264657966
7.28052320467722
7.34509763156349
7.41104072021371
7.47835914201719
7.54678629316574
7.61590223522066
7.68536450188701
7.7549647182477
7.82458295436668
7.89419431812223
0.0347977228101042
0.104393168430313
0.173995604305252
0.243579680432862
0.313025422899645
0.382125024176247
0.450536231855117
0.517841484791758
0.583776486769524
0.648349434118604
0.711715841919413
0.774089779630264
0.835690860363492
0.896733699009482
0.95743152577669
1.01799748632423
1.07863946797755
1.13949705515218
1.20059571624775
1.26190940894744
1.3234101422931
1.3850699068885
1.44686104065358
1.508755957899
1.57072714829242
1.63275379893541
1.69485686761252
1.75710688540053
1.81958675867959
1.88237743706046
1.94555828060054
2.0092058802491
2.07339692618329
2.13819769394781
2.20364436632384
2.26973838088046
2.33644615713041
2.40372471490789
2.47152686144146
2.53979725130474
2.60847393360799
2.67748692642084
2.74676243393386
2.81621903356009
2.88577415103708
2.95536603850698
3.02496148412719
3.0945569297474
3.16415237536761
3.23374782098781
3.30334326660802
3.37293871222823
3.44253415784844
3.51212960346865
3.58172504908886
3.65132049470907
3.72091594032927
3.79051138594948
3.86010683156969
3.9297022771899
3.99929772281011
4.06889316843032
4.13848861405053
4.20808405967073
4.27767950529094
4.34727495091115
4.41687039653136
4.48646584215157
4.55606128777178
4.62565673339199
4.6952521790122
4.7648476246324
4.83444307025261
4.90403851587282
4.97363396149303
5.04322574036987
5.11278049617221
5.18223622025378
5.25151042309215
5.32052159863924
5.38919577914582
5.45746350863998
5.52526257986948
5.59253775694995
5.65924181197151
5.72533185926763
5.79077482605491
5.85557154005196
5.91975885364382
5.9834035389044
6.04658186772135
6.10937045921521
6.17184855434957
6.23409731380326
6.29619979197652
6.35822611503797
6.42019692884241
6.48209130948295
6.54388174539931
6.6055406493731
6.66704035753516
6.72835268857735
6.78944979567665
6.85030589615012
6.91094694648629
6.97151316446184
7.03221253089785
7.09325817413827
7.15486328528511
7.21724246575197
7.28061528091306
7.34519655539964
7.41114040524727
7.47845347545488
7.54687029793145
7.615972785088
7.68541999369345
7.75500449441841
7.82460683156969
7.8942022771899
0.0347894721788985
0.104368416536696
0.173954371366916
0.243522158368025
0.312952298355402
0.382037965603783
0.450438492633843
0.517738234256133
0.58367406621113
0.648254150676759
0.71163329428784
0.774024579559295
0.835646604202157
0.89671298567864
0.957435959941222
1.01802767693666
1.07869505211059
1.13957702459103
1.20069894881561
1.26203490365749
1.32355702850053
1.38523744453351
1.44704861873114
1.50896309418749
1.57095348907138
1.63299908699371
1.69512074368309
1.75738865855722
1.81988534947623
1.88269138662875
1.94588575801164
2.00954469540233
2.07374452933545
2.13855122427777
2.20400079483413
2.27009467391055
2.33679943820452
2.404072308987
2.47186631445756
2.54012636856197
2.608790810642
2.67778998675968
2.74705044693291
2.81649115019763
2.88602991271619
2.95560530681194
3.02518425116974
3.09476319552754
3.16434213988534
3.23392108424313
3.30350002860093
3.37307897295873
3.44265791731653
3.51223686167432
3.58181580603212
3.65139475038992
3.72097369474771
3.79055263910551
3.86013158346331
3.92971052782111
3.99928947217891
4.0688684165367
4.1384473608945
4.20802630525229
4.27760524961009
4.34718419396789
4.41676313832569
4.48634208268348
4.55592102704128
4.62549997139908
4.69507891575688
4.76465786011467
4.83423680447247
4.90381574883027
4.97339469318807
5.04296997902364
5.1125083814558
5.18194821328124
5.25120737489568
5.32020474226729
5.38886669427829
5.45712410048118
5.52491504506484
5.59218455099142
5.65888561150208
5.72497554190481
5.79042142424094
5.85522408444155
5.91942020353583
5.98307624021437
6.0462681086754
6.10907206873601
6.17156698986127
6.23383365230759
6.29595472127524
6.35799999314557
6.41999001318349
6.48190395452541
6.54371443411761
6.60539399353188
6.66691509796154
6.72824969749498
6.78937007495683
6.85025056765919
6.9109170159032
6.97150898916964
7.03223349595021
7.09330266896778
7.15492870526518
7.21732520892317
7.28071073016251
7.3452991031016
7.41124374203504
7.47855126460256
7.54695738003619
7.61604591940096
7.68547751832461
7.75504572770462
7.82463158346331
7.8942105278211
0.0347809193033618
0.104342757910085
0.17391162794754
0.243462529104277
0.312876495047768
0.381947717822539
0.450337172938751
0.517631201351546
0.583567893692108
0.648155376732587
0.711547722706714
0.773956991030155
0.835600726816129
0.896691513561408
0.957440556541527
1.01805897351606
1.07875267244847
1.13965992354002
1.20080596309078
1.26216499560326
1.32370929557782
1.38541111957192
1.44724306834267
1.50917781848525
1.57118812137701
1.6332533606737
1.69539428630926
1.75768075389268
1.82019487853131
1.88301683709219
1.94622523188192
2.00989592234839
2.07410486620898
2.13891770545684
2.20437028035989
2.2704640189905
2.33716566098935
2.40443263644338
2.4722182026182
2.54046754233327
2.60911929579407
2.67810414907026
2.74734901067579
2.81677323524941
2.88629504368053
2.95585334020251
3.02541517880923
3.09497701741596
3.16453885602268
3.2341006946294
3.30366253323613
3.37322437184285
3.44278621044958
3.5123480490563
3.58190988766302
3.65147172626974
3.72103356487647
3.79059540348319
3.86015724208992
3.92971908069664
3.99928091930337
4.06884275791009
4.13840459651681
4.20796643512354
4.27752827373026
4.34709011233699
4.41665195094371
4.48621378955043
4.55577562815716
4.62533746676388
4.69489930537061
4.76446114397733
4.83402298258405
4.90358482119078
4.9731466597975
5.04270484840437
5.11222629839554
5.18164965578563
5.25089322517227
5.31987627853417
5.38852555408319
5.45677225882109
5.5245547790543
5.59181840607386
5.65851636237353
5.72460617159816
5.79005507628576
5.85486390051464
5.91906914768107
5.98273695161226
6.04594285571367
6.10876274733658
6.17127511083834
6.23356033211683
6.29570067291473
6.35776558774496
6.41977551759757
6.48170973620745
6.54354099373491
6.60524196525981
6.66678524976593
6.72814293355158
6.78928743383819
6.85019321232834
6.91088598887873
6.97150466092489
7.03225522901019
7.09334879376503
7.15499652175932
7.2174109832071
7.28080967598831
7.34540540742185
7.41135086435147
7.478652636053
7.5470476522117
7.61612173283523
7.68553715024861
7.75508847148468
7.82465724208992
7.89421908069664
0.0347720531114332
0.1043161593343
0.173867318713954
0.24340071544913
0.312797914845956
0.381854164002608
0.450232141606622
0.517520247518771
0.583457831767467
0.64805298441945
0.711459016400799
0.773886926547451
0.83555316881579
0.896669254861485
0.957445321528051
1.01809141657699
1.07881240358299
1.13974585931533
1.20091689760803
1.26229985319472
1.32386714064181
1.38559115683435
1.44744464121255
1.50940040876334
1.57143134895233
1.6335169491451
1.69567784960543
1.75798354953877
1.82051574654552
1.88335420976252
1.94657714167698
2.01026001576772
2.07447840327737
2.1392976119124
2.20475330121749
2.27084689425458
2.33754529957695
2.40480616373704
2.47258298145812
2.54082121428297
2.60945981430239
2.67842982004913
2.74765851166596
2.81706565388647
2.88656988715341
2.95611045976844
3.0256545659913
3.09519867221417
3.16474277843704
3.2342868846599
3.30383099088277
3.37337509710564
3.4429192033285
3.51246330955137
3.58200741577424
3.6515515219971
3.72109562821997
3.79063973444284
3.8601838406657
3.92972794688857
3.99927205311144
4.06881615933431
4.13836026555717
4.20790437178004
4.27744847800291
4.34699258422577
4.41653669044864
4.48608079667151
4.55562490289437
4.62516900911724
4.69471311534011
4.76425722156297
4.83380132778584
4.9033454340087
4.97288954023157
5.04243000528921
5.11193388182294
5.18134016127158
5.25056756724167
5.31953578222945
5.38817191693969
5.45640752818516
5.5241813154574
5.59143884820603
5.6581335865758
5.72422327018046
5.78967530793446
5.85449052199574
5.91870523162062
5.98238523387227
6.04560568778014
6.10844209458505
6.17097253942895
6.23327699940452
6.2954373180169
6.35752259538684
6.41955316440974
6.4815084031041
6.54336119972432
6.60508436774916
6.66665064485394
6.72803225853652
6.7892017653383
6.8501337559088
6.91085382524732
6.97150017412453
7.03227775821191
7.09339660823996
7.155066822558
7.21749989964141
7.28091224647965
7.34551560597599
7.41146191087151
7.47875772103642
7.54714123131962
7.61620032353448
7.68559896666158
7.7551327810921
7.82468384066571
7.89422794688857
0.0347628621254524
0.104288586376357
0.173821386305972
0.243336637382002
0.312716456024564
0.381757183034183
0.450123262669307
0.517405229122785
0.583343737957236
0.647946841186617
0.711367060536876
0.773814295410658
0.83550386863594
0.896646180764336
0.957450261069219
1.01812504811811
1.07887432283845
1.13983494316443
1.20103189597699
1.26243965101117
1.32403076803033
1.38577778938758
1.44765359828659
1.50963115317567
1.57168348666732
1.63379019363618
1.6959718006583
1.75829743747943
1.82084836889838
1.8837039413853
1.94694194296138
2.01063744699705
2.07486562410241
2.13969143545143
2.2051503532454
2.27124379535249
2.33793884542667
2.40519337441575
2.47296112319957
2.54118784225472
2.60981280698275
2.67876742129122
2.74797935056555
2.8173687846571
2.8868547989313
2.95637699836188
3.02590272261279
3.09542844686369
3.1649541711146
3.2344798953655
3.30400561961641
3.37353134386731
3.44305706811822
3.51258279236912
3.58210851662003
3.65163424087093
3.72115996512184
3.79068568937274
3.86021141362365
3.92973713787455
3.99926286212546
4.06878858637636
4.13831431062727
4.20784003487817
4.27736575912908
4.34689148337998
4.41641720763089
4.48594293188179
4.5554686561327
4.6249943803836
4.69452010463451
4.76404582888541
4.83357155313632
4.90309727738722
4.97262300163812
5.04214509388213
5.1116307531924
5.18101932908535
5.25022997952585
5.31918281256604
5.38780532504917
5.45602943641353
5.52379417080884
5.59104538603305
5.65773678858796
5.72382634196787
5.78928162755882
5.8541034655283
5.91832798424734
5.98202063167847
6.04525616839424
6.10810969538058
6.17065888393943
6.23298328738248
6.29516431565591
6.35727070150575
6.41932266577298
6.48129969457995
6.54317481933395
6.60492099698257
6.66651110897334
6.72791752917607
6.78911295855569
6.85007212143195
6.91082048337197
6.97149552296026
7.03230111272009
7.09344617428976
7.15513969866768
7.21759207333133
7.28101857441784
7.34562984142091
7.41157702535018
7.47886665559043
7.54723823850226
7.61628179323805
7.68566304758741
7.75517871388768
7.82471141362365
7.89423713787455
0.0347533344473014
0.104260003341904
0.173773771262113
0.243270211951235
0.312632013131387
0.38165664937101
0.450010395177786
0.517285997266765
0.583225464562019
0.647836809627691
0.711271736075143
0.773739003596673
0.835452762456134
0.896622261399862
0.957455381559425
1.01815991167666
1.07893851037173
1.1399272904101
1.20115110706809
1.26258457002729
1.32420038956671
1.38597125883634
1.44787021006978
1.50987035043208
1.5719448609266
1.63407344787534
1.69627652000203
1.75862282405813
1.82119317618602
1.88406648470545
1.94732010798835
2.01102870463955
2.07526702996017
2.14009968589731
2.20556195044608
2.27165523609096
2.33834680800142
2.40559476974092
2.47335311736359
2.54156790086427
2.61017873079926
2.67911738983559
2.748311942714
2.81768301997679
2.88715014784448
2.95665330102826
3.02615996992286
3.09566663881746
3.16517330771207
3.23467997660667
3.30418664550127
3.37369331439588
3.44319998329048
3.51270665218508
3.58221332107969
3.65171998997429
3.72122665886889
3.79073332776349
3.8602399966581
3.92974666555271
3.99925333444731
4.06876000334191
4.13826667223652
4.20777334113112
4.27728001002572
4.34678667892032
4.41629334781493
4.48580001670953
4.55530668560413
4.62481335449873
4.69432002339334
4.76382669228794
4.83333336118254
4.90284003007714
4.97234669897175
5.04184974535336
5.11131652009119
5.18068674389619
5.24988002500323
5.31881691260965
5.38742530384259
5.45563749404988
5.52339284393267
5.59063751020034
5.65732545473676
5.72341487311821
5.78887352552083
5.85370223004902
5.91793691719607
5.98164267303537
6.04489384508585
6.10776511941592
6.17033373832724
6.232678815826
6.29488131241677
6.35700958001275
6.41908372329562
6.48108334045176
6.54298161128552
6.60475164146898
6.66636646148855
6.72779859694805
6.78902089852628
6.85000822910951
6.91078592009049
6.97149070141099
7.03232532276781
7.09349755607903
7.15521524442859
7.21768762359863
7.28112879744847
7.34574826163933
7.41169635680868
7.47897958073605
7.54733879934002
7.6163662474119
7.68572947598172
7.75522632933328
7.8247399966581
7.8942466655527
0.0347434577430026
0.104230373229008
0.173724411942797
0.243201353166194
0.3125444768515
0.381552432867602
0.449893393019641
0.51716239759939
0.583102858471769
0.647722747302747
0.711172919615066
0.77366095363813
0.835399784118035
0.896597465803771
0.957460689627304
1.01819605238472
1.07900504927603
1.14002302059971
1.20127468520535
1.26273479784732
1.32437622483393
1.38617181563602
1.44809475697649
1.51011831018508
1.57221581009192
1.63436707854913
1.69659240211084
1.75896013050393
1.82155061477856
1.88444230905323
1.94771212631115
2.01143429519737
2.07568314048994
2.14052289174965
2.20598862565136
2.27208174909893
2.33876971542718
2.40601086933661
2.4737594714037
2.54196188211382
2.61055805945583
2.67948017873127
2.74865671866575
2.8180087666363
2.88745631623447
2.95693972545293
3.02642664093893
3.09591355642494
3.16540047191094
3.23488738739695
3.30437430288295
3.37386121836896
3.44334813385496
3.51283504934097
3.58232196482697
3.65180888031298
3.72129579579899
3.79078271128499
3.860269626771
3.92975654225701
3.99924345774301
4.06873037322901
4.13821728871502
4.20770420420102
4.27719111968703
4.34667803517304
4.41616495065904
4.48565186614505
4.55513878163105
4.62462569711706
4.69411261260306
4.76359952808907
4.83308644357507
4.90257335906108
4.97206027454708
5.04154357736186
5.11099077573145
5.18034197515866
5.24951725064297
5.31843760868727
5.38703136136618
5.4552311937077
5.52297681529344
5.59021469269421
5.65689905253164
5.7229883309658
5.78845047351296
5.85328629613918
5.91753152421137
5.98125086865687
6.04451824880949
6.10740792062038
6.16999668167525
6.23236319058161
6.29458794193786
6.35673889287327
6.41883602765499
6.48085906063872
6.54278132546203
6.60457608196973
6.66621651514685
6.72767530788945
6.78892546607448
6.84994199623049
6.91075009065951
6.97148570323506
7.03235041969566
7.09355082012294
7.15529355763682
7.21778667413618
7.28124305825928
7.34587101993139
7.4118200597273
7.47909664266032
7.54744304401348
7.6164537953857
7.68579833783882
7.75527568906907
7.824769626771
7.894256542257
0.0347332192267516
0.104199657680255
0.173673244450282
0.243129971886296
0.312453733865436
0.381444398610883
0.449772104729898
0.51703427011498
0.582975760967613
0.647604506553919
0.711070483235689
0.773580044497215
0.835344865039785
0.896571761877483
0.957466192144309
1.01823351702767
1.07907402568854
1.14012225765994
1.20140279036605
1.26289052894801
1.32455850145893
1.38637971941695
1.44832752969352
1.5103753534306
1.57249668492024
1.63467146577693
1.69691985590974
1.75930979347676
1.82192114739801
1.88483190095189
1.94811850541683
2.01185474372732
2.07611449436693
2.14096160086859
2.20643093121224
2.27252388651706
2.33920811517662
2.40644221186212
2.47418071136287
2.54237029602893
2.61095128400942
2.67985625762366
2.74901412474762
2.81834644632817
2.88777370044895
2.9572366424242
3.02670308087771
3.09616951933121
3.16563595778472
3.23510239623822
3.30456883469172
3.37403527314523
3.44350171159873
3.51296815005223
3.58243458850574
3.65190102695924
3.72136746541274
3.79083390386625
3.86030034231975
3.92976678077326
3.99923321922676
4.06869965768026
4.13816609613376
4.20763253458727
4.27709897304077
4.34656541149427
4.41603184994778
4.48549828840128
4.55496472685478
4.62443116530828
4.69389760376179
4.76336404221529
4.8328304806688
4.9022969191223
4.9717633575758
5.04122619356046
5.11065309842359
5.17998457655528
5.24914118681847
5.31804440977393
5.38662298764456
5.45481000941356
5.52254554632371
5.58977638615841
5.65645702997535
5.72254616333187
5.78801192387424
5.8528551253522
5.91711128049221
5.9808447113329
6.04412889333718
6.1070376365824
6.16964727764693
6.23203600305682
6.29428382443665
6.35645828966957
6.41857925819705
6.48062656479978
6.54257370258397
6.6043940912149
6.66606107583586
6.72754750239719
6.7888265376591
6.84987333705385
6.91071294869658
6.97148052196224
7.0323764359923
7.09360603537317
7.15537473967098
7.21788935316797
7.28136150476511
7.34599827521298
7.41194829424536
7.47921799290552
7.54755110747217
7.61654455049416
7.68586972230328
7.75532685699334
7.82480034231975
7.89426678077325
0.0347226056443661
0.104167816933098
0.173620202546113
0.243055975705506
0.312359666702337
0.381332406745529
0.449646373295099
0.516901448946401
0.582844007516364
0.647481934314263
0.710964294330017
0.773496171434895
0.835287934127224
0.896545116346572
0.957471896233616
1.01827235410474
1.07914552890182
1.14022513005723
1.20153558838793
1.26305196493034
1.32474745540732
1.38659523932041
1.44856882955635
1.51064181292361
1.5727878490178
1.63498700360299
1.69725930530391
1.75967226563268
1.82230525371726
1.88523576474745
1.94853977138321
2.0122905945206
2.07656164999956
2.14141638118395
2.20688943971394
2.27298222071246
2.33966257477791
2.40688935570934
2.47461738255444
2.54279367131882
2.61135891350573
2.6802461133625
2.74938462363654
2.81869649619268
2.88810271135491
2.95754443631338
3.02698964760212
3.09643485889085
3.16588007017958
3.23532528146831
3.30477049275705
3.37421570404578
3.44366091533451
3.51310612662324
3.58255133791198
3.65199654920071
3.72144176048944
3.79088697177817
3.8603321830669
3.92977739435564
3.99922260564437
4.06866781693311
4.13811302822184
4.20755823951057
4.2770034507993
4.34644866208803
4.41589387337676
4.4853390846655
4.55478429595423
4.62422950724296
4.6936747185317
4.76311992982043
4.83256514110916
4.90201035239789
4.97145556368662
5.04089718308273
5.11030305103041
5.17961408541881
5.24875134669948
5.31763680685712
5.38619965402054
5.45437339592617
5.5220984787268
5.58932202318541
5.65599881484947
5.72208779780977
5.78755730888131
5.85240815951667
5.91667564201253
5.98042367527274
6.04372527462894
6.10665378795091
6.16928507392142
6.23169682969118
6.29396856621807
6.35616740714704
6.41831308252125
6.48038555195792
6.54235847387367
6.60420543360894
6.66589994233238
6.72741501502152
6.78872398521318
6.84980216269772
6.9106744461202
6.97147515088515
7.03240340533654
7.09366327330728
7.15545889562338
7.2179957936151
7.28148429029926
7.34613019222156
7.41208122636855
7.47934378856547
7.54766312960924
7.61663863022361
7.68594372178532
7.75537989934505
7.82483218306691
7.89427739435564
0.0347116032561281
0.104134809768385
0.173565217565343
0.242979268832704
0.31226215358822
0.381216312293041
0.449516035949751
0.516763762150311
0.582707427557542
0.647354871909628
0.710854215433354
0.773409225875309
0.835228917681879
0.896517494717704
0.957477809279326
1.01831261389182
1.07921965147944
1.14033177096416
1.20167325118378
1.26321931478047
1.32494333128875
1.38681865434717
1.44881896893927
1.51091803360891
1.57308967931077
1.63531410050658
1.69761118972736
1.76004801620992
1.82270343098103
1.88565442326166
1.94897646955987
2.01274241180741
2.07702518625242
2.14188782143046
2.20736474471707
2.27345734501968
2.34013368254933
2.40735287972559
2.47507005026806
2.54323255606071
2.61178147563818
2.68065025063217
2.74976869495853
2.81905936938373
2.88844377487045
2.95786350557228
3.02728671208454
3.0967099185968
3.16613312510906
3.23555633162131
3.30497953813357
3.37440274464582
3.44382595115808
3.51324915767034
3.58267236418259
3.65209557069485
3.7215187772071
3.79094198371936
3.86036519023162
3.92978839674388
3.99921160325614
4.06863480976839
4.13805801628065
4.2074812227929
4.27690442930516
4.34632763581741
4.41575084232967
4.48517404884193
4.55459725535419
4.62402046186644
4.6934436683787
4.76286687489095
4.83229008140321
4.90171328791547
4.97113649442772
5.04055612001111
5.10994018040123
5.17923002213326
5.24834722562185
5.31721427227784
5.38576081247084
5.45392078803058
5.5216350337541
5.58885101558204
5.65552381397362
5.72161264102396
5.78708604001344
5.85194482001372
5.91622404481698
5.97998721542441
6.04330687018033
6.10625587781474
6.16890960160799
6.23134523140798
6.2936417591648
6.35586586874402
6.41803715605025
6.48013571011039
6.54213536070734
6.60400986492584
6.66573290604177
6.72727767425175
6.78861767597842
6.84972838102421
6.91063453308754
6.97146958305081
7.03243136264089
7.0937226080212
7.15554613443606
7.21810613326789
7.28161157381202
7.34626694172933
7.41221902818389
7.47947419248864
7.54777925544236
7.61673615636444
7.68602043208035
7.75543488478974
7.82486519023162
7.89428839674387
0.0347001978189976
0.104100593456993
0.173508218327743
0.242899751967569
0.312161068288239
0.381095964963728
0.449380923965928
0.516621031484592
0.58256584428257
0.647223154853228
0.71074010404538
0.773319095265249
0.835167739305533
0.89648886123398
0.957483938936057
1.01835434850651
1.07929648937583
1.14044231843166
1.20181595696405
1.26339279514033
1.32514638267367
1.38705025371855
1.44907827165973
1.51120437306759
1.57340256653329
1.63565317993077
1.69797596471196
1.76043753163628
1.82311619464962
1.88608841846877
1.94942916527421
2.01321078048735
2.07750570319559
2.14237653190991
2.20785746152611
2.27394987450879
2.34062204836091
2.40783338396296
2.4755393005015
2.54368751840939
2.61221951743099