/*--------------------------------*- C++ -*----------------------------------*\
  =========                 |
  \\      /  F ield         | OpenFOAM: The Open Source CFD Toolbox
   \\    /   O peration     | Website:  https://openfoam.org
    \\  /    A nd           | Version:  7
     \\/     M anipulation  |
\*---------------------------------------------------------------------------*/
FoamFile
{
    version     2.0;
    format      ascii;
    class       volScalarField;
    location    "20000";
    object      Cz;
}
// * * * * * * * * * * * * * * * * * * * * * * * * * * * * * * * * * * * * * //

dimensions      [0 1 0 0 0 0 0];

internalField   nonuniform List<scalar> 
15600
(
1.61934520577424e-18
3.43143746465215e-18
9.62900748209855e-20
0
-5.00036820068951e-18
-3.26930105054015e-18
9.48656925669535e-20
-6.25667604051063e-18
0
-4.26485534062388e-18
1.26427184848729e-17
2.7549211471851e-18
1.78031682288014e-17
-9.37956724210099e-20
6.90782205676032e-18
8.59450378708372e-18
-2.12661640943217e-18
-1.92685563560544e-18
3.57201254746961e-18
-6.90426537083685e-18
1.58007998748181e-18
8.0351164515023e-18
1.45073550144505e-18
-3.07376094852576e-18
5.65710558822104e-18
4.36117133558029e-18
0
0
-9.51607158224266e-20
-2.62869309414782e-18
0
0
-2.22217515287218e-18
0
0
-4.1973252230749e-18
4.20439333554194e-18
-2.0635281648188e-18
-4.64995613520406e-16
-4.65930350934677e-16
1.98163758946187e-18
-1.96505290085322e-18
0
0
-1.94694381827797e-18
-3.49045200070371e-16
-3.53143648059779e-16
0
-1.85068023517621e-18
3.8941075234564e-18
0
1.85068023517624e-18
1.94705376172825e-18
-9.63735265517981e-20
-1.94705376172809e-18
-9.63735265517958e-20
1.9470537617282e-18
-1.94705376172808e-18
1.94705376172805e-18
0
-3.43204038785211e-16
-3.45607199165614e-16
-5.64841423208068e-18
-9.63735265517946e-20
0
1.94705376172801e-18
0
5.64841423208086e-18
0
0
-1.85068023517643e-18
0
3.54597240775916e-16
3.49546826235872e-16
-1.85068023517629e-18
-9.63876405071438e-20
9.64550095592607e-20
-1.954205684451e-18
3.93117510563562e-18
4.57060195618473e-16
4.5789361032802e-16
3.96695925015948e-18
0
-2.20061396970719e-18
2.14818143762877e-18
0
-2.15953539284198e-18
4.54252363041684e-18
2.58265572254227e-18
0
0
1.88936948168841e-15
1.90833191599024e-15
2.788164466559e-18
-2.87915829869088e-18
1.9561890498158e-19
-4.56723773311617e-18
-9.79309943065375e-20
-1.60743948422146e-18
-1.0051145374131e-17
3.59861204693174e-18
-3.56933038648709e-18
-5.78249159097478e-18
0
0
1.37315379360442e-17
1.21972056360248e-17
-2.62979003666878e-18
1.59725655755486e-17
-7.07274769474237e-18
7.26636056941798e-18
-1.30544754552309e-18
1.96667749121003e-19
4.79787695625738e-18
-1.58712592616411e-18
0
8.35887546608475e-18
0
6.67012787622155e-18
5.05078267042677e-18
-1.65882316899786e-18
0
0
0
-1.7387025249428e-18
-1.72281810612268e-18
5.8538310846179e-18
1.05933603103673e-17
7.24626346913702e-18
1.90204310323113e-19
-5.37872629339493e-18
-5.32275116466053e-18
-2.24955766669167e-18
-2.12323105024257e-18
1.999974245959e-18
-4.33436125843881e-18
-7.64942118405196e-18
1.85823589937691e-18
9.03078339422112e-18
-5.44429291606838e-18
-4.84561815729833e-18
0
0
-1.24532094830716e-18
2.58263882955161e-18
5.36425042746964e-18
1.91408458954449e-19
2.51002923801588e-18
-1.00995014951807e-17
-4.7037495874169e-18
2.66182360999386e-18
6.62731805318769e-18
1.91826456085905e-19
-6.63260068778361e-18
0
4.14913232043403e-18
-1.74359336450433e-18
0
7.31552457616401e-16
7.2826253831882e-16
-1.92457302833703e-19
1.99575483228991e-18
0
-1.92675072292349e-19
-1.92742196472935e-19
9.25602388783985e-16
9.12271574167328e-16
-1.97840250924922e-18
0
1.92755999670063e-19
1.78564650957911e-18
0
-3.76404901882824e-18
-5.54969552840732e-18
0
0
0
0
0
0
3.30475903708732e-16
3.31255588478596e-16
5.74245152807784e-18
-1.92755999670066e-19
0
0
-1.78564650957913e-18
1.97840250924922e-18
-5.54969552840794e-18
0
-3.76404901882827e-18
0
-3.43746453274502e-16
-3.43812641808973e-16
0
0
-1.78658088107673e-18
0
1.92981920790412e-19
-4.38666210260137e-16
-4.51982014733808e-16
-2.06019196132133e-18
1.89864294731932e-18
-2.12934333479686e-18
-3.95767211791047e-18
-2.22158719622735e-18
6.63704319066171e-18
2.14407230519168e-18
2.20952971542664e-18
4.75168513859833e-18
-2.35235566190361e-18
-1.78707034538104e-15
-1.86940468024215e-15
5.19003406851673e-18
-1.94127409617902e-19
-3.88357562748827e-19
4.50493508300114e-18
5.7697928191235e-18
-1.94372816472016e-19
0
-6.75188913062901e-18
3.73176088002248e-18
5.38178365437068e-18
2.1556056061032e-18
1.0363619406971e-17
-4.18686187952581e-18
0
4.88095823281425e-18
-2.56717754340148e-17
-5.38032595975883e-18
5.60646358630051e-18
5.79805909783639e-18
0
-4.72846562649583e-18
0
-2.89995724520392e-18
-7.00046471336179e-18
0
6.63527478287313e-18
0
0
0
-4.90509311715535e-18
0
4.87538119435551e-15
4.78462753282883e-15
-1.64920761514765e-18
-5.92486870282096e-18
-6.98926434930533e-18
-5.59593921656024e-18
-7.59061717758814e-18
4.9496263686556e-18
0
4.46158384677918e-18
6.3361438539323e-18
1.80764180240659e-18
0
0
3.81632064724349e-19
-6.50982289213953e-18
0
-1.49485573588674e-18
-4.31313029153294e-18
5.54222284907875e-18
-1.91301682290036e-19
3.82707466346709e-19
5.00482653707114e-18
-2.42101226682105e-18
0
0
-2.19782843919255e-18
-2.13097219680944e-18
4.5194464548011e-18
2.201298482646e-18
-1.95623280320693e-18
0
-3.92730749372097e-18
-5.68702947987777e-18
-2.9049829917074e-16
-2.77024616427478e-16
0
-1.93239587934258e-18
0
-1.92675389576661e-19
-1.92742524596832e-19
-5.6502915478221e-16
-5.61339902319319e-16
0
0
0
0
1.92756329390097e-19
-3.63857857660661e-18
1.92756329390098e-19
1.92756329390099e-19
1.92756329390097e-19
0
0
1.91566745299802e-18
3.83133490599628e-18
0
0
0
1.91566745299819e-18
1.91566745299823e-18
-3.63857857660634e-18
0
0
0
1.91566745299822e-18
0
1.92756329390098e-19
1.91566745299825e-18
-7.27715715321331e-18
-3.44582224721631e-18
-9.38520562711975e-18
3.64047457428036e-18
3.65177515715033e-18
0
-1.75545767705027e-18
1.9689157281482e-18
-3.60264041261637e-18
-2.02509431443549e-18
1.93349505615482e-19
3.62476068460038e-18
-2.15004924640766e-18
-2.20332536964049e-18
0
-4.45650576760629e-18
0
-2.26902760638739e-18
-2.3434977098518e-18
-1.9401513652576e-19
-4.81181962704771e-18
-5.56323584085579e-18
8.416547067508e-18
1.94235012699108e-19
-4.50848669885162e-18
0
-9.54371960439416e-18
-9.57302637360303e-18
1.90025644738784e-18
-5.57268913260207e-18
1.13446785249117e-17
4.19258239854807e-18
-3.90382617741931e-19
-1.95297340817324e-19
-7.45084391451238e-18
-4.9512311803986e-18
-7.97840151685123e-18
-3.09410906721901e-18
-5.39737160613105e-18
-3.25690970979447e-18
-4.37428171228649e-18
1.67113521586213e-18
0
0
6.60490307722845e-18
-3.40060712509065e-18
-1.92756329390105e-19
5.914758166569e-18
-1.64735042678948e-18
-6.39266178407047e-18
-3.09137351501473e-18
-4.70750582151114e-15
-4.62188115565045e-15
0
1.9077730351638e-19
-1.38635480614851e-17
5.40370918288233e-18
-1.90090386440964e-19
-1.90060335411927e-19
1.90090525989795e-19
-8.60443516026343e-18
-6.49038794336176e-18
-5.78015915181143e-18
3.45484764447878e-18
-3.81383406696256e-19
-3.47952722103034e-18
1.11777877296668e-17
1.50239159062187e-18
0
2.96444635449732e-18
7.82684979647101e-18
0
0
-4.82723127891029e-18
0
6.97138161959268e-18
-2.57139697667596e-18
-2.31169768283711e-18
0
0
1.91909961529202e-19
-1.45894291293209e-15
-1.46207310921043e-15
-1.80181155498519e-18
-7.45304949225175e-18
3.66792079913321e-18
-7.23764455234024e-18
0
0
0
0
-5.37241839415619e-18
0
-3.51754239808573e-18
-5.37269193279663e-18
0
0
1.85514953471122e-18
1.66239286337432e-18
0
0
0
0
0
0
5.37269193279687e-18
0
-1.92756671336874e-19
0
0
1.92756671336871e-19
0
5.37269193279662e-18
0
8.89023433088201e-18
0
-5.37269193279667e-18
-3.51754239808541e-18
5.37269193279665e-18
0
0
0
-3.71016374143069e-18
1.92838364336128e-19
-1.8615989609742e-18
7.48720954073961e-18
-7.35425554321083e-18
5.33322565414775e-18
0
1.93274401602469e-19
-3.60407789921578e-18
-1.84181592201805e-18
0
0
0
0
-2.50808208423877e-18
0
-6.97521744424288e-18
-2.52966206136518e-18
2.60820241791915e-18
7.68106142197676e-18
0
0
-1.94298701065465e-19
0
6.40011937623931e-18
1.94547896157631e-19
8.41902620359887e-18
2.11831372147243e-18
1.62842720227705e-18
-1.95060883674291e-19
3.68430554824208e-18
8.80275553617893e-18
-1.8545405186855e-17
7.16186961307504e-18
5.00381161842208e-18
0
0
8.687622116721e-18
-7.22758738903505e-18
3.87593364140875e-19
0
-1.64261283478017e-18
0
1.64735042678953e-18
0
0
0
0
-1.59097972586811e-18
1.58124842689756e-18
0
-1.91245289019965e-19
-2.85859442149578e-18
1.90426729040464e-19
0
-4.82403654905936e-18
1.16967568422035e-17
6.7526621861076e-18
0
-1.90271422712718e-19
1.90402030568732e-19
-1.05460146784459e-17
1.20475014312035e-17
8.1197870766762e-18
-3.21831378574753e-18
-4.34687003341241e-18
-7.14348598877196e-18
1.68130649495671e-17
0
0
5.19576402793484e-18
-7.36668499761897e-18
0
2.37135850147265e-18
-2.49387045674311e-18
-1.91671356355833e-19
0
-1.92432962212942e-18
0
1.43552335430857e-15
1.3817315956558e-15
0
0
-1.92309724389623e-19
-6.99679986093971e-18
3.46077415827422e-18
2.00484746570708e-18
0
1.79752761924254e-18
-5.00455059950901e-18
-5.19755420745748e-18
0
5.19755420745792e-18
0
0
0
0
-5.00479718148859e-18
-1.79677041114237e-18
0
0
0
-3.40078379631572e-18
6.80156759263049e-18
-1.9275702596945e-19
0
0
0
1.604013385173e-18
5.19755420745788e-18
0
0
-5.19755420745779e-18
0
0
0
-1.92757025969452e-19
0
0
-3.40078379631549e-18
1.92771194057504e-19
-6.80515348635137e-18
-1.61009098321592e-18
-1.81284008398587e-18
1.82732309255438e-18
-3.49942655286264e-18
1.87005720642799e-18
-1.89845055075743e-18
0
1.97034282358165e-18
1.82096190764957e-18
0
-3.84941694766342e-18
-1.98326939263408e-18
-1.85156130823874e-18
0
1.93952374727903e-19
0
-1.940723759644e-19
-4.81408963996789e-18
-1.94177245639903e-19
5.15672441201352e-18
-2.67537970671851e-18
4.17250645661375e-18
4.15360564955495e-18
-6.25108327925002e-18
-1.78094772764266e-18
-5.19619963676954e-18
5.46978590206669e-18
5.77080795383633e-18
1.0017937421429e-17
6.22491364499262e-18
0
0
-4.82547504064275e-18
0
-1.95053298839962e-19
5.72588326207112e-18
-2.51986291105802e-18
1.93797069666753e-19
5.94367385035875e-18
0
-2.99808422614059e-18
0
-2.61426639808054e-18
0
-1.92757393764545e-19
3.09207092501916e-18
2.89130057769483e-18
1.11067932141129e-17
5.49837151859613e-18
2.6181617134691e-18
2.38267413143037e-18
7.90663889227549e-18
-2.42459242007894e-18
-4.65205303476283e-18
1.90061187533593e-19
-6.32805729683353e-18
-4.38051616606702e-18
-7.76489044674408e-18
-3.77349561074677e-18
1.90549828322069e-19
-1.02150794348929e-17
-1.33848615028582e-18
6.22109426999469e-18
-2.79482046673323e-18
-5.36414620181879e-18
0
-2.48618205376373e-18
0
2.51243154819869e-18
6.92737950479924e-18
0
8.41014035140067e-18
0
0
0
-3.71265661328649e-18
1.91910014317416e-19
-1.91994663017979e-19
-1.71404372720429e-18
0
1.83722607181259e-18
-3.42781430578794e-18
-1.92384644712084e-19
-1.92458358190559e-19
0
-1.74612019174544e-18
1.92676413821291e-19
0
-3.48090901565738e-18
1.54769711406403e-18
1.7404545078287e-18
-1.92757393764538e-19
-5.02860612972155e-18
-5.02860612972147e-18
1.54769711406402e-18
1.74045450782863e-18
1.74045450782867e-18
-1.92757393764541e-19
0
0
-6.57630324378615e-18
0
-1.74045450782857e-18
-1.54769711406415e-18
1.92757393764542e-19
0
1.74045450782871e-18
-1.7404545078286e-18
0
-1.92757393764538e-19
0
1.74045450782855e-18
1.74045450782868e-18
-1.7404545078287e-18
0
1.74045450782867e-18
0
5.02860612972146e-18
0
0
-6.60008101480803e-18
-1.75596161065445e-18
1.93055586127235e-19
0
2.0043059487879e-18
-4.93557052322222e-18
0
-3.62204530609058e-18
7.60749190477618e-18
1.99790176243815e-18
7.81410922343746e-18
1.91311583075162e-18
-1.97296352519816e-18
1.93886434322353e-19
-2.10297308719923e-18
0
2.43987314731658e-18
-2.32157578341852e-18
1.9417669615888e-19
-1.94233295987344e-19
5.16059206139e-18
0
1.20333965215395e-18
1.6547808579338e-18
-3.0595682903678e-18
-8.23327517578439e-18
1.89045018816285e-18
3.77943393226572e-18
1.89433022084445e-18
1.01992697435306e-17
1.93813813654475e-17
0
0
0
-1.00362203142229e-17
0
-5.62530997471481e-18
0
-1.93403133464009e-19
2.89205776560863e-18
-3.85679150003575e-19
0
1.92757393764554e-19
5.41956750832571e-18
-1.92757775217262e-19
0
1.92422467068172e-19
5.55712592273738e-18
-2.75168599211415e-18
-4.02991552066107e-15
-3.88375092775507e-15
5.02957624906838e-18
0
-1.14054618142658e-17
0
-1.01697214961408e-17
-3.85712843484271e-18
7.30376650327515e-18
-6.91008823967545e-18
0
3.09969278963557e-18
-5.89922985453806e-18
-1.59875725052556e-18
2.69537105563351e-18
5.36448133435145e-18
-2.67914324649475e-18
0
-4.63035581771116e-18
0
2.35701987447638e-18
-1.91467796554822e-19
-8.49496259608519e-18
-3.92748125297761e-18
0
0
-1.91826458306567e-19
-1.74032000700303e-18
3.77304203112359e-18
1.28881584460395e-15
1.29832643655807e-15
3.36650142733483e-18
2.64854376099191e-16
2.66844842487208e-16
-3.23524010479308e-18
-1.92531710446834e-19
2.49962618287866e-16
2.38782623733716e-16
0
0
3.62266237001062e-16
3.63696524481509e-16
3.56099994641717e-16
1.71496000430029e-18
-3.69239338476114e-16
6.14503900409595e-16
6.07234433504518e-16
-1.68612892125551e-18
3.69010752686104e-16
3.62712581421753e-16
0
-3.64145123697586e-16
-3.62719584971151e-16
0
1.92757775217249e-19
0
0
0
3.62458994776304e-16
3.62905339196942e-16
0
-6.14118384859153e-16
-6.11907304717845e-16
1.92757775217241e-19
-3.6862523713569e-16
-3.6241182599682e-16
0
-3.17950006729332e-18
1.68612892125545e-18
3.17937608625503e-18
2.44323815074105e-16
2.40727488600605e-16
1.92983920280693e-19
0
0
-5.06950650529055e-18
5.14852411300058e-18
3.23668209677571e-18
0
0
0
1.98474968834335e-18
-2.03918586670937e-18
-1.93817098316371e-19
-1.48353302638795e-15
-1.48645612830074e-15
-4.38554005836822e-18
0
-1.94124931264898e-19
2.70404294801776e-18
0
5.17144213493829e-18
2.58735565566422e-18
1.94451699897005e-19
-1.94545203219482e-19
-4.6204661366165e-18
7.75179933213388e-18
0
1.33802754862628e-18
-1.63140797945631e-18
-2.78662364762792e-15
-2.92079664495421e-15
0
1.95372975955946e-19
7.40730282830671e-18
0
0
-4.03449034781086e-15
-4.13828508415334e-15
5.56000093607111e-18
2.79728987450249e-18
2.61173484607127e-18
0
0
0
0
5.61813110338233e-18
5.4102389451284e-18
-2.30348963607549e-18
-5.32326315272425e-18
3.88806988124586e-15
3.75086194236184e-15
-4.4769732541732e-18
6.95544817095464e-18
8.84230602457441e-18
-4.12690329746683e-18
6.07369755292511e-18
-7.62842315898982e-18
-1.95089480785433e-18
-1.475357588004e-18
-4.91869984714616e-18
-5.9782062254767e-18
-1.42223845949771e-18
-1.12433710773501e-17
2.59943637996959e-18
-2.68577929218215e-18
2.39950462666939e-18
0
4.46583969674274e-18
0
0
2.02094921958813e-18
-3.91209894827727e-18
-1.91599488103518e-19
2.02702862346181e-18
1.77981952037861e-18
0
1.67888879918775e-18
1.91994787608311e-19
-1.26819669017744e-15
-1.22415694031168e-15
-3.25487411195069e-18
-2.5836902240585e-16
-2.451461952986e-16
-6.25683052263328e-18
4.365346939735e-18
-2.36524469630952e-16
-2.37606488972033e-16
0
4.51565363175804e-18
-3.55662303586201e-16
-3.54229002001877e-16
-3.55662303586195e-16
7.5672559548822e-18
3.56270413926607e-16
-5.97093401437927e-16
-5.98235127117333e-16
-9.41682360519876e-18
-3.55662303586203e-16
-3.51586119494662e-16
2.88193030727691e-18
3.52587615108099e-16
3.51400117380514e-16
6.14937695623775e-18
0
1.92758170841771e-19
1.63372332448049e-18
-1.92758170841769e-19
-3.52587615108099e-16
-3.51838707925889e-16
-1.2482069827969e-18
5.94211471130657e-16
5.95160438639236e-16
0
3.51339408125281e-16
3.50173977253109e-16
-4.51565363175794e-18
-1.44096515363852e-18
-1.63372332448051e-18
-1.92772354205733e-19
-2.33992156348017e-16
-2.39596718208186e-16
-6.20668815935471e-18
0
3.16306861594545e-18
0
0
1.75473537609569e-18
3.38473732329332e-18
1.93506829207008e-19
0
9.21994652290435e-18
-3.56031690727145e-18
2.02953667848672e-18
1.39670505549329e-15
1.4773565398587e-15
4.23678459822083e-18
-6.46155110235231e-18
2.54784118712511e-18
4.46682829227345e-18
-4.62630681318977e-18
0
-4.99063527207696e-18
0
0
-7.11342767122431e-18
-1.49504624348344e-18
-1.57660534861113e-18
-1.27624685114553e-18
0
2.65841134017145e-15
2.84759833532762e-15
-4.51903781872836e-18
1.95371525402301e-19
0
7.00239420245151e-18
-1.47593126459405e-17
3.88774721161972e-15
4.00348056718663e-15
1.93404070572829e-19
5.41174249820078e-18
-2.90575899554113e-18
5.04337803774365e-18
2.71444718971355e-18
9.63850545351408e-20
0
0
0
-4.81589493409744e-18
0
2.15961870904362e-18
7.12046461737763e-18
0
0
-2.08586134406065e-18
-4.16945120596852e-18
-5.48299866629655e-18
-3.77617348469322e-18
8.67833166543525e-18
-1.90403383925336e-19
0
-2.69172967190779e-18
5.48610980315978e-18
-1.8913086386119e-15
-3.87372130742262e-17
1.78182635380436e-15
5.01070010373597e-18
-2.42165041997778e-18
-2.1535688337633e-18
6.43862093910414e-18
0
0
-3.77333183299026e-18
0
-7.46480027033346e-18
1.90860287308554e-18
1.9182645931291e-19
1.91910100992391e-19
-8.26967524997318e-18
0
-1.18174460601362e-15
-1.19761992651691e-15
-1.45311868029821e-18
6.11558256568855e-18
-1.92459256988351e-19
0
-3.17650710593437e-18
-2.24963032414783e-16
-2.301961017366e-16
0
1.58316987609273e-18
0
0
0
-2.33383591413068e-16
-2.29029369048738e-16
0
-1.1976527137482e-18
-2.24655606481186e-16
-4.58297505507564e-16
3.39524583710763e-16
5.68468459139567e-16
1.92758581172212e-19
0
0
-1.92758581172214e-19
-5.67606729158364e-16
-3.34892109145346e-16
3.81205612875375e-18
-2.28080253846687e-16
0
0
7.33757363694585e-18
0
-1.92758581172214e-19
3.1663397521853e-18
-1.92758581172211e-19
3.42951122677154e-16
3.34187200138938e-16
2.30207849500967e-16
2.29349734237709e-16
-4.37998799862828e-18
1.79009058739531e-18
1.9305691301779e-19
3.40832152820148e-16
3.41080914268947e-16
-4.6262429020514e-18
-1.93351326911141e-19
-3.07890718377647e-18
0
-3.23981503021223e-18
7.05426422325169e-18
0
-1.35537262606254e-15
-1.34986233640053e-15
-3.58016466324659e-18
2.14364935842517e-18
4.0299327126988e-18
2.27699221993718e-18
6.85048574242872e-18
2.61938676632372e-18
-1.94295344602516e-19
-5.00743258345569e-18
5.20960171605251e-18
1.92725196061338e-15
1.97229519992898e-15
1.0286584414011e-17
-2.20108405352207e-15
-2.27745079012186e-15
-1.56743099428358e-17
-5.38089886735587e-18
-9.26301696963821e-18
1.41277838629242e-17
-1.69574576246844e-18
1.95263143366732e-19
1.95050908196759e-19
-4.81522928377089e-18
4.89642266222639e-18
0
5.00956316218742e-18
0
0
0
5.25195669457433e-18
0
-5.08127245320635e-18
0
0
0
2.10754216897204e-18
1.15311782198712e-17
8.91271397505692e-18
-7.08412706714699e-18
-6.2920178951155e-18
-1.82130486808475e-18
1.90063082690148e-19
5.66011304053713e-18
5.18638627640383e-18
-4.72021260061336e-18
-3.80807506030731e-19
1.46541758343832e-18
3.16089763488707e-18
2.45440070828642e-18
1.85316462853066e-15
-3.5341586159664e-17
-1.68629640697993e-15
0
8.7956508839765e-18
2.26832369517433e-18
2.19977955164545e-18
-6.21176421837962e-18
3.95150369468162e-18
-2.01126584254281e-18
0
-5.50634730745677e-18
-1.84786438183977e-18
-1.91826459843896e-19
-1.75437245561801e-18
-1.52153515379104e-18
1.92077141330076e-19
1.16229540397204e-15
1.13129085815406e-15
-4.39853038466971e-18
0
0
0
0
2.15190284340148e-16
2.1692524911881e-16
0
0
-2.68328825125229e-18
0
0
2.17955301058614e-16
2.1963796948649e-16
-2.8760472580159e-18
5.75209451603179e-18
2.2063858930985e-16
4.43578307552194e-16
-3.2955126731695e-16
-5.46960622918008e-16
-1.92759006763362e-19
5.75209451603127e-18
0
1.92759006763362e-19
5.46711794289028e-16
3.29227011901544e-16
1.18029210000599e-18
2.20478098260579e-16
0
-1.92759006763368e-19
0
8.43538276728439e-18
2.87604725801586e-18
0
5.55933550926832e-18
-3.2530216895214e-16
-3.29521314558927e-16
-2.17946636696082e-16
-2.18020168010224e-16
5.77279681697401e-18
3.85970614222021e-19
3.11979584594626e-18
-3.25443690827079e-16
-3.29659608022882e-16
0
0
-1.93428436002982e-19
0
0
0
1.46268787873204e-18
1.27406144133135e-15
1.33477328353155e-15
0
1.94012159151642e-19
1.94339467311342e-18
-1.81473264115221e-18
1.94174291826197e-19
0
1.94294598757937e-19
0
0
-1.82397841376579e-15
-1.93777935099421e-15
1.01210443970757e-17
2.09495985999098e-15
2.23507740533257e-15
1.9517915928682e-19
1.95284730765646e-19
-1.07484126415526e-17
1.95393065401882e-19
-4.02400074118372e-18
-4.19578239700809e-18
-9.07551164680782e-18
-2.0338198979709e-18
0
4.98651284584462e-18
-2.51692897863835e-18
-1.9309180135291e-19
0
-2.73339523336645e-18
2.54063622660334e-18
-9.63859215242194e-20
2.26555090031518e-18
0
-4.70718395097841e-18
0
0
-2.57052856174172e-18
6.44804701371902e-18
-1.90427486176665e-19
1.9020662812599e-19
0
-3.69981815667944e-18
0
0
3.34666290778382e-18
9.1500212937194e-18
0
2.68023942326691e-18
0
-2.62622363245179e-18
-4.66300126570008e-18
-4.47537776831537e-18
-1.91178906942292e-19
2.0745998010888e-18
0
-5.6197804101018e-18
0
-1.91467623752343e-19
5.45703570416744e-18
3.39954983823596e-18
-2.03053006509346e-18
-1.917468105901e-19
1.93436647421893e-18
0
0
0
-3.18858254222912e-18
0
0
0
1.9245991321692e-19
0
0
-2.78329433997895e-18
-2.78183800471039e-18
0
5.56392095424925e-18
0
0
5.75668040244078e-18
1.97190900138586e-16
2.02153600868164e-16
-5.56392095424952e-18
-1.9275944819157e-19
0
5.37116150605739e-18
5.5639209542493e-18
3.85518896383136e-19
-2.78196047712439e-18
2.7819604771244e-18
0
0
2.7819604771244e-18
-2.58920102893304e-18
5.56392095424894e-18
0
0
0
2.78196047712439e-18
-1.9275944819157e-19
0
-1.9275944819157e-19
1.92759448191567e-19
-1.92759448191569e-19
-2.78196047712444e-18
2.78186654318618e-18
-2.97632687633377e-18
0
2.80769163924599e-18
0
-2.861127315855e-18
0
0
-1.78901340034711e-18
-1.81979691569272e-18
0
0
0
-3.38940091651339e-18
1.84132805085893e-18
0
7.41002777658719e-18
1.8136558670628e-18
-1.94069302457386e-19
-1.93745895980909e-18
0
2.07508069238365e-18
2.34726372711418e-18
-2.23826453017997e-18
-2.91547964679684e-18
0
0
-5.55701558967297e-18
-5.65405330171651e-18
-4.67645536277697e-18
5.12662232440636e-18
-3.72545015377174e-18
-3.51728423224741e-18
1.85051125625565e-18
-8.34669136369348e-18
8.48315346815672e-18
-1.95049578787976e-19
4.29938035922173e-18
-2.38250020916608e-18
0
0
0
0
0
0
9.63863793713938e-20
-6.75116260339057e-18
-4.7547502646762e-18
0
0
6.99640281636809e-18
-2.30215991067192e-18
0
0
0
-3.93063951135837e-18
5.54116480184156e-18
3.39010553416652e-18
-8.22571322466938e-18
0
1.63019334115023e-18
5.44987348294942e-18
1.90693179805031e-19
7.57020176074881e-18
2.34845761457609e-18
-4.68787326512757e-18
2.15800938987759e-18
2.26702198769659e-18
-2.00080159078651e-18
-1.74064733904851e-18
-1.91353481832915e-19
2.19018354849493e-18
-5.43808296725529e-18
0
8.58074282181074e-18
3.36936017486158e-18
1.54100397391434e-18
-1.91826460964962e-19
3.1001484473637e-18
-1.91995065510537e-19
-3.1487089175318e-18
0
0
0
-2.76654666130125e-18
2.73755907692511e-18
5.43091964576962e-18
1.92606272058967e-19
8.07748372098249e-18
1.92746083984816e-19
0
0
2.49843912278719e-18
0
0
-1.95278650701401e-16
-1.97549503094411e-16
-2.88395893489858e-18
-2.4984391227874e-18
0
-2.4984391227874e-18
-1.92759906055591e-19
-2.88395893489869e-18
0
-1.92759906055593e-19
0
0
0
-1.9275990605559e-19
0
-5.38239805768558e-18
-5.38239805768603e-18
-2.88395893489865e-18
0
-1.92759906055588e-19
0
0
-1.92759906055587e-19
8.07359708652963e-18
5.57515796374139e-18
0
0
0
0
0
0
-1.93203629451832e-19
0
0
-1.93429026227673e-19
0
3.10232532158325e-18
6.17849294125055e-18
-4.62388725986805e-18
0
0
5.2736519038031e-18
-1.94011162806952e-19
3.80956878539515e-18
7.86258508163761e-18
-5.99129947153736e-18
-2.19549431629574e-18
4.15269770470105e-18
0
2.05459058516131e-18
-1.94540028033043e-19
1.94645741358614e-19
2.39056126921488e-18
8.3725837033726e-18
5.95625451485761e-18
3.90350208722734e-19
1.80295342567366e-18
0
-9.11679513084437e-18
-3.93703474431713e-18
0
0
2.26834627042462e-18
-4.41648863545981e-18
-2.3344209291656e-18
-2.16327243716603e-18
-4.74276870031166e-18
2.57040486020891e-18
0
0
9.63868542752082e-20
-2.30228478881828e-18
0
2.1018538851213e-18
0
-2.2569069174454e-18
1.84527138837349e-18
0
2.13818860435318e-18
0
5.22019449569714e-18
-2.09996125591344e-18
-1.63429024173937e-18
3.80337927285791e-19
-5.86828505854739e-18
2.7763974596683e-18
0
-2.30140362962637e-18
2.37196944422667e-18
0
1.91021128798332e-19
1.91105010998052e-19
-2.00194835832278e-18
-1.91244073799437e-19
0
-3.79487504202751e-18
-1.74313267766139e-18
-5.44319672825911e-18
1.44126882185799e-18
3.54594355258474e-18
1.91671067956848e-19
-6.32941291882887e-18
-4.71281306295263e-18
0
0
-2.66723396916919e-18
0
-2.56096115864381e-18
2.71132753203751e-18
2.86863160959101e-18
0
0
5.03258847038498e-18
0
-1.92746556617676e-19
-5.40005121799432e-18
2.79640579948621e-18
0
-2.60364541850847e-18
-2.60364541850843e-18
-1.92760380977553e-19
0
-1.92760380977552e-19
2.06079029925384e-16
2.04161207844472e-16
0
0
2.60364541850838e-18
1.9276038097756e-19
-5.20729083701654e-18
4.8217700750621e-18
2.79640579948598e-18
2.79640579948611e-18
0
5.01453045603966e-18
0
-2.60364541850862e-18
-2.60364541850828e-18
1.92760380977552e-19
2.0588626954439e-16
2.0396999981688e-16
0
0
1.9276038097755e-19
0
-7.81069495474454e-18
0
0
2.82058196185595e-18
1.93058924000704e-19
5.74066150616376e-18
-5.61811137415208e-18
-5.89564230776748e-18
-2.80416893414408e-18
0
0
0
6.16067038977142e-18
3.36100940853781e-18
1.93815837624557e-19
0
3.46022494970962e-18
3.37423264444347e-18
-7.36214214032438e-18
-1.94121311903821e-19
7.84292713881864e-18
0
-2.19672794737218e-18
-1.94364328993879e-19
1.94446083191992e-19
4.72521873996258e-18
1.94644435176696e-19
1.94764887494426e-19
-2.62833467883157e-18
0
2.93518528990409e-18
1.95278305318895e-19
-5.29525122354458e-18
1.72039237130254e-18
3.80330721438834e-18
-7.52608847943382e-18
3.89625705831838e-18
3.80582803597303e-18
-2.23096817991227e-18
2.25918797568847e-18
2.28077565467034e-18
0
4.40915390060332e-18
2.30228478881831e-18
2.3022847888184e-18
0
4.4567662507302e-18
6.68086120766774e-18
-2.22061339579414e-18
-2.20614331716769e-18
-1.80092167961295e-18
0
1.73840705727141e-18
-7.51424111495706e-18
3.62791011544715e-18
-1.73894881218343e-18
1.9006526339246e-19
4.9171234095231e-18
0
2.82887694238766e-18
-1.90405365637573e-19
2.91444201621378e-18
2.21229011649695e-18
4.57449664398555e-18
2.18387636652391e-18
-2.28200289760343e-18
-2.00699915992354e-18
0
1.66969339329511e-18
-1.98824997835528e-18
-1.91353414186326e-19
1.87257615319015e-18
0
0
0
1.66994156335395e-18
-1.62562926055654e-18
-1.20023312508396e-18
2.51468573102771e-18
0
-1.92077622499555e-19
-2.90302305375635e-18
0
-1.92311899350401e-19
0
2.36978067874165e-18
2.54173619641612e-18
-5.05565200078342e-18
-4.84813876823275e-18
0
0
0
0
0
2.01009801503892e-16
2.01652623268185e-16
0
-2.32642543058773e-18
-1.96549711516323e-16
-2.04542209254107e-16
5.0383726083836e-18
4.84561173477972e-18
-1.92760873603886e-19
0
0
0
-7.36479803897154e-18
0
0
0
2.51918630419179e-18
-7.55755891257474e-18
-2.51918630419158e-18
5.03837260838353e-18
-1.96356950642719e-16
-1.97165802776988e-16
0
7.36479803897105e-18
-2.51918630419178e-18
-2.3264254305877e-18
-5.03822454282732e-18
2.52059781100958e-18
2.33529073100917e-18
0
0
-1.93131794997113e-19
0
0
2.51902083875035e-18
-5.53434934628478e-18
0
-1.93588782733799e-19
8.9349800624846e-18
4.49620317907009e-18
1.93815599898751e-19
3.24508075728507e-18
-1.9394882732555e-19
-3.4483708854493e-18
0
0
0
-4.1111912168811e-18
1.9311349147875e-18
1.9436338050366e-19
0
-2.18450579597055e-18
-2.28796265749933e-18
-1.94763336814014e-19
1.94900725714192e-19
-1.95043408592928e-19
8.294285622403e-19
-1.68967443430707e-18
1.77156498977346e-18
3.12213914102949e-18
-3.28358322220864e-18
1.81443614047469e-18
-2.07396398414894e-18
1.94710112784673e-19
1.9425469527452e-19
-1.79901129637437e-18
2.01414799720733e-18
4.44270274799443e-18
-4.45428006422913e-18
0
2.03562225176126e-18
4.12143990510962e-18
2.15709347929767e-18
0
8.40578323417919e-18
1.92108341458565e-19
1.92262568359062e-18
3.98227618254813e-18
0
3.81403871546997e-18
5.24776907379255e-18
-3.54358984001691e-18
-6.20508980649194e-18
7.9758618992209e-18
-6.14130764551424e-18
8.56255126010498e-18
2.96166299285713e-18
-2.44258785330344e-18
-7.33244917597297e-18
2.39633943628654e-18
2.10592245069714e-18
2.58947178997808e-18
1.93547293356395e-18
1.91178936789403e-19
-3.58938094540368e-18
9.23893051637572e-18
-1.86722354584133e-18
-1.8128014481617e-18
-1.91467424486923e-19
-6.26724470320023e-18
-1.66278990833436e-18
-9.32206373665589e-18
-5.72432234873061e-18
0
2.80299744024982e-18
2.54329309321493e-18
0
-2.43016824281393e-18
-5.15294020940668e-18
4.8829685915752e-18
5.01020668804412e-18
0
0
0
9.56292355252617e-18
-2.63036337285238e-18
-1.92761384606315e-19
0
-1.92761384606327e-19
-1.92761384606319e-19
-1.86852824194392e-16
-1.89897180699662e-16
0
-4.48990193073174e-18
0
-2.43771234997203e-18
0
4.48990193073172e-18
0
0
2.63047373457824e-18
0
4.48990193073166e-18
-1.9276138460632e-19
0
-1.92761384606324e-19
-6.92761428070391e-18
4.87542469994407e-18
7.12037566531023e-18
-6.92761428070396e-18
4.8754246999447e-18
0
0
0
-2.43771234997223e-18
4.87542469994407e-18
-2.4376444962609e-18
0
-1.92915851632786e-19
-1.92987984666581e-19
-4.959904167808e-18
0
2.34554491606438e-18
-2.3845163199257e-18
0
-5.35319417908542e-18
0
1.93588907736095e-19
0
-2.57306544393417e-18
-2.65853555842903e-18
-1.47148713234933e-18
-1.93948358204317e-19
-3.33273479623617e-18
1.81580276984961e-18
-5.22280287833031e-18
7.32189026567835e-18
-3.78443743325544e-18
2.05664448478123e-18
-4.26066303815037e-18
-2.01695496469075e-18
6.51412278426212e-18
-9.21412253827082e-18
0
-4.88688417668329e-18
-2.38672696094588e-18
3.11863801568147e-18
7.78955496681787e-18
-1.9534878063996e-19
4.99331476001018e-18
0
0
-3.81934787275257e-18
1.66651220856934e-18
-1.89570193536151e-18
-1.92280273819649e-18
4.08043770923051e-18
0
0
-1.96433209469134e-18
1.96433209469149e-18
1.99195003642397e-18
0
0
0
0
0
0
0
0
0
3.23348961527466e-18
-6.16583040447072e-18
0
2.77701092995876e-18
0
7.65510320991836e-18
-2.35504605549868e-18
0