/*--------------------------------*- C++ -*----------------------------------*\
  =========                 |
  \\      /  F ield         | OpenFOAM: The Open Source CFD Toolbox
   \\    /   O peration     | Website:  https://openfoam.org
    \\  /    A nd           | Version:  7
     \\/     M anipulation  |
\*---------------------------------------------------------------------------*/
FoamFile
{
    version     2.0;
    format      ascii;
    class       volScalarField;
    location    "20000";
    object      Dk;
}
// * * * * * * * * * * * * * * * * * * * * * * * * * * * * * * * * * * * * * //

dimensions      [0 2 -3 0 0 0 0];

internalField   nonuniform List<scalar> 
15600
(
0.00117959334243306
0.0012237761613512
0.00116672426774677
0.000981427083265656
0.000750275092841111
0.00049394979772395
0.000270788120035468
0.000125767900275735
6.50235473031142e-05
5.04372731221639e-05
4.16272885563737e-05
3.0397757478094e-05
2.10882345394488e-05
1.53748382435773e-05
1.24232249713848e-05
1.09849711844558e-05
1.02957401125765e-05
1.00502696015853e-05
1.01155267168412e-05
1.03629170431122e-05
1.07566867061494e-05
1.13108622654635e-05
1.20681100066419e-05
1.30904326560964e-05
1.44468130119375e-05
1.61792464587209e-05
1.82746469312993e-05
2.07920264837648e-05
2.38082593509749e-05
2.73697878494239e-05
3.14998300043871e-05
3.61954851150505e-05
4.14359136408244e-05
4.7224546565234e-05
5.37270868522006e-05
6.11271510154246e-05
6.93532994811917e-05
7.83094079342341e-05
8.78714737377013e-05
9.78727026059151e-05
0.000108126327191756
0.000118494394954342
0.000129183044863248
0.000141133004233961
0.000157681707191179
0.000186699663276964
0.000216568474052086
0.000243883572509033
0.000269030003377927
0.000292587973639739
0.000314724034532401
0.000335664842164854
0.000355487574474474
0.000374279836345974
0.000392082590349009
0.000408941649486336
0.000424919860424448
0.000440088331901491
0.000454141439191831
0.000466859914601165
0.000478166437561348
0.000488012794577243
0.00049636549425889
0.000503216325537534
0.000508595470293653
0.000512585344904911
0.00051534499429653
0.000517123746891811
0.000518312549347217
0.000519438692266565
0.000521303314087976
0.000524836835933423
0.000531540123433502
0.000542168309636606
0.000557049260470212
0.000564080563215385
0.000538819721012774
0.000537090026795905
0.000555901984968647
0.000585614812113125
0.000624030452726017
0.000669303253959972
0.000720991494938841
0.000778613280398351
0.0008422845270398
0.000912050766788086
0.000989266207791814
0.00107608329441973
0.00117116538477911
0.00127081434676883
0.00137148132231779
0.00146882252508426
0.00155765471344893
0.00163449017243166
0.00169534933110097
0.00173240011652363
0.00175696959087431
0.00177549919944953
0.00179232210776131
0.00181071975516379
0.00183369102058265
0.0018651083894156
0.00191194265914825
0.00199050736362681
0.00209948382289845
0.00220747650162666
0.0023147051921624
0.00241881993992614
0.00252423950917705
0.00261955715105076
0.00268730400531613
0.00267723938631649
0.00253512758524273
0.00224438688759455
0.00192047358411636
0.00162531118530006
0.00138594615423054
0.00119219439078684
0.00112847085972388
0.00114240621747866
0.00644361338413442
0.00668261787767854
0.00637371699298012
0.00536533311053425
0.0041044108804102
0.00270547842219048
0.00148604566285284
0.000691807560265884
0.000357318219169826
0.000276384514003288
0.000228295803146008
0.000167048218403073
0.000115996643289343
8.45156275483404e-05
6.81938173856539e-05
6.02245817538501e-05
5.63963025633669e-05
5.50119213614304e-05
5.53387353366078e-05
5.66703559270808e-05
5.88034156983115e-05
6.18101835057063e-05
6.5921018387157e-05
7.14733107250562e-05
7.88456337399908e-05
8.82758406688514e-05
9.96959138107717e-05
0.000113422923865042
0.000129879585265686
0.000149327200900431
0.000171900504023829
0.000197591600566079
0.000226292555398762
0.000258019576804663
0.000293667153817238
0.000334245254934604
0.000379387861423123
0.000428569482660426
0.00048110961609766
0.000536090762700289
0.000592488355676257
0.00064956419889944
0.000708456055593246
0.000774577968756516
0.000866732112516172
0.00102537152028097
0.00118847929353216
0.00133781611960752
0.00147534372145815
0.00160417705118514
0.00172522722608582
0.00183971330945751
0.00194805412879136
0.0020507205496925
0.00214793466923968
0.00223994386724036
0.00232709224329126
0.0024097754177402
0.00248598211811488
0.00255473022553523
0.00261574659744917
0.00266878441133318
0.00271367986747848
0.00275040918925907
0.00277915890024092
0.00280040193146204
0.00281502523949632
0.00282441011094151
0.00283069177025295
0.00283675707241679
0.00284691251340375
0.00286618581372853
0.00290234704910741
0.00295940791774928
0.00303603107619563
0.00306667881115754
0.00293908803193151
0.00293494131138436
0.00303926368018705
0.00320194289105587
0.00341132571909895
0.00365765482521009
0.00393853211624137
0.00425149081521119
0.00459716432209714
0.00497608956062024
0.00539569879326618
0.00586675483167322
0.00638165054668993
0.0069208155737881
0.00746534635384371
0.00799203948388499
0.0084729557123671
0.00888982945604021
0.00922112930441082
0.00942653592288502
0.00956609847626971
0.00967364765390144
0.00977210979426959
0.0098791399386265
0.0100110162457291
0.0101889371839842
0.0104511480356404
0.0108849109309564
0.0114817745929158
0.0120741185900628
0.0126618311307942
0.0132324237549362
0.0138085309165908
0.0143281081620083
0.0146949736460947
0.0146377500080807
0.0138558916799678
0.0122669505076187
0.0104970877474961
0.0088841914400432
0.00757577636413021
0.00651785786930692
0.00616839357240087
0.00624202766820065
0.0155586367770643
0.0161176760671377
0.0154023199582682
0.0130018795215265
0.009961974542488
0.00657612480503257
0.00361610876538665
0.00168535512288227
0.000868016461702123
0.000669110318917688
0.000553003399059351
0.00040545255421069
0.000281853788365298
0.000205289627218318
0.000165448172051715
0.000145943824445679
0.000136551345282205
0.0001331056123776
0.000133821317088834
0.000136986909452689
0.000142092827220061
0.000149304617204194
0.000159173856855946
0.000172514998259682
0.000190246283443798
0.000212958618445941
0.000240507486065243
0.000273652453036721
0.000313420169644863
0.00036045912364722
0.000415110944696485
0.000477372090873654
0.000547005077232807
0.000624105181275831
0.000710828259037359
0.000809531675218211
0.000919364611843205
0.00103904538172735
0.00116691986516674
0.00130079280395578
0.00143829962903235
0.00157796402444036
0.00172310554165817
0.00188941360648254
0.00212453725314348
0.00250591463071205
0.00289355579380446
0.00324840649961051
0.0035746768063479
0.00387959800165923
0.00416542438309708
0.0044350083841287
0.00468939362458945
0.00492971102048795
0.00515653734935796
0.0053704900186658
0.00557245209998713
0.00576206269744329
0.00593397824364081
0.00608823087142627
0.00622430736614077
0.006341805176933
0.00644052311570059
0.00652058698859787
0.00658260242310634
0.00662782847029966
0.0066584411466347
0.00667773603433081
0.00669061898797401
0.00670369068854885
0.00672632506517666
0.00676939805288481
0.00684771254517307
0.00696619180806046
0.00710490689510517
0.00712834356250176
0.00689168959772122
0.00691672285494428
0.00716721901525963
0.00754498205104547
0.00802577585716276
0.00858965291391568
0.00923172106981926
0.00994773320085625
0.0107398017253272
0.0116112015371096
0.0125795819111832
0.0136652786730775
0.0148503827135532
0.0160942680008595
0.0173568217490613
0.018587674458806
0.0197235799458689
0.0207263653388353
0.0215464132212214
0.0220978385509723
0.022504018422042
0.0228376776467717
0.0231488606640101
0.0234775585598912
0.0238614559720074
0.0243502421664211
0.0250329990904542
0.0261085175697881
0.0275641782330066
0.0290274066544856
0.030483108999
0.0319000224322511
0.0333249326274005
0.0346140507524946
0.0355385706283428
0.0354659314646749
0.0336345086418659
0.0298418598932484
0.025554632941051
0.0216158796096423
0.0184108208958416
0.0158246076216154
0.01494356185758
0.0150902789618459
0.0271121152807599
0.0280093124332518
0.0268546563326141
0.0228196607216506
0.0175648096861978
0.0116270498115906
0.00638811052885809
0.0029726760795379
0.00151881680750434
0.0011641882351139
0.000962097681708331
0.000706645588040158
0.000491815381483587
0.000358168619224046
0.000288355437436266
0.000254068716588798
0.00023752634107165
0.000231390935666642
0.000232519889112443
0.000237936888847071
0.000246729741131945
0.000259174795346005
0.000276226995235162
0.000299305585224027
0.000330003499205002
0.000369352538058548
0.000417159843411208
0.000474743519204192
0.000543866168528199
0.000625636630653499
0.000720609230971162
0.000828728703988966
0.000949586073193747
0.00108348186127601
0.00123393412123306
0.00140435104383114
0.00159302997788396
0.00179755025455198
0.00201499997353749
0.00224189307778354
0.0024750385921529
0.00271363657757488
0.00296619281371063
0.00326382189096086
0.0036774604285141
0.00427616250782455
0.00486878598536103
0.00540720321011662
0.00589714634599995
0.00635045819350899
0.00677152155168026
0.00716505322586135
0.00753322870829263
0.00787813232156217
0.00820109126225505
0.00850337135760648
0.00878647041193553
0.00904289846189711
0.00927403074174238
0.00947972918891789
0.00965976413172722
0.00981404627898614
0.00994274381711545
0.0100464418212902
0.0101263335673452
0.0101844490422871
0.0102239588505555
0.010249460994556
0.0102674478231795
0.0102864769947958
0.0103177444251034
0.010373564048968
0.0104662265730009
0.0105909801173055
0.010701640545752
0.010669370311583
0.0104713310877722
0.0105863693196503
0.0109700095929492
0.011522767686504
0.0122168967425979
0.0130316505106446
0.0139631623864355
0.0150102172981866
0.0161791836233648
0.0174804919797104
0.0189408671327213
0.0205807758557175
0.0223760256231512
0.0242803191192793
0.0262451205433386
0.0282051890451151
0.0300720376225641
0.0317977349656596
0.0333078420042175
0.034489117024294
0.0354821474548754
0.0363783695973528
0.0372431029332416
0.0381324449570372
0.0391022800909299
0.0402288799410003
0.0416483719909992
0.0436604751543
0.0462736730541108
0.0489565993976236
0.0516496265570728
0.0542903555088022
0.0569359496927572
0.059357475351797
0.061181605194666
0.0613948584317963
0.0586318652418257
0.0524759729902804
0.0452133308675134
0.0383241930057023
0.0326107597300762
0.0279777331638181
0.0262766115688046
0.0263885439908969
0.040683298914142
0.041780217890932
0.0401854518352241
0.034547919349767
0.0268979111059905
0.0179518672730726
0.00984905205551637
0.00455114461933184
0.00228733608931115
0.00173568349107357
0.00143294454438651
0.00105403185794559
0.00073457085045895
0.000535028962219049
0.000430351158988753
0.000378749057280879
0.000353818666279648
0.000344504122059901
0.000346031719154114
0.000353972683044678
0.000366938544263724
0.000385329656383623
0.00041056598085767
0.000444757952030466
0.000490223483859425
0.000548428238576291
0.000619156374472477
0.000704276280709753
0.000806158667612159
0.000926117537984536
0.00106452394251026
0.00122078892428126
0.001393912851627
0.00158405362846535
0.00179496676570395
0.0020293020717851
0.00228364511678206
0.00255402733461312
0.00283661146189803
0.00312803752362652
0.00342690318369784
0.00373666665223263
0.00407338085727393
0.00447591698732706
0.00500114293095868
0.00564334261863537
0.00626548233484929
0.00682588831650785
0.00732990625224747
0.00779119014672276
0.00821605235047382
0.00860968932727397
0.00897529477027599
0.00931537613843325
0.00963191922427305
0.00992666950879693
0.0101946989520187
0.0104365553110232
0.010653767312766
0.0108465320936794
0.011015025847162
0.0111595341664653
0.0112805664625845
0.0113789933830417
0.0114562098392371
0.0115143323478307
0.0115564166689107
0.0115866975532124
0.0116107777122793
0.0116357031879193
0.0116694961475972
0.0117195988656677
0.0117878171110238
0.0118587433901366
0.0118852393634355
0.0118217244970901
0.0117804928259291
0.0119838414576711
0.0124121209373776
0.0130050159591272
0.0137407636898824
0.0146075947842892
0.015605186513419
0.0167380062432291
0.0180168607554884
0.0194589830393768
0.0210930795268195
0.0229318475729927
0.0249542332098579
0.0271280625414469
0.0294164816878087
0.0317643247813226
0.0340901109892648
0.0363578770432263
0.0384984850731081
0.0404203967018441
0.0422311907186591
0.0440102759335157
0.0458170539264269
0.047707034610734
0.0497392828658446
0.0519977063478535
0.0546316727514881
0.057965297409867
0.0620443239139554
0.0663334677276557
0.0707069968370393
0.075055984438458
0.0794041627237337
0.0834538589993786
0.0867147365748553
0.0879112101937135
0.0851385322705728
0.0776919963098971
0.0681766076517071
0.0585075810485428
0.0500596219586866
0.0430163938265951
0.0401252073211907
0.0399014448453596
0.055775275903697
0.0566751111084677
0.0545671614908085
0.0477078339653294
0.0379830853710147
0.0258985649226515
0.014284482041838
0.00652101485792473
0.00318513458215012
0.00237398503022789
0.00195467512766118
0.0014393833034693
0.00100474505588178
0.000732191819073436
0.000588488123861854
0.000517330255527492
0.000482900010409751
0.000469949162229396
0.000471772211940991
0.000482335092711921
0.000499709395592504
0.000524417805595859
0.000558365217971769
0.000604346955435665
0.000665280869606471
0.000742849475405481
0.000836666133687185
0.0009487449349168
0.00108132043196132
0.00123494498364132
0.00140868764532394
0.0016003785619858
0.00180768154332743
0.00202991882930563
0.00226936030909681
0.00252635560171064
0.0027967158963586
0.00307670510167259
0.00336418539813525
0.00365908042986263
0.00396480280399865
0.00429072654650188
0.0046570208436558
0.00509464580750869
0.0056189995117003
0.00614808783136781
0.00667744631780194
0.00715579244145729
0.00758902301322097
0.00798575278632876
0.00835247008090507
0.00869235392859758
0.00900850754266885
0.0093026708215997
0.00957674478815138
0.00982877553580889
0.0100573563781153
0.0102645355457338
0.0104510112105813
0.0106170215922083
0.0107628451252765
0.0108888615157424
0.0109956529747054
0.0110841038185856
0.0111555198443127
0.0112117662722309
0.0112553859092569
0.0112897341794798
0.0113189244349037
0.0113477147746648
0.0113804187734607
0.0114193948228487
0.0114591992781979
0.0114820112695843
0.0114567583236871
0.0114031244241413
0.0114736302463129
0.0117108906030349
0.0121238524379732
0.0126804255662723
0.0133638764327138
0.0141693473711936
0.0150979413422548
0.0161564776875714
0.0173564590443637
0.0187161385209013
0.020260087209281
0.021994161113802
0.0239022848091211
0.025965145670052
0.0281585025091457
0.0304417846729334
0.0327514738915847
0.0350739932119363
0.0373634405375271
0.0395741442401477
0.0417885958821178
0.0440792085408773
0.0465071320728637
0.0491344375158889
0.0520292283864914
0.055282066329669
0.0590367906023767
0.0635653735498226
0.0689273038160143
0.0747380444468968
0.0808260107924999
0.0870398543361779
0.0933113396218639
0.0992962314607243
0.104428944755852
0.107400994489216
0.106148944334205
0.099834605062852
0.0905355286520136
0.0799171614026332
0.0697024864898411
0.0606305751186696
0.0563932437277863
0.0553996207967655
0.0707149138079194
0.070797950570745
0.0680026217654203
0.060679090408346
0.0499950477274915
0.0355371816557476
0.0200880269387522
0.00908675660775569
0.00425573542225639
0.00307497497271941
0.00251706443829006
0.00185438539436003
0.00129704588632337
0.000946181481419825
0.000759978964511512
0.000667244648288713
0.00062222018264051
0.000605055374235592
0.000606763277472863
0.000619584519396927
0.000640981962341615
0.00067154688452421
0.000713576752529644
0.000770337751238405
0.000844913387794164
0.000938663980606992
0.00105059497665313
0.00118197484915574
0.00133368201282256
0.00150439088546849
0.00169115327276192
0.00189027415475498
0.00209892162494044
0.00231654965437471
0.00254434408540447
0.00278183278207613
0.00302709158935433
0.0032789647518938
0.00353858432765982
0.00380946104766816
0.00409855838899361
0.00441775692327955
0.00478502108776679
0.00521619864994656
0.00569186329504148
0.00610430619230579
0.00654996345196407
0.00695214660316835
0.00732333481431296
0.00766447386222869
0.00798233405539762
0.00827779890702284
0.00855373189296964
0.00881100865227222
0.00905041434638096
0.00926920401451937
0.0094689715902241
0.00965068192755463
0.00981477066705659
0.00996146446093969
0.0100910637611994
0.010203966254663
0.0103007540146811
0.0103822625559592
0.0104496655067524
0.0105045624410754
0.0105490285210572
0.0105856590383867
0.0106173815345834
0.010647198735553
0.010676937061524
0.0107059083706947
0.0107261034066431
0.010722437138045
0.0106800665755512
0.0106484698463008
0.0107689767717152
0.0110077011485817
0.0113902231142128
0.0118970971523579
0.0125144146717712
0.0132405077977315
0.014076468883904
0.0150291313187742
0.0161087770437515
0.0173316555314851
0.0187169470858788
0.0202664039184937
0.0219671724212062
0.0238061915759363
0.0257656464609222
0.0278118596951379
0.0298954623114887
0.0320159147666829
0.0341433653900454
0.0362618785841518
0.0384372784295566
0.0407358498312234
0.0432206281259669
0.0459601906076563
0.0490329613347822
0.052539082806269
0.0566219307376754
0.0614987089550513
0.0672257285424509
0.073611109389
0.0805035403665188
0.0877646325026282
0.0952433909236137
0.102595720122322
0.109224430936385
0.1139969005256
0.115131093837456
0.112135877416637
0.106028722369139
0.0975076395475839
0.0879307141678866
0.0784937794637919
0.073409275615045
0.0713292103279572
0.082895369543163
0.0816410596254802
0.0779753350716625
0.0710079395036335
0.0609965650422957
0.0461050179620818
0.0274833599187214
0.0125460665417056
0.00559222921523788
0.00384051805920004
0.00310674743426196
0.00228693878810587
0.00160347331419985
0.00117162523166558
0.000940431456638834
0.000824371694445037
0.000767556152361952
0.000745220196048982
0.00074570626510669
0.000759469241504941
0.000783287114408652
0.000817687904164417
0.000865115087716284
0.000928856523408689
0.00101149392998826
0.00111344847828693
0.00123279856673966
0.00136944158830601
0.00152247279761369
0.00168903901827062
0.00186540684316606
0.00204830281276401
0.00223635085553811
0.00243032547214083
0.00263111722795865
0.00283873079850176
0.00305398307421944
0.00327768498341003
0.00351292603391427
0.0037647480393064
0.00404100408251649
0.00435275624488031
0.00471270707143701
0.0051233878157512
0.00554754846998873
0.00588686420913263
0.00627969502546686
0.00663028130426293
0.00695998756390725
0.00726332590875674
0.00754782013665704
0.00781276027059332
0.00806092372479117
0.00829273641636316
0.00850702188421095
0.00870364419827764
0.00888380854301341
0.00904809970630788
0.00919685775708896
0.0093303137980438
0.00944878257593841
0.00955266864175917
0.0096425402090922
0.00971917640457874
0.00978362620226004
0.0098372591818475
0.00988177097204935
0.00991916390719329
0.00995149814399386
0.00998055894103479
0.0100066714785935
0.0100276272520134
0.0100353170737625
0.0100187563620345
0.00997491925306152
0.0099630000064344
0.0101011004149408
0.010330187499111
0.0106825587146617
0.0111444088620715
0.0117036129553333
0.0123597743408252
0.0131136246163541
0.0139712925778694
0.0149415401087696
0.0160380998770605
0.0172756310282549
0.0186536634985043
0.020161384233869
0.0217886365813501
0.0235206872423308
0.0253254992596378
0.027166086357646
0.0290460388063254
0.0309442891326844
0.0328592427544242
0.0348431330747374
0.0369529041190874
0.0392466435163049
0.041789751208916
0.044658879031176
0.0479507299412685
0.0517985391496833
0.0563743309977407
0.061717603306436
0.0677701215516822
0.0744276034566362
0.0816030842071855
0.0891176746931652
0.0966869339466317
0.103731560706244
0.109398629578486
0.112319064014214
0.112774849057477
0.111001061800976
0.106692245009742
0.100188568887338
0.092687598094458
0.0878857351711797
0.0848348003822589
0.0904475865886827
0.0877735650450817
0.0831912536958058
0.0770052095102755
0.0689270606284332
0.0560315796429672
0.036188271676653
0.0171923671049506
0.00736158778027962
0.00468636015823288
0.00370772686373614
0.0027199421884878
0.00191182617617883
0.00139990893609937
0.00112265522026444
0.000981924557460062
0.000911919742381146
0.00088282310793427
0.000879950707140469
0.000892050800025634
0.000915189175087483
0.000949682183503792
0.0009978255562847
0.00106247086765673
0.00114523073668042
0.00124547950961503
0.00136074357944414
0.0014898632563967
0.00163096351970129
0.00178107211074917
0.0019372479591946
0.00209781805205819
0.00226310745912401
0.00243468270793487
0.00261298564684892
0.00279851079665951
0.00299363728689561
0.00319994778767698
0.00342124931902879
0.00366279563773982
0.00393195780111781
0.00423766089102285
0.00458722657861074
0.00497424056562011
0.00535606976301572
0.00565483929380783
0.00601348737012503
0.00632957604424332
0.00663111746905548
0.00690836573155956
0.0071695156745176
0.00741291768197277
0.00764129285690051
0.00785432550913919
0.00805092354314452
0.00823185299352087
0.00839798829631198
0.00854975101420771
0.00868744714485804
0.00881132072799238
0.00892169762883857
0.00901898440476577
0.00910372988172088
0.00917665679492201
0.00923870120859535
0.00929103632678605
0.00933504913968075
0.00937227922000464
0.00940414875399486
0.0094316055707741
0.00945409348383239
0.00946877180814748
0.00946844611897203
0.00944603306664413
0.00940628136621299
0.00940887764968656
0.00954984465527704
0.00976655149114557
0.0100922598451323
0.0105161590970115
0.0110274100485525
0.0116260271217139
0.0123123734718877
0.0130917489754907
0.013971552608706
0.0149632441155421
0.0160780516974573
0.0173143454127365
0.0186627256067698
0.0201145436337846
0.0216565297471723
0.0232563436210548
0.0248886054660143
0.0265562494062599
0.0282435562427789
0.0299556141755375
0.0317341664314008
0.0336267878184412
0.0356841397205393
0.0379641064117924
0.0405351964029663
0.0434829705711289
0.0469234069079402
0.0509912387516093
0.0557031345788477
0.061066268791954
0.0670090304950858
0.0734873232477525
0.0803194726509181
0.0872974662762499
0.093879946596075
0.0994932000362613
0.103054087509183
0.105572955727138
0.107087679046215
0.106916546449137
0.104355315495588
0.100333365994183
0.0969799131585324
0.093543691120349
0.0931513785042059
0.0894219910145699
0.0840953041465241
0.0786659987512525
0.0728443483598531
0.063692161647204
0.0453473276631888
0.0231539589813941
0.00978955538694043
0.00565479125233766
0.00430322222523948
0.00313367605415389
0.00220631991378986
0.00161903055805802
0.00129651627577886
0.00113039553576516
0.00104570411748264
0.00100771567696135
0.000998552021107145
0.00100558634646454
0.00102428538812989
0.00105470066419646
0.00109880584547653
0.0011588048838679
0.0012353531410981
0.00132723075901649
0.00143210511332113
0.00154836332979377
0.00167399874785957
0.00180668106263004
0.00194459609119204
0.00208736495056302
0.00223616276394503
0.00239254343837833
0.00255646490670422
0.00272877721156583
0.00291250949167757
0.00310946484985575
0.00332361029097495
0.00355988549546984
0.00382468343006355
0.00412456187678622
0.00446242090281284
0.00482674503651986
0.00517619022212234
0.00545280383299145
0.00578711166345068
0.00607934118204979
0.0063606874027978
0.0066191475651273
0.00686321587763232
0.00709077815531533
0.00730451039721606
0.00750324921394781
0.00768687971582497
0.00785617288129774
0.00801183499055818
0.0081542115314681
0.00828359812686355
0.00840025271575825
0.00850450834996839
0.00859676937142467
0.00867756187886392
0.00874755392832358
0.00880757981728193
0.00885864430150608
0.00890188044851725
0.0089384626327329
0.00896933763386671
0.00899487620633579
0.00901402430305959
0.00902380260176188
0.00901826688545587
0.00899359221136222
0.0089593800825862
0.00897186894210692
0.00910906152889654
0.00931335780469098
0.00961601731898939
0.0100081862079628
0.0104800211111716
0.0110315538777126
0.0116628372051634
0.0123783842426265
0.013184449647699
0.0140905865841454
0.0151054617315923
0.0162268636788734
0.0174464329368714
0.0187563945820849
0.0201436599150706
0.0215765446893106
0.0230385817447502
0.0245308843421895
0.0260412731532561
0.0275779827252973
0.0291750010975423
0.0308720126243275
0.0327125563755851
0.0347466859262439
0.0370337946772524
0.0396472443052836
0.0426854041010872
0.0462542330294927
0.0503504388057596
0.0550067719511429
0.0601685393524341
0.0658167156735979
0.0717712836205511
0.0778880244436917
0.0836591126032159
0.0887363257608831
0.0921776836397761
0.0953832535613608
0.0984800285576555
0.101004572971252
0.101632954560942
0.101210666319471
0.0999256190406744
0.0968391654102634
0.0919136275728887
0.0876947795913732
0.0819635940587786
0.0770926030609079
0.0731221523200762
0.0681465633212991
0.053840574186992
0.0302750905154261
0.0131014241997772
0.00682494259399275
0.00489263919467181
0.00351293048436948
0.00247165724031255
0.0018154266155027
0.0014508365221612
0.00125951002275315
0.00115900959694596
0.00111017459807879
0.00109208773931
0.00109131920635334
0.00110295213339523
0.0011267823506558
0.00116437751758539
0.00121726638002978
0.00128539115115908
0.00136739518480301
0.00146140843870016
0.00156563725779169
0.00167824766139567
0.00179756300014584
0.0019225755060834
0.00205359324349023
0.00219199596351484
0.00233902908055478
0.00249438553420692
0.00265920888252041
0.00283671034309418
0.00302873250182115
0.00323915685034701
0.0034724113933853
0.0037337757103498
0.00402763520700648
0.00435361255249421
0.00469780706002007
0.00502309197476868
0.00528743829967915
0.00560316185905766
0.00587844408719802
0.00614471678783961
0.00638925763319412
0.00662045907123246
0.00683606658421156
0.00703861452383485
0.00722642461453769
0.00740026034003798
0.00756070894314997
0.00770837628070497
0.00784357243316069
0.0079665918071838
0.00807770445583416
0.00817724701190339
0.00826561827501084
0.00834331982455485
0.00841096764381917
0.00846930451068366
0.00851918998479442
0.00856154628963261
0.00859725689406965
0.0086269111420991
0.00865048367298921
0.00866666379750679
0.00867260215994102
0.00866364076467271
0.00863852549152744
0.00860972136559615
0.0086285351099879
0.00875898668977449
0.00895162819925345
0.00923435093127814
0.00959978494072525
0.0100388886298198
0.0105515265575401
0.0111374954933732
0.011800600826556
0.0125461425446044
0.0133820984450649
0.0143152082507816
0.0153429935699937
0.0164578844052739
0.0176526431126623
0.0189133290961141
0.0202106494371617
0.0215341283391637
0.0228830889837883
0.0242478839384128
0.0256381813066813
0.0270822748162568
0.0286135813082576
0.03026960052526
0.0320935532952066
0.0341367047913875
0.0364616957099326
0.0391517100833634
0.0422913798326569
0.0458631725470802
0.0499068955514625
0.0543765060520493
0.0592664949966636
0.0643995950010025
0.0696786531612623
0.0746216854964113
0.0790454509352054
0.0820553413740333
0.0851987660775966
0.0886382028408333
0.0923582467868192
0.0947990488551391
0.0970655496705399
0.097776792350763
0.0955575618036662
0.0879816910160933
0.0837951445267966
0.0780406634083332
0.0735708566274553
0.0708288274362682
0.0693181971149789
0.0606945463274196
0.0381127801576531
0.0174640787791284
0.00831297619373387
0.00549982673171777
0.00385642011257382
0.00269991297374978
0.00198009818104282
0.00157741795897008
0.00136204427149977
0.00124560036494852
0.00118511031193784
0.00115702719341697
0.00114768106283515
0.00115189756416882
0.00116915147909513
0.00120049860151428
0.00124679726549819
0.00130748731282123
0.00138127525190699
0.00146670584603509
0.00156187476762929
0.00166517140305435
0.00177539507289779
0.00189202679863994
0.00201567995158505
0.00214767346074004
0.00228896061056429
0.00243919623878636
0.00259975927051728
0.00277381744376099
0.00296318926471833
0.00317154030956964
0.00340271810025163
0.00366090748950323
0.00394866255524083
0.00426335169263561
0.00459042828197738
0.0048978878084002
0.00515539483344048
0.00545645245743351
0.00571955148860565
0.00597434473340439
0.00620845310205157
0.00642984583175378
0.00663634449087429
0.00683015403827642
0.00700969474839677
0.00717605230387533
0.00732972254173071
0.00747124633753846
0.00760091905110433
0.00771903724560324
0.00782588071609205
0.00792178685253856
0.00800714655933247
0.00808243626765145
0.00814822300967473
0.00820516741356052
0.00825400343783044
0.00829547710816348
0.00833023871032723
0.0083586078403008
0.00838029107151849
0.0083938747202444
0.00839677900245683
0.00838554054200021
0.00836086595956086
0.00833675342584861
0.00835924394031025
0.00848172261527949
0.00866361638544081
0.00892896934681298
0.00927162139535489
0.00968319322448558
0.0101632970420938
0.010711512618276
0.0113310163989649
0.0120263031999877
0.012804045665497
0.0136695130985818
0.0146201300589638
0.015648934018102
0.0167490163545604
0.0179047050593344
0.0190910422292919
0.020300716293029
0.0215317312746107
0.0227763524499685
0.024044796802344
0.0253611304328206
0.0267538638167891
0.0282555602013058
0.0299037881657078
0.0317430427166238
0.0338271712044551
0.0362269905826109
0.0390114268065417
0.0421539450990865
0.0456935205358466
0.0495891354152266
0.0538426071458685
0.0582807908172128
0.062840319932091
0.0670607492325627
0.0708741798367437
0.0734060996943709
0.0761993178685683
0.0793685571460674
0.0833081059350733
0.0863939539602928
0.0901518614097683
0.0923304623673106
0.0911305473764273
0.0825032425812401
0.0786997738046898
0.0732367106184525
0.0691006102703577
0.0670887071938571
0.0677595451094823
0.0652963421434643
0.0460727903814938
0.02291699280698
0.0102634935953062
0.00617638751780386
0.00417891991986661
0.00289498485920643
0.00211280608470188
0.00167492619699082
0.00143713457097138
0.0013056924255045
0.00123417963640371
0.00119682673176416
0.00118000495989921
0.00117822939459567
0.00119051493952583
0.00121730588927134
0.00125882186993475
0.00131414963718662
0.00138209821229054
0.00146148312485474
0.0015503483092771
0.00164731303955761
0.00175151424069626
0.00186273394991417
0.00198170874184431
0.00210963023484396
0.00224725932102461
0.0023943552107118
0.00255246323761889
0.00272459867756449
0.0029125229766372
0.00311961021610419
0.00334912031917807
0.00360423501304481
0.00388604697772147
0.00419049234232065
0.00450341272162959
0.00479784213286411
0.00505164370584169
0.00534104761378752
0.00559541781496055
0.00584144873380166
0.00606776956562834
0.00628170996783274
0.00648131541314324