/*--------------------------------*- C++ -*----------------------------------*\
  =========                 |
  \\      /  F ield         | OpenFOAM: The Open Source CFD Toolbox
   \\    /   O peration     | Website:  https://openfoam.org
    \\  /    A nd           | Version:  7
     \\/     M anipulation  |
\*---------------------------------------------------------------------------*/
FoamFile
{
    version     2.0;
    format      ascii;
    class       volTensorField;
    location    "20000";
    object      gradU;
}
// * * * * * * * * * * * * * * * * * * * * * * * * * * * * * * * * * * * * * //

dimensions      [0 0 -1 0 0 0 0];

internalField   nonuniform List<tensor> 
15600
(
(0.0307651439683857 -5.75323202450344e-05 0 38.8495853321742 -0.0327925577552295 0 0 0 0)
(0.0447927122569279 -0.00303371807434913 4.27054697337253e-21 41.8250834986676 -0.0494941681640578 7.66101506736028e-23 0 0 0)
(0.550991623850855 -0.0179313797732017 -4.42332097852019e-20 46.0079839149126 -0.556768008488524 4.79400864386465e-19 -5.33860507235917e-21 1.53783733721468e-22 4.8139773457233e-40)
(1.97128723784976 -0.107107968785777 -1.86498204896245e-19 43.249206075178 -1.96230445328008 -2.250089340424e-18 5.32338010119925e-21 -1.53345163555846e-22 -4.80024854105246e-40)
(2.92780201354106 -0.277313308032658 -7.21645916624551e-19 33.0869992414557 -2.93874473596287 -8.30962129562071e-18 0 0 0)
(2.68731057345001 -0.39787258468111 -6.77928446949022e-18 18.8319961082032 -2.71073365152025 -4.51019578853844e-17 0 0 0)
(0.492406383039934 -0.0920737861844876 -4.78278954928854e-21 2.88966586861245 -0.550307104791507 -1.81997665393589e-20 0 0 0)
(-2.31045703209886 0.714462826927919 1.33115484130314e-17 -7.31476257661853 2.24745790659043 6.34868338277039e-19 -2.45446085302532e-21 7.95512055044223e-22 2.4668645441785e-37)
(-3.70113461805919 1.38533372711474 4.68523790349822e-17 -9.81247016382716 3.65025347473094 1.23147694489761e-16 4.0802966750434e-17 -1.51769036100958e-17 -5.12426773212509e-34)
(-3.80511837186281 1.64000154673026 -4.30931097941614e-18 -8.78379207993315 3.76857405349164 -2.99740136567191e-19 0 0 0)
(-3.64809093678946 1.73753990283646 1.31653074767368e-16 -7.61210613108252 3.61448174343123 2.73053655024868e-16 0 0 0)
(-3.22976483256526 1.65205504311007 -8.65239978829875e-18 -6.27763680774233 3.20378233229091 -3.10485520334452e-19 0 0 0)
(-2.82734797996427 1.52073883277499 4.75569537119515e-17 -5.22670069358292 2.8067424092502 5.90867771019335e-19 0 0 0)
(-2.47767100483634 1.37823850973626 1.4728537847499e-16 -4.43174689380601 2.46265827017364 3.02847472783157e-16 3.95541255110375e-17 -2.19795051825574e-17 -2.70664105356906e-33)
(-2.23386892708955 1.2647856643941 -3.91138891154036e-16 -3.92612189267867 2.22191715370649 -6.04020010732972e-16 -3.51801970490534e-17 1.99095494537058e-17 -5.41214118010935e-33)
(-2.04202663872965 1.15937341196537 -4.76755053260262e-18 -3.57986139580969 2.03274601397637 2.89606385276783e-19 2.55931961206992e-22 -1.43804389577385e-22 7.74649561458046e-38)
(-1.88991068788068 1.06087858719239 -3.55365446682092e-16 -3.35149876634895 1.88238212335821 -6.2770711304343e-16 0 0 0)
(-1.7782817623437 0.982083200313475 -4.97461302707568e-16 -3.20721944609378 1.77248914600088 -9.51304372123876e-16 -8.97728494483893e-22 4.89100369512444e-22 6.56638689784588e-43)
(-1.70645051451557 0.928028495871367 -5.26022854868126e-16 -3.12655058797457 1.70150037987163 -9.66868382894526e-16 8.54108055862273e-22 -4.6533508548813e-22 -6.2473275403639e-43)
(-1.65099767116759 0.885573594092183 3.66420720325974e-17 -3.06851932964589 1.646968262238 -1.20675841755326e-18 1.70909148936377e-21 -9.06971709982971e-22 -7.35071930755306e-37)
(-1.61200638175905 0.854259090403023 -1.69889996861222e-16 -3.03379523951594 1.60863837863641 -3.2479586021629e-16 2.6732210297865e-17 -1.41743114951297e-17 2.86042877351084e-33)
(-1.58532459061975 0.831687862261222 -3.54747903654367e-17 -3.01536484284999 1.58268516734486 1.38675771103952e-18 0 0 0)
(-1.57423733216474 0.819295707864966 5.71798969282901e-16 -3.01980492647504 1.57224450369525 1.01904636486718e-15 -2.64969835009054e-17 1.37953798904028e-17 8.95662341838856e-33)
(-1.58052843874329 0.817822570457712 8.93166055244616e-16 -3.05098040963442 1.57915593891079 1.7290856390713e-15 0 0 0)
(-1.6078781636454 0.828779199596144 -6.20589190731615e-16 -3.11694778980572 1.60700629066331 -1.03704286969971e-15 3.4733886003024e-21 -1.78222251489027e-21 1.53653426388369e-36)
(-1.64735930117887 0.846274200413824 1.71085064158918e-16 -3.20426487480296 1.64670740731879 3.38842617210396e-16 -2.80285362358637e-17 1.44040260253635e-17 2.9595752243076e-33)
(-1.68677205809091 0.859494453502411 4.43852456308747e-17 -3.30713697367303 1.68647840982119 -2.63816907394277e-18 0 0 0)
(-1.72749007637973 0.867163371699529 -2.37375446978411e-19 -3.43686899426936 1.72752698734189 -5.27358380286888e-19 0 0 0)
(-1.76788625526629 0.867825312134194 2.691415573798e-17 -3.5949695993553 1.76817266983183 -6.74581169864067e-19 7.98649638970551e-21 -3.85461122218418e-21 -1.58875783907744e-36)
(-1.80339640820545 0.858701624042109 1.50693907450591e-16 -3.77807574198334 1.80385400945196 3.75552946684216e-16 -7.73238808787967e-21 3.7319681176145e-21 1.53820794375402e-36)
(-1.82783649533025 0.836622904431358 5.31713252099589e-17 -3.98014491431671 1.82840845781882 1.77522275030504e-16 -1.70303789313711e-17 7.82268319553283e-18 7.52356662226932e-34)
(-1.83445130234442 0.798824548525483 3.00121259280391e-16 -4.19417599668228 1.83518463200661 5.59437328941526e-16 0 0 0)
(-1.81623144633224 0.743442109933648 1.62015465170602e-16 -4.41138805452365 1.81718790040066 3.9425109160194e-16 1.85514348133135e-17 -7.64072228853459e-18 -1.6578871820522e-33)
(-1.77263357160817 0.672687034793141 -2.86071829913918e-17 -4.63663777902013 1.77408664956831 1.7591059883069e-18 0 0 0)
(-1.71404602341994 0.595275949444657 -1.40711422614271e-19 -4.89049831748817 1.71614775944115 -4.01781448272199e-19 -1.03058175362131e-20 3.42667813459433e-21 -1.61515220361502e-39)
(-1.6431884990764 0.516477339492179 2.44608184999283e-19 -5.16838040282742 1.64559504710153 5.79269022582841e-19 -7.15255169905406e-22 -1.14531511681615e-22 3.18616182327759e-39)
(-1.55249868991753 0.435726790550495 -3.31631908558001e-17 -5.45141483023129 1.55527618868495 1.72409623254018e-18 1.05374155650918e-20 -3.15895822852525e-21 -1.57541287045946e-39)
(-1.43914395307526 0.354526775772111 -6.30317679549235e-15 -5.73070053602047 1.44229611758494 5.35464707581659e-16 -2.29842167651579e-17 5.78293074223507e-18 7.33117872335221e-34)
(-1.30126126146448 0.275013322299514 1.69863213529208e-14 -5.99684291670593 1.30486632170668 1.10263758866417e-13 -4.47116718402252e-15 9.72744392211787e-16 8.26448508576571e-29)
(-1.13897287553675 0.19997388619706 2.63186379895539e-14 -6.24381922613865 1.14314697886085 1.11401075405033e-13 -4.65950172990047e-15 8.5290603226209e-16 8.27124793979317e-29)
(-0.953907754005042 0.13244237500687 6.39669814540067e-15 -6.46724535522882 0.958573688658284 -6.48599732265111e-16 1.27943782659726e-20 -1.66381917167e-21 5.53161133641186e-42)
(-0.750181430640023 0.0755409718040644 -9.00214376999746e-18 -6.67921864588456 0.75558142661307 6.04303085688103e-19 -1.26813514623177e-20 1.6491208284661e-21 -5.48274453449161e-42)
(-0.528450363619214 0.0314187528146351 -8.84259127940352e-18 -6.89062206813402 0.535924911447507 -1.168903709563e-16 0 0 0)
(-0.302662270211917 0.00321312067487861 7.83043669796257e-18 -7.10830904738013 0.305163472400587 -9.87992351566954e-19 0 0 0)
(-0.0941074563519071 -0.00460089949035817 -5.41119702394283e-15 -7.84664433827773 0.106187476119033 1.94362075310221e-16 1.61722471264263e-20 -1.02394155072942e-22 2.61634153614407e-34)
(-0.0431515096365268 -0.00114942942548551 -5.50540060187952e-15 -8.96006049450848 0.0493290139459259 1.93905151937036e-13 -5.14132441549654e-15 2.82991136804005e-17 1.1154233485581e-28)
(-0.0316942940178397 -9.80072182884639e-05 5.41095301068287e-15 -9.74932188512069 0.0379872571863704 1.94708182788555e-13 -5.61005835511068e-15 2.18451690940539e-17 1.11779310004489e-28)
(-0.0245297593126227 -7.87166719851303e-05 5.50693520798997e-15 -10.3581134759426 0.029832884345418 -1.83467056116689e-16 0 0 0)
(-0.0192945581206254 -6.39558705284888e-05 1.92753440943262e-20 -10.8256031987487 0.0243666576767933 3.32446763541973e-19 0 0 0)
(-0.0154924186725664 -6.23200138749909e-05 -1.92620494921713e-20 -11.1991123985877 0.0200364939764428 -8.18461893850364e-20 1.13293523459915e-20 -1.60934371622089e-23 -3.21340469319901e-43)
(-0.0124365881627163 -6.02188442610494e-05 -1.92753440943267e-20 -11.4945244146434 0.0166470520061758 -2.4896521601317e-19 -1.13293523459915e-20 1.60934371622089e-23 3.21340469319902e-43)
(-0.00997358197339786 -6.13889514381781e-05 3.97487426418498e-20 -11.729673802985 0.0137612194980916 3.50320490077696e-19 0 0 0)
(-0.00787092088245294 -6.24846246772471e-05 -2.0479757370249e-20 -11.912931591181 0.0112752468883131 -8.49500146985746e-20 1.20612689446622e-20 -1.16437857866862e-23 -1.67642976816854e-43)
(-0.00605036296851299 -6.43855439954126e-05 -2.04866931496809e-20 -12.0521739709455 0.00903729256759088 -2.64861985084011e-19 -1.2061268945321e-20 1.16437857873096e-23 1.67642972095553e-43)
(-0.0044240880639977 -6.6153261990893e-05 3.14081544314903e-20 -12.1521416989753 0.00699469403489048 1.86238864647303e-19 0 0 0)
(-0.00295141649375708 -6.79894709262595e-05 -1.09273602625748e-20 -12.2169181493322 0.00508810602414902 -4.49498315396107e-20 6.19289109836905e-21 -3.4226044859248e-24 -1.25300993183054e-44)
(-0.00159660326828442 -6.96429805181102e-05 -1.0928397061245e-20 -12.2494215799569 0.0032913822775732 -1.41406168352625e-19 -6.19289109701435e-21 3.42260448556091e-24 1.25301149682621e-44)
(-0.000341306809112824 -7.11174568955382e-05 1.09273602625749e-20 -12.2522120028145 0.00158003817396664 -9.96850683873257e-20 0 0 0)
(0.000826897254347242 -7.22128236624964e-05 0 -12.2274071992316 -5.2950434161784e-05 9.95886449603732e-20 0 0 0)
(0.00191138835290723 -7.28874421141286e-05 -7.29009326386035e-15 -12.1770398189951 -0.00160940817708457 0 0 0 0)
(0.00291178628882659 -7.31047821156588e-05 -7.44428128221553e-15 -12.1030937913941 -0.00308570100582563 3.27431404262732e-14 -6.9547667652164e-15 -1.77312764709442e-18 1.88150842887221e-29)
(0.00382327446686611 -7.28436113204134e-05 7.29009326386034e-15 -12.0076282403685 -0.00447493011825472 3.36385610595547e-14 -6.89842172221125e-15 -2.57097859547272e-18 1.93515689485005e-29)
(0.00463734511439323 -7.20630708816956e-05 7.44428128221572e-15 -11.892842267064 -0.00576580525395179 3.81555346498824e-17 -6.57652564453509e-31 -3.18820586344594e-34 1.83043395597808e-61)
(0.00534205934032284 -7.07621829276479e-05 7.3187060190522e-31 -11.7611669414851 -0.00694326554871767 5.62678512383062e-33 0 0 0)
(0.00592212189159616 -6.89088672955633e-05 0 -11.6153151780719 -0.00799011950006197 2.31580313459035e-19 0 0 0)
(0.00636034274105677 -6.65838231900167e-05 -2.75321196599881e-20 -11.458357809698 -0.00888412104431041 -2.32311895777019e-19 0 0 0)
(0.00663691579682435 -6.37359915677821e-05 -5.21976969503955e-22 -11.2937145096114 -0.00960734051733742 -3.56572685981148e-19 -1.1505139843349e-20 -1.1859638840229e-23 -6.7808848068659e-40)
(0.0067353672155315 -6.07082235190395e-05 5.56064565986168e-20 -11.125219698017 -0.0101317335061503 -5.69054389623499e-21 1.62798859016813e-22 -1.46736313041496e-24 1.34404961133835e-39)
(0.00664014197227274 -5.72877321065926e-05 2.96474751293061e-20 -10.9568886406641 -0.0104578361436268 3.6426794811218e-19 1.13423409837258e-20 1.33270019700653e-23 -6.65961130631679e-40)
(0.00635832899003958 -5.47487596697781e-05 -8.68651647856506e-20 -10.7929635835023 -0.010555804669053 3.75044686283196e-19 1.10281582266666e-20 1.60350077024633e-23 7.17033187805969e-40)
(0.00590830885454202 -5.18752670697911e-05 3.07251148663323e-20 -10.6368645395627 -0.0105293101400317 -7.60448207075353e-19 -2.19135082135788e-20 -3.33238793775799e-23 -6.91417387974407e-40)
(0.00554928177751109 -5.68466209065158e-05 9.23390389983595e-15 -10.4909285392175 -0.0103887630060269 2.8474424956083e-16 2.16365696861997e-20 3.59517686596754e-23 -2.23190409094081e-34)
(0.00523716395167464 -6.05995804775021e-05 9.34594461815199e-15 -10.3484323489077 -0.0107959872688506 -4.2264764590189e-14 5.9543395795592e-15 6.21729300976999e-18 2.41235357754673e-29)
(0.00606569426263766 -8.1100089702235e-05 -9.23384510900813e-15 -10.2064473662503 -0.0119801228755354 -4.53111147327403e-14 5.85596462308918e-15 6.86526413997028e-18 2.62296726841399e-29)
(0.0155183606509309 -0.00150937725923855 -9.34394937205739e-15 -9.99375842412313 -0.0193491735923993 -3.34134769426864e-16 0 0 0)
(0.0913912343586278 -0.006554273741678 -1.85439412951195e-19 -9.46238123253675 -0.0990064664239662 2.66107746144647e-17 1.15082167349984e-18 1.20043942838385e-20 -3.23578945041802e-36)
(0.377106027084876 0.00324179974262427 -8.08941208298703e-18 -8.89288840479282 -0.374614411652263 1.48452914870066e-16 0 0 0)
(0.66534508577223 0.0382137317904927 6.471611360073e-20 -8.64122721865082 -0.660216972597283 -8.61690993301364e-19 -1.76476118114978e-20 -1.61736163012456e-21 -3.26505720587038e-39)
(0.948440421883426 0.0930923614696937 1.30047563700529e-14 -8.45954375318843 -0.939855916021071 1.24852705569133e-15 3.74532925529936e-22 -5.53921138517188e-22 6.39384428903121e-34)
(1.22225050383233 0.166158477345287 2.20145970231461e-14 -8.30699067464969 -1.21045608520992 -6.24682512814186e-14 6.19899184917762e-15 9.03025087047708e-16 4.60360615212321e-29)
(1.48198216207968 0.255339343696646 -1.01625532806008e-15 -8.14408331317994 -1.46687549624532 -6.91588019962103e-14 6.06762606603144e-15 1.09271297619442e-15 5.21561250891183e-29)
(1.72204643728952 0.357645437830341 -1.30924451399937e-14 -7.95327623934048 -1.70346980677721 -7.02253026513084e-16 -1.66564632028868e-20 -3.73650875607775e-21 -2.21989728100049e-41)
(1.93606152178103 0.469185075301757 3.17854182755736e-16 -7.72123641509017 -1.91398072034166 -1.27863082140731e-15 1.69391682406253e-20 3.79992737238485e-21 2.25757491621971e-41)
(2.11693473334201 0.584991564629538 2.86099882485337e-19 -7.43778963977809 -2.09124730413672 -1.26085563301835e-18 0 0 0)
(2.25696259539684 0.699096458262192 4.13060623619998e-16 -7.09436326196447 -2.22775463288787 -1.3123498117939e-15 0 0 0)
(2.34758765480212 0.804261424397644 4.60432132761832e-16 -6.68300708626197 -2.31502138920018 -1.32580843621136e-15 -1.44476794369561e-20 -5.0197678622592e-21 -3.9390389421479e-41)
(2.38111211949417 0.892480610521629 -3.47046139915518e-19 -6.2018141828524 -2.34532192823677 9.14382302612252e-19 1.48414419053077e-20 5.15657849628665e-21 4.04639498528005e-41)
(2.33819437728921 0.946394846696816 4.86300483526663e-16 -5.64257810237271 -2.29985700405712 -1.36258497870665e-15 -1.23713579121334e-20 -4.94194886508027e-21 -3.80892550051827e-36)
(2.19892891443394 0.948023328016279 -1.11153207305301e-16 -4.98077535525176 -2.15922645357586 4.23231777114696e-16 -2.11339209558344e-17 -9.16090874388111e-18 1.78155807980775e-33)
(1.95313651924207 0.886954221569899 -3.71657478111235e-16 -4.19453494971836 -1.91348276084426 9.67504093428401e-16 0 0 0)
(1.59432630301704 0.756132757348542 3.96955357401819e-14 -3.26873115781391 -1.55654128307293 -5.65797654936276e-16 1.40925207104652e-17 6.70994198680088e-18 1.21893963439864e-32)
(1.12128967022227 0.552740993830249 1.59860641726682e-13 -2.19564555137645 -1.08715081374688 -2.5227559810818e-13 5.49954651658253e-15 2.72214164245472e-15 6.23985891145088e-28)
(0.534108149158391 0.276934592435987 9.50586587963484e-14 -0.965759046059955 -0.505754295373655 -2.7515356217594e-13 2.40465446047798e-15 1.25974334007303e-15 6.91215044969326e-28)
(-0.158530132315775 -0.0649634045773014 -3.72414615555237e-14 0.418432049921813 0.179467551375568 -4.12529584549879e-15 0 0 0)
(-0.947197930885337 -0.463726316361778 1.31639273360472e-16 1.95768658383243 0.958782588896244 7.03954927013684e-18 0 0 0)
(-1.79913546847719 -0.8986764687492 1.14222738980234e-19 3.60657883198332 1.80138320679883 -2.25329280182703e-19 -4.59183394983895e-21 -2.35688125055608e-21 -1.03268768892194e-39)
(-2.70242432382657 -1.36480572925544 -1.15000007856658e-16 5.33547869389502 2.69475313511122 -4.5085625169682e-18 -1.83921978186901e-21 -9.334398715809e-22 4.12792367088423e-36)
(-3.67115585807558 -1.87303578401287 -2.11241112007768e-15 7.158868967219 3.65332101832833 3.86481775871443e-15 6.28079042607797e-17 3.2052074955216e-17 3.39284250647805e-32)
(-4.71741691270414 -2.43332308904767 1.17712798804216e-15 9.08660752942672 4.68876940308778 -2.00645790270388e-15 -9.05584862670745e-21 -4.64774550339818e-21 8.66359250808915e-36)
(-5.86165299850203 -3.06067125301142 1.13586752434966e-16 11.1432193279374 5.82127068980258 4.07453646333073e-18 0 0 0)
(-7.13010408442797 -3.77411647493792 9.59455479041815e-17 13.3615686930641 7.07660117108119 1.24524600578988e-18 -1.1805376007617e-16 -6.25233817095246e-17 1.67828304910139e-35)
(-8.56014919835387 -4.59987921740291 5.63047219142888e-16 15.7921667186784 8.49142432989091 -8.79874246203248e-16 -3.6498456336025e-21 -1.89255686132281e-21 -8.64109536770801e-38)
(-10.2081010658899 -5.57603458687887 3.7264316322378e-16 18.5163400653911 10.120926533177 -8.65745852557026e-16 -4.97442267496552e-21 -2.66284260462576e-21 -2.09677986577401e-36)
(-12.1824747453113 -6.77110575022617 1.41540956419277e-15 21.7065033412936 12.070503326074 -2.68124974228077e-15 0 0 0)
(-14.6084510048821 -8.21714020366906 1.60452262619482e-15 25.7070529453645 14.46067503726 -2.57458220873841e-15 1.97052180035706e-21 1.08679282954654e-21 4.30563876566251e-37)
(-17.3345493118872 -9.73785819799508 -1.91852240657147e-15 30.5437272603679 17.1501205377059 3.35439596351597e-15 -2.73685008169008e-16 -1.53671854374492e-16 -3.00621365151397e-32)
(-20.212957173993 -11.1761548255081 -9.10613482065783e-17 36.1887891516282 19.9899758909057 -1.96593738686724e-19 0 0 0)
(-23.1201139692188 -12.3887004754887 -7.3459026764048e-16 42.7297745881459 22.8618112067575 1.42595418268326e-15 6.44506916958477e-21 3.28905848739561e-21 6.91314446891767e-37)
(-25.8993633483589 -13.2136597648408 2.39968781972785e-16 50.2992553446426 25.6075753722592 -5.73993388475429e-16 -4.40735720055424e-16 -2.24373027639323e-16 5.03488814169773e-33)
(-28.2225769341354 -13.4171800358846 -4.38561616618336e-17 58.8788956131935 27.9078704163068 1.40430637568069e-18 -1.71948853427534e-20 -7.57694949569236e-21 -1.12217557208627e-42)
(-29.5921846759661 -12.7252200613802 6.59205132511689e-18 68.3481668599342 29.2665298466138 -3.28951557023294e-19 1.79163915042985e-20 7.89488216217344e-21 1.16926263160754e-42)
(-29.1274220239825 -10.8767758574935 4.32725118696208e-17 77.6768950469346 28.8227972692243 -1.10817272437225e-16 -3.22985084592149e-16 -1.19831908160621e-16 4.60077176055466e-34)
(-25.9345966588555 -7.90804871775797 6.32547580966732e-18 85.0705530211195 25.6820903988814 -3.69656281003204e-17 -3.4614280641332e-16 -1.04480645059305e-16 1.51578932644233e-34)
(-19.1578110305967 -4.36740025181832 5.33637013179595e-18 84.9098318803025 19.0244210689619 -3.31884438427858e-17 3.38736309217744e-16 7.58796130681543e-17 -1.32822278787077e-34)
(-11.8175729031144 -1.86821887788422 1.45390799483386e-17 76.8283279094685 11.7657728653051 -1.0738654877503e-16 -2.88619312971674e-20 -4.87865048932924e-21 -3.51496363638466e-38)
(-6.20995026109972 -0.628644797068205 5.53306456118822e-18 65.5003462464682 6.20942769017848 -6.45239448911099e-17 8.67644217435453e-21 1.08095054263645e-21 -3.22784461140106e-42)
(-2.71923384853503 -0.160260178960564 -1.76723422947433e-18 54.8339088430112 2.72387739726068 3.76116692857193e-17 -2.67014366274128e-17 -1.32600041150033e-18 -1.83200506137497e-35)
(-0.617506736729 -0.0220788805427442 3.60928766869019e-19 43.9271162967809 0.636277927475962 5.97392381330214e-18 0 0 0)
(-0.0367971048639577 -0.0031180698912932 -1.32359680154966e-34 36.6499330743583 0.0367733168035337 9.22606779290169e-22 0 0 0)
(0.0173944993059643 -0.000128201123103814 0 37.0043464154394 -0.0174022652934294 -9.23233112313171e-22 0 0 0)
(0.0783607911451502 -0.000673245758169473 2.11211061037637e-23 39.5080425903631 -0.0749291930108525 0 0 0 0)
(0.118114571891108 -0.00884405389409475 6.57802817783951e-21 41.8038502495107 -0.11561901087224 1.18004492865343e-22 0 0 0)
(0.556931357329021 -0.038831606797089 -5.40665849391961e-21 45.0943568485871 -0.56527820052656 -4.60825037951493e-19 -1.08841407921045e-17 1.33966928088957e-19 -3.55822846835017e-40)
(1.83390056371403 -0.12721270910034 -1.7268020389701e-19 43.1988712263191 -1.82909116602337 -1.07734487704441e-18 0 0 0)
(2.82163650899141 -0.275293897867087 1.16237209933233e-15 34.8494879749001 -2.82123192181306 1.25997330077561e-14 6.52826621997872e-17 -5.52814040536325e-18 1.23072693799023e-32)
(2.81025625274332 -0.38012958286929 8.56135486440239e-15 21.9686956888209 -2.77545556571967 5.65558663052135e-14 7.90634805516651e-17 -1.06155861133336e-17 1.11270736995626e-31)
(0.992359149968968 -0.119106764077681 1.08081436361256e-18 6.5747979073896 -0.939504022138721 5.15142842424341e-20 7.97280855312022e-21 -1.14519519435575e-21 -2.0958258030554e-38)
(-1.66336174082461 0.607944139469773 -1.0271819347173e-17 -4.61673727945613 1.7216574466134 -5.24563455750812e-19 0 0 0)
(-3.15609544450365 1.23700334854118 -1.786494054416e-16 -8.28566991108968 3.20027396952734 -4.76090342218187e-16 -3.93467746153556e-17 1.46351541842904e-17 4.94200887327779e-34)
(-3.37716232159152 1.48608293417771 1.01191363209866e-17 -7.86188559272497 3.41422551360297 4.09468313827629e-19 -6.70185884740067e-21 2.70615639575071e-21 -1.71928365027576e-37)
(-3.28259134464616 1.58332175492333 -1.26404161059065e-16 -6.93045628558898 3.31198917852208 -2.63284513393847e-16 5.43338214567091e-21 -2.68410337520336e-21 1.11451660085237e-42)
(-2.94235316800992 1.51618157040369 2.52879671027987e-20 -5.79606234924607 2.96649708762091 5.04585007607911e-20 -5.18484739775407e-21 2.56132663359861e-21 -1.06353618110356e-42)
(-2.60631496896581 1.40856669046293 -3.66853204978112e-17 -4.87906303035702 2.62429072437671 -4.59141572247196e-19 1.9449790610532e-21 -1.06560862456997e-21 2.47451513928185e-37)
(-2.31084076654112 1.2899556342563 -6.58238497721035e-16 -4.17748992988168 2.32482626721172 -1.17531905723281e-15 -3.81441460011382e-17 2.11959909237845e-17 2.60979700723029e-33)
(-2.10106858733695 1.19333394514011 1.38399518471709e-15 -3.72298025996639 2.11177889523481 2.37895835276295e-15 -3.33473996122048e-17 1.89155844214158e-17 2.13057289469031e-32)
(-1.93394386033307 1.10066513492586 5.18486216638065e-16 -3.41172104748372 1.9426718656422 9.14036283634203e-16 1.41300897854103e-21 -8.00291856129727e-22 1.63541170793633e-41)
(-1.80065795960672 1.01269729814791 2.92595143201357e-16 -3.2077172643746 1.80734302490668 6.06397475679982e-16 -4.00061984437412e-21 2.24512675023797e-21 -5.29453216985108e-37)
(-1.70276512292154 0.942290574814118 4.51587392128053e-16 -3.0801183479816 1.70834827982744 9.15769352349324e-16 -5.49286511406946e-17 3.0410359819666e-17 -2.40932905324949e-35)
(-1.63911180409369 0.893389546912378 5.48781316526415e-16 -3.00895881353888 1.64363126064078 9.28222201241621e-16 -5.34052736784904e-17 2.91173416328177e-17 -2.99917328110935e-35)
(-1.59081697216999 0.855111068218524 -7.3063291222002e-18 -2.96050821446318 1.59465881088767 2.73267540869009e-19 0 0 0)
(-1.55787993152687 0.827323639621814 -8.84419093445735e-16 -2.93391716681735 1.56099465295912 -1.67343435408467e-15 -2.5783635386655e-17 1.36713460648585e-17 -2.75808095123674e-33)
(-1.53740022018166 0.808329769638902 1.16201659082336e-16 -2.92410711740405 1.53989923675318 -4.75353147144912e-18 0 0 0)
(-1.53228592491522 0.799534360457963 8.372390361609e-17 -2.93637008572892 1.53414420858589 3.29073890483652e-17 2.55559905347178e-17 -1.33054616533963e-17 -8.63854496099711e-33)
(-1.54418982991734 0.801644256875556 -1.50454852404223e-15 -2.97415628955598 1.54544477298589 -2.67737874927351e-15 5.18286451690763e-17 -2.68785963521647e-17 8.89008540346256e-33)
(-1.574607219089 0.814920074218024 5.14174590949284e-16 -3.04218575705135 1.57559386658245 9.94244000159843e-16 -5.29309809502552e-17 2.73517277711943e-17 -8.69469210980677e-35)
(-1.61587882860434 0.833551923263254 4.36436272192439e-16 -3.13004981904605 1.61653409750765 7.21329130241218e-16 2.70410057648958e-17 -1.38965156415612e-17 -2.85820458579732e-33)
(-1.6579591964849 0.848055944903254 -6.83644361931468e-17 -3.23436822190715 1.65835345520412 3.11849249227136e-18 -9.96896442266305e-21 5.10823247732971e-21 2.14493857415533e-36)
(-1.70090198449 0.856843681102969 3.00225442918551e-19 -3.36334819972904 1.70108559736885 4.91450654774989e-19 -2.21243224411178e-20 1.10097445000101e-20 3.66271556289942e-41)
(-1.74237832022847 0.857959187503506 -1.64547920310178e-19 -3.5178580019702 1.74244641782581 -3.30855663733804e-19 2.14110656625839e-20 -1.06548059514756e-20 -3.54463480765673e-41)
(-1.77774395035172 0.848452141990547 -1.29549507969277e-16 -3.69465116543396 1.77780723263426 -3.63786659573957e-16 -2.41180792285213e-20 1.13049489822912e-20 2.33871178102009e-36)
(-1.80121456152016 0.825264821281787 2.19563568692541e-16 -3.88847451297413 1.80133443891633 3.84386487068377e-16 1.64761570397365e-17 -7.56806099610541e-18 -7.32639535559307e-34)
(-1.80668165743391 0.785915552115268 -2.68259428104828e-16 -4.09351678078582 1.80695800444575 -5.26224703816415e-16 3.45261238743511e-17 -1.51700906784552e-17 -5.64851423645643e-35)
(-1.78935803599215 0.729574755238719 -4.22242184001853e-16 -4.30495439131634 1.7895243905352 -9.31963905806528e-16 1.81081299890445e-17 -7.52376737068932e-18 3.92895950273337e-33)
(-1.74963108550186 0.659225223200398 2.11444862894413e-16 -4.52822136555116 1.74948489868013 5.60430389874953e-16 0 0 0)
(-1.69383969958294 0.582181890758025 -1.95969010640455e-16 -4.77473288170074 1.69368951321874 -5.67155096844756e-16 0 0 0)
(-1.62335738417823 0.502738681241051 -4.00638432510306e-20 -5.03857359775858 1.62308307676431 2.18032169851377e-20 3.10761379504058e-20 -9.38051693520835e-21 1.17926299868461e-41)
(-1.53256476324104 0.420879534905751 4.88534623458527e-17 -5.30586742856313 1.53228550766555 -2.65925381154312e-18 -3.04042245420842e-20 9.17769587952204e-21 -1.15376553751301e-41)
(-1.41948443471055 0.338525658232016 1.54559048325475e-14 -5.56912231917393 1.41912662827787 -4.14232391893281e-16 2.21751743343807e-17 -5.57937208315531e-18 -7.07312187001648e-34)
(-1.28306061531841 0.258061284160575 1.90167453781747e-14 -5.82185998310772 1.28255746262641 1.40692556404445e-14 9.92584211930821e-15 -2.16605195088858e-15 -1.37939055866294e-28)
(-1.12388031877683 0.182386939454437 -1.21959525415662e-14 -6.06058271124191 1.12319877888575 1.65509212785605e-14 1.03513147645814e-14 -1.90043048235778e-15 -1.39916863450487e-28)
(-0.944394913057205 0.114632437329584 -1.55290577617404e-14 -6.28589028332862 0.943158193044695 7.83222828119582e-16 -2.46370989526255e-17 3.67078173470666e-18 -6.27768620184707e-34)
(-0.747889301886281 0.0576348456343363 2.53015534973569e-17 -6.50744628658881 0.746354539855414 -1.37273645438676e-18 3.79322498504377e-20 -3.60930838513612e-21 -9.62142511818818e-43)
(-0.537194091045836 0.0139618340270754 8.40710187043707e-18 -6.7431636582513 0.537031974648909 1.12720829424189e-16 -3.77034090589761e-20 3.58753385315502e-21 9.56338019473344e-43)
(-0.340905390150946 -0.0118724563546356 1.00560450597799e-19 -7.08240518360708 0.330828306542395 -2.69521572345001e-20 -4.16606441932518e-20 1.17464198794892e-21 -2.71199155368073e-41)
(-0.15868605625716 -0.0138553140197137 2.11220839648115e-14 -7.7188935009538 0.159495481457967 -7.98738600722506e-16 4.16371803729296e-20 -1.17398041420031e-21 2.71046412452635e-41)
(-0.107482409485804 -0.00425217211667527 2.13148080873557e-14 -8.48696439689342 0.100794726529036 -7.64243807911307e-14 2.20421057866471e-14 -1.75024276946785e-16 -2.17681857324156e-28)
(-0.0790042397795787 -0.00145609204869206 -2.1121344730874e-14 -9.03683587214938 0.0742472508173024 -7.32896832716636e-14 2.38188697365924e-14 -1.31698224550878e-16 -2.22386985041568e-28)
(-0.0606941718828729 -0.00100884539362485 -2.13165091184469e-14 -9.45249729717841 0.0557573950883867 7.1017315500039e-16 0 0 0)
(-0.0472976120504834 -0.00071800024365801 -2.65811479128361e-20 -9.76589500033854 0.0430426001398876 -5.86232344421173e-19 3.01607090326126e-20 -6.52837687562112e-23 -1.90234155415891e-42)
(-0.0374710833869818 -0.000553442933766099 -2.66627353735273e-20 -10.008253034397 0.0334402325915625 6.46964562767168e-19 -3.01607090326115e-20 6.52837687562087e-23 1.90234155415884e-42)
(-0.0295673050320385 -0.000439979653571667 5.47007399557549e-20 -10.1926094510891 0.0260108719030331 -6.26646464423303e-20 0 0 0)
(-0.0231455143487237 -0.000366430977412494 -2.80757092439659e-20 -10.330968626627 0.019958821439566 1.29627044282121e-20 3.22634903215083e-20 -3.35766176589675e-23 -1.0231973302714e-42)
(-0.017649839684294 -0.000313418476030379 -2.81195920429225e-20 -10.4298473875189 0.0149110616842051 5.12666341587229e-20 -3.22634903208719e-20 3.35766176583652e-23 1.02319733482677e-42)
(-0.0128712210230741 -0.000275945412372125 4.30244026516448e-20 -10.4948133032769 0.0105661681524635 -6.29387999366908e-20 0 0 0)
(-0.0085972139830779 -0.00024757763379009 -1.4940659601119e-20 -10.5295373748282 0.00675855863985007 6.7765668301854e-21 1.65877975911132e-20 -7.03099672191498e-24 -9.3660495899502e-44)
(-0.00472423914293185 -0.000225984271073758 -1.49486934094752e-20 -10.5370731268647 0.00335619620101684 2.61391833962886e-20 -1.65877975911135e-20 7.03099672191514e-24 9.36604958995041e-44)
(-0.00116746800985077 -0.000208634314202407 6.96553871095289e-21 -10.5197577100122 0.000281289632215232 -3.23849005967534e-20 -1.30713475689047e-30 3.51125836967276e-34 -1.51000101911481e-50)
(0.00211811416117709 -0.000193993159253737 7.97412710046283e-21 -10.4796664848311 -0.00251746870091527 -3.5540305217359e-21 -8.31589562783787e-21 -1.48772572687217e-25 -5.79295780412641e-45)