/*--------------------------------*- C++ -*----------------------------------*\
  =========                 |
  \\      /  F ield         | OpenFOAM: The Open Source CFD Toolbox
   \\    /   O peration     | Website:  https://openfoam.org
    \\  /    A nd           | Version:  7
     \\/     M anipulation  |
\*---------------------------------------------------------------------------*/
FoamFile
{
    version     2.0;
    format      ascii;
    class       volScalarField;
    location    "20000";
    object      k;
}
// * * * * * * * * * * * * * * * * * * * * * * * * * * * * * * * * * * * * * //

dimensions      [0 2 -2 0 0 0 0];

internalField   nonuniform List<scalar> 
15600
(
5.61246467394557e-07
5.82268501128821e-07
5.55894037397346e-07
4.70305369972671e-07
3.6439970444632e-07
2.44808488201068e-07
1.37768411345588e-07
6.61546122788301e-08
3.59501540815117e-08
2.98290805245952e-08
2.67245648066071e-08
2.1426956359562e-08
1.64469989526836e-08
1.33346612870695e-08
1.20200143958632e-08
1.18763625126057e-08
1.2440183379086e-08
1.3510561214086e-08
1.50221306045889e-08
1.68932586184151e-08
1.91400905730535e-08
2.18576387435347e-08
2.52129961724809e-08
2.94476871647895e-08
3.48650125573523e-08
4.17647426778633e-08
5.04170876884697e-08
6.12859355944119e-08
7.49317599996045e-08
9.18971521538987e-08
1.12698693666023e-07
1.37779745388679e-07
1.67491809126647e-07
2.02215149717216e-07
2.42802843158055e-07
2.90115282134793e-07
3.43952106516152e-07
4.03769918581203e-07
4.68618638504243e-07
5.37041004667826e-07
6.07197680517381e-07
6.77300454664255e-07
7.47412689348575e-07
8.2186077967278e-07
9.19192542146185e-07
1.08818047980822e-06
1.26227108216973e-06
1.4214773518715e-06
1.56804352520078e-06
1.70535134318423e-06
1.83437155104345e-06
1.95642521572114e-06
2.07196216944231e-06
2.18149301797777e-06
2.28525651199211e-06
2.38351967293844e-06
2.47664880311431e-06
2.5650583603684e-06
2.64696700854513e-06
2.7210967441343e-06
2.78699690358745e-06
2.84438647416223e-06
2.8930702510244e-06
2.93300037589492e-06
2.9643527641048e-06
2.98760778016964e-06
3.00369241870811e-06
3.01405989242844e-06
3.02098883704235e-06
3.02755257004984e-06
3.0384205332408e-06
3.05901569356272e-06
3.0980858583399e-06
3.16003232658204e-06
3.24676606746778e-06
3.28826838474027e-06
3.13763827810143e-06
3.10724885718711e-06
3.17716891039505e-06
3.28816822665532e-06
3.42357675263854e-06
3.56868610700642e-06
3.71663192014661e-06
3.86044935046879e-06
3.99637736378449e-06
4.12037532092432e-06
4.23451254204107e-06
4.34809329983043e-06
4.45634854616897e-06
4.54483040003997e-06
4.6030042930925e-06
4.62088654961582e-06
4.58934277727085e-06
4.50738520542314e-06
4.37444979160029e-06
4.17900623733107e-06
3.95056112848751e-06
3.70759493231579e-06
3.46177023776388e-06
3.22016428822857e-06
2.98747295455813e-06
2.76806841641144e-06
2.56851086261955e-06
2.40339026215294e-06
2.26821168552282e-06
2.13429790622444e-06
2.00613887472063e-06
1.88518584696033e-06
1.77815626964689e-06
1.68076305185855e-06
1.58849930879499e-06
1.47959890502634e-06
1.33311950859278e-06
1.14164427696231e-06
9.51661320929679e-07
7.89304527942764e-07
6.641088974195e-07
5.68018579853748e-07
5.36922565421916e-07
5.43552960859669e-07
1.81573859858034e-05
1.88324467005816e-05
1.79844165065896e-05
1.52199488426991e-05
1.17990045108423e-05
7.93644216677602e-06
4.47656360405374e-06
2.15568159744914e-06
1.17067843686945e-06
9.68634954961785e-07
8.68448766963661e-07
6.97619218663473e-07
5.35902942536823e-07
4.34141930377426e-07
3.90722489845707e-07
3.8551768454013e-07
4.03422752628703e-07
4.37806706712718e-07
4.86533662337728e-07
5.46938639806536e-07
6.19481869267536e-07
7.0718674678768e-07
8.15411846416824e-07
9.51927630519434e-07
1.12653902872925e-06
1.3490207546941e-06
1.62809657242042e-06
1.9786741598676e-06
2.41890799330261e-06
2.96645890024917e-06
3.63819293441856e-06
4.44865876180195e-06
5.40941776630731e-06
6.53261875397647e-06
7.84559548419012e-06
9.3767157124692e-06
1.11201595182407e-05
1.30585169898536e-05
1.51611469804157e-05
1.738083639234e-05
1.96577876305769e-05
2.1933512846749e-05
2.42095394375905e-05
2.66244966877522e-05
2.97640629543129e-05
3.52135615657886e-05
4.08364201190627e-05
4.59812349310389e-05
5.07173212055128e-05
5.51541554650596e-05
5.93230310741048e-05
6.32667319594473e-05
6.69997969638428e-05
7.05387775556505e-05
7.38914112571596e-05
7.7066346991038e-05
8.0075442820206e-05
8.29322963092091e-05
8.55675822515112e-05
8.79473372192772e-05
9.00619258356132e-05
9.1902568382052e-05
9.34632919036612e-05
9.47429039034261e-05
9.57474323137737e-05
9.64927508292601e-05
9.70090419960018e-05
9.73435237193471e-05
9.7569616480662e-05
9.77866344876488e-05
9.81436799693387e-05
9.88147290946691e-05
0.00010007243661857
0.000102058961206915
0.000104759898936203
0.000105914610052212
0.000101299662057125
0.000100448373981485
0.000102751674593702
0.00010635512627923
0.000110729991363632
0.000115409528239901
0.000120173593855918
0.000124801907393074
0.000129173887069001
0.000133165747547729
0.000136848178965836
0.000140504819844177
0.000143973973142069
0.000146797848821128
0.000148642310313071
0.000149189538771243
0.000148146549707169
0.000145488539127344
0.000141193297268651
0.000134911535866202
0.000127579914386583
0.00011978141535268
0.000111885636682967
0.000104119313763163
9.66341450856938e-05
8.95728018403384e-05
8.31500020787533e-05
7.78284085296898e-05
7.34554168635082e-05
6.91228806333195e-05
6.49727486725595e-05
6.10545561494959e-05
5.75810278715243e-05
5.44150379223135e-05
5.14086283562978e-05
4.78665921936235e-05
4.30955953567372e-05
3.68886818417959e-05
3.07528885435332e-05
2.55151560632806e-05
2.14759554566331e-05
1.83760563536672e-05
1.73759471155336e-05
1.75881654574126e-05
0.000132719146107208
0.000137525589986702
0.000131467935061472
0.00011136425645901
8.64101185693692e-05
5.82152465393175e-05
3.29225536125654e-05
1.59061843702001e-05
8.62820650216669e-06
7.11879157895239e-06
6.38648856604116e-06
5.14021806497091e-06
3.95240887132734e-06
3.20010043148239e-06
2.87602027851199e-06
2.8338828304795e-06
2.9625896240682e-06
3.21252201843133e-06
3.56790748082423e-06
4.00911182869207e-06
4.53900371116481e-06
5.17931124285601e-06
5.96885588526859e-06
6.96413358468191e-06
8.23677400673009e-06
9.85888334377805e-06
1.18941640461091e-05
1.44505274254671e-05
1.76604062881309e-05
2.16531121952826e-05
2.65522415276286e-05
3.24645121144014e-05
3.94742315945877e-05
4.76669959784142e-05
5.72374550412735e-05
6.83930976261697e-05
8.10943104989459e-05
9.5213316488365e-05
0.000110526629641
0.000126690319848491
0.000143268669225288
0.000159832633722389
0.000176370592419169
0.000193860486975024
0.000216460666634994
0.000255516941578856
0.000295817018669222
0.000332662079284988
0.000366537033387916
0.000398236290594809
0.000427991984521899
0.000456117471799797
0.000482722091982173
0.000507929011544474
0.000531797576756079
0.000554391791598267
0.000575799190101829
0.000595976053958874
0.000614364253187325
0.000630957540630587
0.000645691847869859
0.000658513355193748
0.000669388083011214
0.000678315452266848
0.000685344917358838
0.000690594516862977
0.000694280328706696
0.000696737336071707
0.000698476616406593
0.000700190588297207
0.000702889316481622
0.000707751642999182
0.000716493840084014
0.000729872316831695
0.000746538390512892
0.000751368610355847
0.000723016228669273
0.000719622897540186
0.000736644138886245
0.000762272555379506
0.000793028942815788
0.000825820998563775
0.00085916227654866
0.000891602924640802
0.000922330722879375
0.000950579556573197
0.000976869706299799
0.00100294187149095
0.00102759434633051
0.00104776256085098
0.0010611716567465
0.00106561217830468
0.00105895749235886
0.00104111182320021
0.00101180312084396
0.000968742440329936
0.00091807057942023
0.000863780765229051
0.000808452527285816
0.000753719652337054
0.000700702070892372
0.000650463120905596
0.000604570571187189
0.00056626152822521
0.000534551922508626
0.000503250002114425
0.000473213172340009
0.000444813503233322
0.000419536099177199
0.000396447478600936
0.000374495320848332
0.000348812049724584
0.000313977462795667
0.000268797310694721
0.000224289495750452
0.000186303611243295
0.00015696317462459
0.000134434426069445
0.00012718237310547
0.000128662672334887
0.000497685343819972
0.000514650710841043
0.000492778327979167
0.000418511816754698
0.00032565999485395
0.000220235042605283
0.000125065656202647
6.07311574963465e-05
3.28390068918513e-05
2.69954414348486e-05
2.4229771375028e-05
1.95396400941777e-05
1.50402870448628e-05
1.21720468684561e-05
1.09239443509884e-05
1.07479451433525e-05
1.12235445567835e-05
1.2159104820993e-05
1.34941375898095e-05
1.5153841194001e-05
1.71467030145614e-05
1.95527142388727e-05
2.25160834600153e-05
2.62474925599697e-05
3.10147819033393e-05
3.70888903854638e-05
4.47059023804033e-05
5.42620059776081e-05
6.62447347253098e-05
8.1127283756616e-05
9.93562302674544e-05
0.000121308426065683
0.000147267583784295
0.000177506737681672
0.000212684027898213
0.000253500523440842
0.000299753526281362
0.000350911813824682
0.000406113165558932
0.0004640880837795
0.000523272524425866
0.000582140989280695
0.000640546532054132
0.000701896524447601
0.000780575196695849
0.000913857400568959
0.00104964364841002
0.00117288601415483
0.00128537685539514
0.00139001056973186
0.00148769809927857
0.00157961075330418
0.00166620039952683
0.00174795516512378
0.00182513692843751
0.00189800006333312
0.00196680471943942
0.00202984194510341
0.0020873511638255
0.00213922264574886
0.00218531953503171
0.00222553293374258
0.00225980969750179
0.00228819251878777
0.00231086859337558
0.00232822591505602
0.00234093688331897
0.0023500254038757
0.00235701694926097
0.00236396643700023
0.00237375920314092
0.00238968999350174
0.00241600740382676
0.00245354558600485
0.00249470371883116
0.00249904090036683
0.00242876955809469
0.00243075122881216
0.00248885457506543
0.00257201993830597
0.00267064057138161
0.00277609323615913
0.0028841934261394
0.00299096413338444
0.00309412858357368
0.00319170918275888
0.00328525257160644
0.00337892822643262
0.0034685742336466
0.00354510410689693
0.00360141736807868
0.00363020559217201
0.00362392632011609
0.00358207286374767
0.0035025028959241
0.00337785023529044
0.00322512378450679
0.00305656664136997
0.00288050710231171
0.00270262435567952
0.0025270916182074
0.00235800016804565
0.00220113852557681
0.00206780496820925
0.00195575173585585
0.00184503817200907
0.00173801636778302
0.00163609585578833
0.00154451683980097
0.00146031651038589
0.00138002416266164
0.0012870286510353
0.00115996238431889
0.000995387440209086
0.000833756797380321
0.000695459167144221
0.000587960920815545
0.000505071475438744
0.000478348092313706
0.000483401825107221
0.00131002129608391
0.00134974983789009
0.00129487101693986
0.00110564378007371
0.000866454215351298
0.000591371429957468
0.00033875833696405
0.000165841572949581
8.91700097852196e-05
7.28896912374007e-05
6.54370279055916e-05
5.28684530814663e-05
4.07398717397019e-05
3.29574227005971e-05
2.95328424093586e-05
2.9007754530808e-05
3.0251234582742e-05
3.27359706614177e-05
3.62946423439891e-05
4.072295581241e-05
4.60352172753076e-05
5.24376279541822e-05
6.03061588314397e-05
7.01917293377612e-05
8.27927933045243e-05
9.88112307154431e-05
0.000118841378397931
0.000143871838356474
0.00017510540591513
0.000213668610143109
0.000260566234045449
0.000316560379924592
0.000382106289407763
0.000457564169963008
0.000544169319861402
0.000643162886512637
0.000753565355723239
0.000873674364046824
0.00100115901916356
0.00113298785869534
0.0012657590864001
0.00139642292185334
0.00152498651795807
0.00165964646805569
0.00183098172182328
0.00210777393393393
0.00238123913065391
0.00262631683007279
0.00284712439095096
0.00305044427524264
0.0032385429998756
0.00341417297767142
0.003578506338205
0.00373274157234241
0.00387759007961272
0.00401369220994413
0.00413898287722457
0.00425366686356907
0.0043581973547233
0.00445250447763719
0.00453648577309579
0.0046100762776913
0.00467329513156061
0.00472631235133897
0.00476952830167995
0.00480366730426187
0.00482990824931029
0.00484999601967546
0.00486645138650503
0.00488260635875172
0.00490291631240966
0.00493220057436974
0.00497568850235748
0.00503213577488673
0.00508523814874802
0.00507876163321194
0.00498664976648306
0.00501394682695498
0.00512966799246542
0.00528887489563451
0.00547653700695933
0.00567931814238847
0.00589069132122691
0.00610469379413085
0.00631791735789347
0.00652769604755293
0.0067365956524299
0.00694954795372159
0.00715833069736033
0.0073477278021016
0.00750505004206202
0.00761622907173961
0.00766592534555616
0.00765193949778029
0.00756720091804516
0.0073967642507742
0.00716515249963091
0.00689206905302424
0.00659149952424674
0.00627375022027807
0.00594711160638643
0.00562050738095772
0.00530687485469666
0.00503131590297279
0.00479303472019624
0.00455247385787056
0.0043137617540472
0.0040807659329626
0.00386634788221002
0.00366514843935503
0.00347066294356937
0.00324619232187042
0.00293719274412307
0.00253545554671528
0.00214198037767474
0.00180402584074611
0.0015384524878999
0.00133143644502834
0.00126475417145956
0.00127673147926621
0.0027381719307153
0.00280627852213634
0.00269836164437346
0.00232541593156876
0.00184685286921913
0.00128380467020873
0.000748942092328792
0.000372153762700314
0.000198706953385979
0.000160974657333547
0.000144481925230932
0.000116929467858638
9.02116066793506e-05
7.29513515769714e-05
6.52559304324198e-05
6.39653384413521e-05
6.65945837871744e-05
7.19550504740784e-05
7.96609296291296e-05
8.92497544178115e-05
0.000100725479477177
0.000114507681701859
0.000131374394856891
0.000152465935427924
0.000179209409535368
0.000212997718839018
0.000254931146136298
0.000306834946375495
0.000370847299596425
0.000448774541652561
0.00054197442011877
0.000651119925387648
0.000776135627412841
0.000916720008168427
0.00107413870302869
0.00124948811957249
0.00144005537929597
0.00164233475378148
0.00185230387092818
0.00206547398320412
0.00227748977970163
0.00248526042996525
0.00269091729218141
0.00290966708141916
0.0031856410908353
0.00359875466772327
0.00399393202160684
0.00434567953546528
0.00465978606056157
0.0049471596162746
0.00521141977760111
0.00545687856974639
0.00568545557529287
0.00589903855648793
0.00609882477522663
0.00628380908255697
0.00645331727499008
0.00660866963269704
0.00675016630977398
0.00687784965094815
0.0069917226552934
0.00709182987403726
0.00717831651077237
0.00725151070736024
0.00731201936968977
0.00736084068946376
0.00739951162197924
0.00743023377058822
0.00745607561609781
0.0074809722084874
0.0075098860119842
0.00754775797852686
0.00759878136432544
0.00765876754449354
0.00770599165282552
0.00768550135431182
0.00759904924136743
0.00765984910893962
0.00782748157400153
0.00805297206411637
0.00831811554577977
0.00860734414366729
0.0089128181197598
0.00922776384310827
0.00954836934507659
0.00987208379474074
0.0102021312854137
0.0105424971029898
0.0108817652350671
0.0112013454995538
0.0114850268793759
0.0117137067573648
0.0118661471246579
0.0119401333645965
0.011923732920351
0.0117972487259087
0.0115862294012427
0.0113128964491357
0.0109927015647907
0.0106369915939836
0.0102549057377352
0.00985713221541123
0.00946059603371657
0.00910117774019405
0.00878154835642289
0.00844444233040896
0.00809250602221989
0.00773153540393834
0.00738401665372859
0.00704357792279009
0.00670304410255303
0.00630321528789215
0.00574559046487841
0.00500853200787759
0.00428546188705004
0.00366329680115418
0.00317026417796848
0.00278036679808055
0.00265667972890482
0.00268121110400701
0.00479133921201076
0.00487970091695979
0.00470559300399215
0.00411011577080581
0.00333041575254286
0.00238354510522509
0.00143601447285593
0.000733459217056408
0.000389925821101583
0.000311544653465269
0.000279320158341315
0.000226382997398223
0.00017488497541515
0.000141374630409588
0.000126190344501836
0.000123377755393548
0.00012815157865345
0.000138157276758836
0.000152595759508713
0.000170530991415536
0.000191891401315187
0.000217376937232001
0.000248325754122458
0.000286692285549975
0.000334854369637578
0.000394982399536506
0.000468545268151516
0.000558055904612107
0.000666253982820664
0.000794972143725156
0.000945013901555448
0.00111593928398106
0.00130626048636487
0.00151454405145198
0.0017418665241623
0.00198890054393923
0.00225144475431634
0.00252494937931778
0.00280479753679733
0.00308648118864095
0.00336638051482065
0.0036432445098926
0.00392283897513412
0.00422643346604849
0.00460246187200649
0.00511975505128086
0.00560374193849821
0.00603405428110162
0.00641709282070189
0.00676665040546911
0.00708728208852167
0.00738433940667358
0.0076602988457147
0.00791749581767687
0.00815675028331618
0.00837645984399767
0.00857835657230045
0.00876335717325183
0.00893178821016468
0.00908380325625102
0.00921951477041153
0.00933907916181732
0.00944276365992118
0.0095310356266035
0.00960466472819671
0.00966484099052407
0.0097133204486262
0.0097525443011141
0.00978580008535161
0.00981716283592932
0.0098514681670156
0.00989306736032826
0.00994452740239776
0.00999943878947653
0.0100345190933539
0.0100034612973406
0.00993342809028696
0.0100246170272883
0.0102332266907039
0.0105104524555646
0.0108360862741563
0.011193592604396
0.0115742735734563
0.0119710177950019
0.0123798430851592
0.0127984797096424
0.0132303911235162
0.013678159543308
0.0141282137984266
0.0145603216747998
0.0149562474375949
0.0152928414148837
0.0155464978771554
0.015716369708243
0.0157875267748987
0.0157393740048008
0.0155968669559292
0.0153834319397317
0.0151151148554047
0.0148034968126798
0.0144575192100195
0.014087818182207
0.013711812812383
0.0133688884046925
0.0130634486863809
0.0127263479665894
0.0123523480795686
0.0119434397446822
0.0115261735583824
0.0110916274722704
0.0106332583411103
0.0100724557322382
0.00927375121352727
0.00818412605445213
0.00710263068482282
0.00617184324162972
0.0054364294630674
0.0048500677174937
0.00467014186964012
0.0047144780723735
0.0072526639605501
0.00734092329945602
0.00710179965591845
0.00630397711191771
0.00523479607609849
0.00388969444569756
0.00245349646441131
0.00131035796189645
0.000700759145925404
0.00054890433051664
0.000490871765582125
0.000398276662701667
0.000308151753224527
0.000249033160363675
0.000221684465328859
0.000216017932383895
0.000223634180557986
0.000240272309907778
0.000264385788099452
0.000294212996152314
0.000329438494954271
0.000371017281292438
0.000420895161459252
0.000481902671432247
0.000557331823769383
0.000649855894864195
0.000760799857669599
0.000892815127202745
0.00104853412934998
0.00122902546181873
0.00143388760594175
0.00166129088635335
0.00190861161648163
0.00217399888537183
0.0024587973646895
0.00276347795219948
0.00308318519432755
0.00341321904405951
0.00374923401818882
0.00408755685241865
0.00442607581964576
0.00476591511982593
0.00511601934935359
0.00550041272676802
0.00596421013077833
0.00655712934123749
0.00710574378828489
0.00759418848323782
0.00802928191282245
0.00842621949509229
0.00879017916356251
0.00912705814626693
0.00943972415162371
0.00973087283114741
0.00999947605852707
0.0102466209794943
0.0104739043959001
0.0106821326041077
0.0108716956311801
0.0110428415254022
0.0111957783217804
0.0113307595201855
0.011448155750709
0.0115485462686017
0.011632822062196
0.0117023022450995
0.0117588695995285
0.0118050730797157
0.0118442397969634
0.0118803552551633
0.0119178759703334
0.0119603807775246
0.0120089779280529
0.0120560433931996
0.0120790907912553
0.0120416281310256
0.0119895792712149
0.0121058933246259
0.0123468618923185
0.0126649444241919
0.013038447597454
0.0134503179869604
0.0138911507738487
0.0143536043316369
0.0148335339483351
0.0153288508984826
0.0158429456327526
0.0163770343387166
0.0169160413634451
0.0174388026445716
0.0179256634402395
0.0183490326860615
0.0186868473981529
0.018938674694553
0.0190879940735403
0.0191150952085621
0.0190441697713425
0.0188996558530783
0.0186984831601627
0.0184529994078729
0.0181726235108649
0.0178684120855858
0.0175579816828326
0.0172809781675077
0.0170426371933503
0.0167690455767452
0.0164454645694009
0.0160662586016464
0.01565470798327
0.0151954308823246
0.0146799282658772
0.0140126734350628
0.0130374463524551
0.0116502903738174
0.0102397256988703
0.00902064211882189
0.00807237424151903
0.00732173816932609
0.00709944263142815
0.00716581886071239
0.00980744705402911
0.00987514713556364
0.00958193106879564
0.00864357053341887
0.00735970847835074
0.00569431110035354
0.00378992874473496
0.00214917379890702
0.00117906035102218
0.000900131370050347
0.000801108454553105
0.000650423751542182
0.000504232201194208
0.00040744312100149
0.00036145228565103
0.000350658000588372
0.000361312416816818
0.000386224219215353
0.00042255938996157
0.000467204633225461
0.000519297772236112
0.000579892480777857
0.000651442578274581
0.00073752820440325
0.000842087889394055
0.000967843987730918
0.00111552294107913
0.00128755029626853
0.00148611224205977
0.00171139064338625
0.00196198099648837
0.00223522667930589
0.00252817822785583
0.00283926861808411
0.00317021435095155
0.00352128465393799
0.00388746274274845
0.00426429681871056
0.00464805391359033
0.00503613261341852
0.00542797484411944
0.00582670813717642
0.00624311556629872
0.00670099386547205
0.00723886034945679
0.00788864362954964
0.00848775186192763
0.00902229942104223
0.00949975411409533
0.00993559244877982
0.0103354694202972
0.0107055088869712
0.0110488604626835
0.0113677614697815
0.0116612600559782
0.0119317175129093
0.0121805132623916
0.0124084423488953
0.0126159650157684
0.012803412332399
0.0129710768088528
0.0131192966589458
0.0132485302006212
0.0133594467545073
0.0134530276017644
0.0135306768586405
0.0135943434939716
0.01364660342414
0.0136907243358006
0.0137304925052009
0.013769907174017
0.0138118041919009
0.013856187011469
0.0138950151454584
0.0139077697294569
0.0138668924175926
0.0138314334983631
0.0139682499388298
0.0142353306520679
0.0145865935605637
0.0149991495847362
0.0154555797871852
0.0159458353028084
0.0164623475351092
0.0170007712960189
0.017559067184801
0.0181403544832098
0.0187446234761378
0.0193556858133973
0.0199517466813378
0.0205117781004538
0.0210033857758698
0.0214093418312078
0.0217277595001641
0.0219415090072781
0.0220323499004947
0.0220236692198715
0.0219406598902326
0.0218011673420229
0.021618510637659
0.0214029650239157
0.0211664316368513
0.0209270421232687
0.0207238001450735
0.0205624577032949
0.0203694511113766
0.0201227850902007
0.0198097684108498
0.0194472982471852
0.0190121032873957
0.0184910905954631
0.0177739250196473
0.0166967304877406
0.0150928308878803
0.0134024573462077
0.0119163972555863
0.0107795989002135
0.00989969035103118
0.00964105882159254
0.00972127325238203
0.0122211961383807
0.0122568298420962
0.0119220014090977
0.010907082305981
0.00949797883276102
0.00763617251753987
0.00536459989143493
0.00325559700756506
0.00187262849138402
0.00139153266445272
0.0012277192213335
0.0009979244598105
0.000775701037996274
0.000626913723191289
0.000553828919388407
0.000534240451180448
0.000546952540408669
0.000580558374823061
0.000630174877690633
0.000690694930931623
0.000760353516977663
0.000840110077723627
0.000932804680260915
0.00104262329044554
0.00117391275170801
0.00132919258047471
0.00150857809348266
0.00171431608551028
0.0019482113274345
0.00220981122489826
0.00249712190197567
0.00280717990711363
0.00313717651318465
0.00348601086017563
0.00385558221453406
0.00424591209024263
0.00465208348387141
0.00507004116860714
0.00549675275255703
0.00593063508581805
0.00637241427777829
0.00682655894567067
0.00730441495240686
0.00782780836567114
0.00842830714436311
0.00912402496248567
0.00976569239655255
0.010339506742683
0.0108538024460426
0.0113236681807634
0.0117551772455787
0.0121545085606567
0.0125251101301849
0.0128680956507899
0.0131840151851521
0.0134753376806474
0.0137433704528967
0.0139889372264869
0.0142125697338918
0.0144146756775208
0.0145956247305731
0.0147558309740566
0.0148958285064036
0.0150163600728447
0.0151184739756562
0.015203627339085
0.0152737934203586
0.0153315226917144
0.0153799661146038
0.0154226597872899
0.0154631412659547
0.0155036033754666
0.0155432899857908
0.0155742910290612
0.0155785502196643
0.0155361168776155
0.0155151440229742
0.0156687634024228
0.0159572906420942
0.01633610398205
0.0167813232233028
0.0172752146305533
0.0178071225970127
0.0183692292245371
0.018956948858958
0.0195681798114463
0.0202056472578009
0.0208682539641611
0.0215389470780246
0.0221954394380365
0.0228146945394092
0.0233609983139813
0.0238224611118271
0.0241950231834106
0.0244614337824955
0.0246050579379543
0.024648467526454
0.0246173274858922
0.0245302539467499
0.0244014738870225
0.0242421481443612
0.0240650955261182
0.0238890624911102
0.0237521330961686
0.0236602274962826
0.0235426634932583
0.0233727881115368
0.0231329090670271
0.0228334397301863
0.0224443354799864
0.0219471408139128
0.0212202715243254
0.0201005461481205
0.0183591083759268
0.0164479877455988
0.0147105384615086
0.013382142919995
0.0123781221966543
0.0120683293748161
0.0121437042283229
0.0143915870321294
0.0143919183000548
0.014026044248684
0.0129800727264695
0.0115143951855932
0.00957250340823688
0.00706491595234358
0.00458775113554327
0.00280725670648532
0.00204260395641713
0.00177879617610041
0.00144805893783143
0.00112971432033733
0.00091335842297549
0.000803336064689995
0.0007696004354297
0.000781593890610973
0.000822325282501645
0.00088398935241403
0.000958918117897776
0.00104420517725454
0.00114062862708098
0.00125138683296553
0.00138120873447692
0.00153473426781564
0.00171425793593644
0.00191951451264863
0.0021526990069855
0.00241532521176615
0.00270651215366859
0.00302394657426659
0.00336463380190248
0.00372606146500853
0.00410753825394195
0.00451097421307288
0.00493616602224649
0.0053784320740648
0.00583414504455506
0.00630093806273954
0.00677807438441124
0.00726720787116135
0.00777351360505461
0.00830800175114638
0.00888980680634342
0.00954443060666852
0.0102798727373633
0.0109594504193315
0.0115685408868014
0.0121163806440242
0.012617338433904
0.0130778655979525
0.0135041071644294
0.0138996932465546
0.0142647650489388
0.0146015148872309
0.0149121632145711
0.0151980113235129
0.015459930550834
0.0156985244661682
0.0159142737708707
0.0161076203045467
0.0162790474691159
0.0164291558791526
0.0165587486691354
0.0166689231343262
0.0167611652933977
0.0168374424457952
0.0169002442827747
0.0169525712779011
0.0169976891779483
0.0170387009975457
0.0170772723750202
0.0171121748052216
0.017135978000454
0.017133220645241
0.0170902932291798
0.0170816870028887
0.0172491504267808
0.0175554882826737
0.0179575237556846
0.0184305510251658
0.0189565372002203
0.019524247970222
0.0201255892325547
0.0207556999043762
0.0214123280403509
0.0220977267212667
0.0228098263543091
0.0235308744487742
0.0242381482078031
0.0249055848751878
0.025496802825753
0.026004128473381
0.0264212649657134
0.0267311250097862
0.02691865999876
0.0270056440680288
0.0270179713431192
0.0269748446946377
0.0268912516920375
0.0267791331709999
0.0266521421211004
0.0265295775563221
0.0264484832149433
0.0264145974865342
0.0263610425660607
0.0262583655534362
0.0260856652315743
0.0258476214973423
0.0255092109881305
0.0250468378751679
0.0243317969364571
0.023201309103007
0.0213904236897972
0.0193247346078672
0.0173645271089323
0.0158323255398072
0.0146826783311688
0.0142877807125214
0.0143306203634519
0.016310210722262
0.0162744131175973
0.0158851103988836
0.0148344376770469
0.0133528681184824
0.0114123878245654
0.00878898188030238
0.00607156884581935
0.00397427809509204
0.00286114882708631
0.00244866789972256
0.00199627933059324
0.00156456469608041
0.00126592501492318
0.00110863467299782
0.00105395364307371
0.00106061555602799
0.0011048975365587
0.00117528094103053
0.00126122094877364
0.00135860695771944
0.00146803282107065
0.00159304137312127
0.00173882272693805
0.00191020915359049
0.00210930229751792
0.00233566022739566
0.00259146374342178
0.00287797236584931
0.00319400860030837
0.0035371028125517
0.00390436158515324
0.00429358679687715
0.00470439346513866
0.00513861441771557
0.00559587915051121
0.00607179427127562
0.00656313418181206
0.00706810659503579
0.00758661849541461
0.00812091250614742
0.00867637101833218
0.00926313906855553
0.00989754755647432
0.010600209747153
0.0113717712363021
0.0120863695237689
0.0127283292125289
0.0133076534445611
0.0138378694574735
0.0143257586333429
0.0147773964182395
0.0151962364126596
0.0155824447649964
0.0159389812705857
0.0162679572585216
0.0165707028884278
0.016848147596801
0.0171009670553652
0.0173297127860965
0.017534895184766
0.0177170619108074
0.0178768726766715
0.018015180552051
0.0181331175385224
0.018232179942823
0.0183143067543945
0.0183819026827886
0.0184377983505407
0.0184849860306616
0.0185261740931545
0.0185626117231211
0.0185928223576268
0.0186100641641355
0.0186014137619925
0.0185585285007205
0.0185603462033505
0.0187392352351232
0.0190604403722631
0.019482229177845
0.0199792139802132
0.0205330674422215
0.0211320000194978
0.0217676156047976
0.0224347475233583
0.02313092451063
0.0238578762766096
0.0246126520402531
0.0253769127408122
0.0261275051127224
0.0268340520397672
0.0274630678220086
0.0280087939377455
0.0284631000551145
0.0288092490316472
0.0290337075097184
0.0291574873062224
0.0292065191489135
0.0292004195840333
0.0291547822112595
0.0290821916222012
0.0289970123090878
0.0289189756371239
0.0288840196912484
0.0288974314893533
0.0288962944199702
0.028849541334804
0.028734286176032
0.0285502134845833
0.0282588345586663
0.0278317464614959
0.0271365182732246
0.0260097066316976
0.0241736570492617
0.0220134702702634
0.019876736342556
0.0181435351558215
0.0168232796843123
0.0163020534286009
0.0162778912830606
0.0180144952748925
0.0179389574655712
0.0175299929314996
0.016487228029267
0.0150097680788104
0.0131140134883599
0.0104680213989246
0.00763156676989615
0.00533192005186504
0.00384527632166589
0.00322185856642301
0.00262586487948647
0.00206897804546856
0.00167651595653889
0.00146249235809616
0.00137950797912596
0.00137515567795467
0.00141828405304228
0.00149307592816148
0.00158604146292064
0.00169186713165938
0.0018109147650327
0.0019469599016129
0.00210548543001748
0.00229138599467622
0.00250659158658031
0.00275060773023446