/*--------------------------------*- C++ -*----------------------------------*\
  =========                 |
  \\      /  F ield         | OpenFOAM: The Open Source CFD Toolbox
   \\    /   O peration     | Website:  https://openfoam.org
    \\  /    A nd           | Version:  7
     \\/     M anipulation  |
\*---------------------------------------------------------------------------*/
FoamFile
{
    version     2.0;
    format      ascii;
    class       volScalarField;
    location    "20000";
    object      k_conv;
}
// * * * * * * * * * * * * * * * * * * * * * * * * * * * * * * * * * * * * * //

dimensions      [0 2 -3 0 0 0 0];

internalField   nonuniform List<scalar> 
15600
(
-5.18430940451224e-07
-8.14322260976108e-07
-2.68357916788076e-07
-4.35496254628109e-08
-4.49009034830754e-08
-3.40548846728311e-08
-7.49537857847333e-09
3.93396658833125e-09
8.75915408354187e-10
-1.87780255256946e-09
-5.37196531034898e-09
-4.74275853114705e-09
-2.8272405577931e-09
-9.15369720499707e-10
1.24016047772949e-11
-4.73572768627044e-11
-8.88196722026269e-11
-1.26258532855416e-10
-1.58766096747049e-10
-1.94815753379948e-10
-2.41781250292042e-10
-3.07947553336087e-10
-4.03706445591435e-10
-5.41482165786995e-10
-7.29620043890192e-10
-9.71203722645709e-10
-1.29910059961305e-09
-1.74380676347439e-09
-2.32456659676015e-09
-3.05806355991625e-09
-3.94907397733493e-09
-4.99056106169219e-09
-6.18800241072923e-09
-7.66180554097432e-09
-9.47833729707272e-09
-1.1428711886264e-08
-1.34091085644419e-08
-1.52695580039016e-08
-1.68243328750379e-08
-1.78999167413327e-08
-1.8454499936954e-08
-1.89936328431243e-08
-2.07281485820058e-08
-2.83221329023947e-08
-5.67013656804992e-08
-6.57796478491166e-08
-6.52284791487661e-08
-6.36154148993694e-08
-6.22513714662214e-08
-6.04845731216064e-08
-5.87367611039733e-08
-5.67503413367314e-08
-5.46618209399172e-08
-5.24103632647419e-08
-5.00664898705379e-08
-4.77250338506742e-08
-4.54473552729906e-08
-4.21332739197746e-08
-1.06757123777927e-07
-1.96722168416292e-07
-2.83397733412386e-07
-3.65144950714174e-07
-4.40061854929164e-07
-5.06058052137985e-07
-5.61012148150639e-07
-6.0263938199085e-07
-6.29248999367659e-07
-6.38790700736761e-07
-6.31809468298582e-07
-6.07290279158596e-07
-5.7461016585853e-07
-5.39445508066936e-07
-5.60298989565464e-07
-6.38954258626391e-07
-1.33448143418084e-06
-2.91644453870466e-06
-1.76134111467193e-06
-1.05019372259936e-06
-9.29301435918848e-07
-1.01797878646578e-06
-1.24881198423944e-06
-1.5658313386756e-06
-1.96359602586397e-06
-2.41628022091482e-06
-2.92494264913683e-06
-3.45560150200794e-06
-3.98149111708199e-06
-4.58692985001664e-06
-5.28773604490339e-06
-5.99686975028538e-06
-6.64349070527613e-06
-7.14528788736613e-06
-7.47087181460328e-06
-7.53286033730705e-06
-7.30216179171563e-06
-6.62839282067097e-06
-5.90225250679813e-06
-5.17092571560244e-06
-4.48874276195806e-06
-3.8735256671227e-06
-3.33938818442653e-06
-2.9100783896058e-06
-2.65734016700008e-06
-2.76297937040255e-06
-2.98975492409805e-06
-2.73877122097238e-06
-2.49629288482939e-06
-2.20805223311807e-06
-2.03712081180101e-06
-1.77773913718939e-06
-1.38510471979572e-06
-3.11198997325815e-07
-1.69245095603123e-07
-2.15236132091508e-07
-1.89330517540126e-07
-1.3600557709658e-07
-8.5303896140212e-08
-5.29365953777874e-08
-1.35239684032097e-08
-2.83168251462533e-07
-1.13809681926709e-05
-1.83137310634984e-05
-7.15242175149909e-06
-3.05616289276566e-06
-2.9847677259644e-06
-2.22811409827922e-06
-5.89418118148738e-07
4.94548257947981e-07
9.82521451094121e-08
2.12906674423128e-08
-6.94119314305528e-08
-7.25007569529897e-08
-4.2756742276789e-08
-1.15645303395105e-08
1.44750812542417e-09
-3.58794521827382e-09
-7.08968449420218e-09
-1.0042021329273e-08
-1.27317019556685e-08
-1.57321858450366e-08
-1.9728780035833e-08
-2.53431403294197e-08
-3.344363225717e-08
-4.49602470467567e-08
-6.06059475608216e-08
-8.11287720142417e-08
-1.08833282347921e-07
-1.46060130356476e-07
-1.94566296689187e-07
-2.55914106591105e-07
-3.30804352774093e-07
-4.19149809877409e-07
-5.2218809782465e-07
-6.47029137703081e-07
-7.96791793779829e-07
-9.5969976149612e-07
-1.12735819561902e-06
-1.28792276830636e-06
-1.42633342885281e-06
-1.52833451235149e-06
-1.58957936111786e-06
-1.6435807987322e-06
-1.82104872751683e-06
-2.4560026905331e-06
-4.20921826902696e-06
-4.83129927975968e-06
-4.88561016779137e-06
-4.8573723044837e-06
-4.82355149855911e-06
-4.75373780444261e-06
-4.67629038529517e-06
-4.57719787935771e-06
-4.46687732055046e-06
-4.34321416220343e-06
-4.21218065054559e-06
-4.08344726315086e-06
-3.96240950478853e-06
-4.65397821844103e-06
-6.53585754810951e-06
-8.31983037537781e-06
-1.00021955523019e-05
-1.15509311802851e-05
-1.29309423298541e-05
-1.41059850584547e-05
-1.504192972733e-05
-1.57073688896863e-05
-1.60849345624781e-05
-1.61651556066136e-05
-1.59863499175163e-05
-1.56013417737482e-05
-1.52434273334384e-05
-1.51954046839952e-05
-1.65562080108315e-05
-2.07043380216002e-05
-3.47058013040798e-05
-5.59824006649507e-05
-3.81926153287569e-05
-2.68157744608507e-05
-2.61471769772393e-05
-2.94139574506374e-05
-3.53785825604025e-05
-4.30610887296957e-05
-5.22738653356067e-05
-6.25960313351105e-05
-7.39527720099254e-05
-8.58182997175451e-05
-9.79116320422124e-05
-0.000111491789966732
-0.00012663495561487
-0.000141732975991021
-0.000155357803960179
-0.0001660315413428
-0.000173013983711685
-0.000174256684774562
-0.000169324435513413
-0.000155622321336381
-0.000140373169537938
-0.000124890279317719
-0.00011018513666955
-9.67194125202241e-05
-8.48451290949178e-05
-7.51106405282698e-05
-6.90827161731731e-05
-7.03742905015732e-05
-7.44561735862381e-05
-7.06392511513415e-05
-6.58125850669256e-05
-6.02154259136444e-05
-5.63015095973625e-05
-5.11726703202885e-05
-4.2645974716671e-05
-2.09684784545939e-05
-1.36105287171431e-05
-1.51262974239777e-05
-1.30901231825543e-05
-9.26344578222173e-06
-5.73870668836678e-06
-3.28032107252892e-06
-8.80063215964705e-07
-5.00505031618317e-06
-6.8364776637444e-05
-0.00011402338022655
-5.44379295423358e-05
-2.51581953368628e-05
-1.93677198974106e-05
-1.29860023480553e-05
-3.18670226302283e-06
8.18144900290038e-06
1.56755307657681e-06
4.53033661610619e-07
-7.43736327961233e-08
-2.00010589003048e-07
-1.16202577145923e-07
-3.63618057080591e-09
2.33829292390575e-08
-2.96280661154684e-08
-6.54199202782452e-08
-9.36789865997511e-08
-1.20110686177327e-07
-1.50343046402063e-07
-1.91284646899326e-07
-2.48957528021326e-07
-3.31700032144848e-07
-4.48032772593979e-07
-6.06200671444865e-07
-8.1734442310317e-07
-1.10086152205246e-06
-1.47787828467014e-06
-1.9679625829691e-06
-2.58910937706318e-06
-3.35152829001425e-06
-4.25883542405186e-06
-5.32236723007855e-06
-6.58698526331774e-06
-8.07526871113855e-06
-9.71266766581596e-06
-1.14270647963086e-05
-1.31007818291153e-05
-1.45844233327363e-05
-1.57231449539738e-05
-1.6433122695001e-05
-1.69957773966177e-05
-1.85752956069492e-05
-2.34219122704701e-05
-3.67878918376214e-05
-4.16046793605619e-05
-4.35901840335884e-05
-4.45758329046824e-05
-4.53458395336823e-05
-4.56287995278453e-05
-4.57770644998662e-05
-4.56626746642786e-05
-4.54210246365915e-05
-4.50423476063267e-05
-4.45966274008419e-05
-4.41973095296415e-05
-4.43601480025936e-05
-5.4657921505421e-05
-6.328484165163e-05
-7.13005420537534e-05
-7.858720863424e-05
-8.50180446804918e-05
-9.04653756531308e-05
-9.48122651961252e-05
-9.79702723889415e-05
-9.98950765480998e-05
-0.000100631388773706
-0.000100330316550968
-9.93863118338888e-05
-9.8450180478625e-05
-9.89552416747231e-05
-0.000103058341481451
-0.000115957922202226
-0.000145065567354846
-0.000204970935769103
-0.000267603258211615
-0.0002080339941455
-0.000171121481585532
-0.00017816703713203
-0.000202642304136583
-0.000238892782046975
-0.00028310105404904
-0.000334261089257436
-0.000390923108889662
-0.000452739476576435
-0.000518243997316067
-0.000587143448151119
-0.000663555936247713
-0.000746893611354933
-0.000830154462390403
-0.000906631159451103
-0.000969703299755975
-0.00101422688817181
-0.0010287648121678
-0.0010114608421741
-0.000948958018464217
-0.000874798276928406
-0.000796493779955832
-0.000719236284667653
-0.000646107516763115
-0.000579675378969548
-0.000523590621296782
-0.000487254328218828
-0.00049060014483822
-0.000511700486408429
-0.000497601265166895
-0.000472601954782292
-0.000442475916662103
-0.000417840878871008
-0.000388484676482521
-0.000337768304346205
-0.000217507406039774
-0.000141189935399236
-0.000128673553108557
-0.000100615538132905
-6.65557047591606e-05
-3.71767501575814e-05
-1.71340921134326e-05
-2.58402350416431e-06
-2.21705790915289e-05
-0.00022355368402669
-0.00039098853750775
-0.000223735717356014
-9.93261399709809e-05
-4.97637274882289e-05
-2.47026609565411e-05
6.60466369459533e-07
4.19379227923625e-05
1.02430750595042e-05
2.45437082435698e-06
1.01829497919269e-06
1.90035611440681e-07
1.2954420903573e-07
2.4990206307138e-07
1.56031643032648e-07
-9.74091409727056e-08
-2.62097141591041e-07
-3.86514922713586e-07
-5.03048457731766e-07
-6.39450890503365e-07
-8.25596559255884e-07
-1.08907974302519e-06
-1.46559731186762e-06
-1.9920368469171e-06
-2.71056930189127e-06
-3.67694190969726e-06
-4.96693616505705e-06
-6.66583697467774e-06
-8.86333790045683e-06
-1.16414744002445e-05
-1.50459765386395e-05
-1.90891664368348e-05
-2.37803368814204e-05
-2.92381099713195e-05
-3.55533743811303e-05
-4.24684385990679e-05
-4.97085522682534e-05
-5.67608744331901e-05
-6.29956556832218e-05
-6.77062730719074e-05
-7.03735683626893e-05
-7.17844225406996e-05
-7.52476766353096e-05
-8.81002162906997e-05
-0.000133539052029552
-0.000146282478492927
-0.000157743876784982
-0.000164518408292769
-0.000170393183758616
-0.000173946123973093
-0.000177022357341442
-0.000179013312064082
-0.000180599224181515
-0.000181730019672855
-0.000182680610451487
-0.000183733185172633
-0.000205869455616687
-0.000221793695482147
-0.000235970588388878
-0.000248223195047132
-0.000258421328923362
-0.000266437028396548
-0.000272177447467958
-0.000275614615512154
-0.000276829822472754
-0.000276069149964669
-0.000273825260662106
-0.00027094955130081
-0.000268844106948928
-0.000269724179976902
-0.000277131845701196
-0.000296411768462096
-0.000335535810169281
-0.000401607733570927
-0.000490586166544927
-0.000555336696937198
-0.000504835368191114
-0.000479602715691522
-0.000522436346711261
-0.000594973879586844
-0.000686740225174903
-0.000792838379869759
-0.000911697153475675
-0.00104216865056727
-0.00118455859329275
-0.00133900389817634
-0.001506734407014
-0.00169165298020037
-0.00189151430748899
-0.00209531632438531
-0.00229157679521953
-0.00246940159351243
-0.00261287098502793
-0.00269926358148475
-0.00271768314540126
-0.00263833062917937
-0.00252296480014626
-0.00238578745886042
-0.00223700254654425
-0.00208443950870444
-0.0019361230364292
-0.00180381565931769
-0.00171615319733495
-0.00173087662300638
-0.00180145291341248
-0.0017949245290102
-0.00174347447656728
-0.00166965975396347
-0.00159800286610778
-0.00151466096743672
-0.00136158501107575
-0.00101121492831389
-0.000657255412412795
-0.000508126546304423
-0.00033735126558028
-0.000195163144886403
-8.36424169263344e-05
-1.54793260395525e-05
2.11234325079704e-05
-3.91338276408387e-05
-0.000496949081234689
-0.000925007475059663
-0.00062886131963582
-0.000280777770424037
-6.9864828030996e-05
1.80137385125358e-06
3.18304522252338e-05
0.000130553487668228
4.20019100258679e-05
9.4383333881845e-06
6.10032654286882e-06
2.85719955970606e-06
1.78127981709974e-06
1.3961198415462e-06
6.54340499188887e-07
-1.68880732811916e-07
-6.85267415043405e-07
-1.06356362080901e-06
-1.41242812872876e-06
-1.82465165375658e-06
-2.38797941346351e-06
-3.18811457041647e-06
-4.32888273052659e-06
-5.91977606942552e-06
-8.09430444632657e-06
-1.10090963936272e-05
-1.48558572999672e-05
-1.9846080541037e-05
-2.62033672480142e-05
-3.41074116262153e-05
-4.36007286154701e-05
-5.45852698990943e-05
-6.68659161353688e-05
-8.05726964904161e-05
-9.58653071440313e-05
-0.000112015622715147
-0.000128411312018203
-0.000143814525164442
-0.00015686111416283
-0.000165971371371363
-0.00016982807629226
-0.000169354351848716
-0.000169866301418435
-0.00018896893982192
-0.000272635783766751
-0.000283788708375273
-0.000317891242128763
-0.000337318812815639
-0.000354711743726917
-0.000365774653908499
-0.000375774517901058
-0.000383138957821136
-0.000389640403519827
-0.000395168088256588
-0.000400299300920108
-0.00042770933778065
-0.000446898922301962
-0.000458423212210806
-0.000467185942724569
-0.000473094854637168
-0.000476125527476448
-0.000476283330795815
-0.000473665145691443
-0.000468502376882893
-0.000461228334230145
-0.000452565624246255
-0.000443620680656146
-0.000436061444525111
-0.000432253397725288
-0.000435620593107686
-0.000450601133440713
-0.000482942741550023
-0.00053657701090085
-0.000607670014486799
-0.000674516171568197
-0.00072702101466974
-0.000760328995646971
-0.000794431173961373
-0.000888025918884358
-0.00100876850622704
-0.00114602318130856
-0.00129725058019492
-0.00146141562742393
-0.00163898923230489
-0.00183160275041937
-0.00204239430361058
-0.00227303049571818
-0.00252336358798063
-0.00279086894353985
-0.00306718361140304
-0.00334320640969353
-0.00361414358233668
-0.00386251070137181
-0.00404537960609594
-0.00415976931331776
-0.00417084175280193
-0.00413906359986451
-0.00407554741812224
-0.00398769427071792
-0.00388210147620178
-0.00376766356365519
-0.00366037775262572
-0.00360635392465347
-0.00370236208081778
-0.00390332859250083
-0.00402013927740347
-0.00403635219402837
-0.00399018161004631
-0.00390920623660826
-0.00380104296153048
-0.00353833151283767
-0.00290808678447281
-0.00196007683987303
-0.00136651949109476
-0.000734248027750527
-0.000311011210669973
-2.61260084942293e-05
0.00011533750953748
0.000166924806723365
1.62473686812986e-05
-0.000807593243564805
-0.00163880089446832
-0.00133524686655248
-0.000632073419898379
-1.64978260631104e-05
0.000171278880441717
0.000138121582659084
0.000298935490948494
0.000131302773683027
2.8829159166274e-05
2.11423174910798e-05
1.14747630759414e-05
7.13378817545511e-06
4.79946054035966e-06
2.08423536300025e-06
-4.39981623732862e-08
-1.33787761729833e-06
-2.26061389785828e-06
-3.08552070919642e-06
-4.05281844105002e-06
-5.36806556903803e-06
-7.23624065534801e-06
-9.89102862034032e-06
-1.35758732994502e-05
-1.85790967010678e-05
-2.5170812681841e-05
-3.3661959646618e-05
-4.43467628080549e-05
-5.74817012777939e-05
-7.31538977630628e-05
-9.10835777239419e-05
-0.000110665417311026
-0.000131149637631819
-0.000152718655726307
-0.000175702040339695
-0.000199015281195927
-0.000222297232445613
-0.000243929126542849
-0.000262363936696234
-0.000275633498964731
-0.000282175131832739
-0.000283485908008859
-0.000288072915899348
-0.000322498944037709
-0.000424736730682579
-0.000428323968549395
-0.00049563839739707
-0.000528212204635544
-0.00055700130356834
-0.000573821918043323
-0.000588456971268345
-0.000598451438987661
-0.000606759218007436
-0.000613386046728744
-0.000631150441194693
-0.000655045021936617
-0.000658798325618047
-0.000660230451337895
-0.000658754635595735
-0.00065433976736166
-0.000647051309270456
-0.000637010763101274
-0.000624471107057028
-0.000609862677629153
-0.000593868747784222
-0.000577514959996967
-0.000562255843037281
-0.000550127533645861
-0.000543797636655492
-0.000546747994805333
-0.000562762763525854
-0.000595419576858589
-0.000643584384408774
-0.000696573233360323
-0.000740740754988169
-0.000817538738216405
-0.000930031101462013
-0.00101981411809032
-0.00115471319668735
-0.00130815938217554
-0.00147238713144645
-0.00164680708600376
-0.0018312582957334
-0.00202718946809548
-0.00223696147417188
-0.00246482209118872
-0.00271061006605704
-0.0029708337429971
-0.00324372961578033
-0.00352446644363542
-0.00380813476022366
-0.00411634519986971
-0.00439318073513686
-0.00461169996232183
-0.00477921035129049
-0.00486859315676798
-0.00492811612635143
-0.0049656437419
-0.00498660119196525
-0.00499615401898545
-0.00500231546733566
-0.00501980627947028
-0.00509806780997511
-0.0053435295279826
-0.00573942369518644
-0.00612969255155156
-0.00640648643667711
-0.00659744284129919
-0.00669177492409047
-0.00674571056202531
-0.00654807703678581
-0.00586733048048976
-0.00422129276105085
-0.00286623817255183
-0.00126687555583971
-0.000223640642677041
0.000395989144716159
0.000613486543150666
0.000635116506155185
0.000134212080660209
-0.000982296027901335
-0.00229022490239314
-0.00225723034572574
-0.00117778501787933
0.000184793062474796
0.000682687763161996
0.000452480403386432
0.000558514890767854
0.000345052042938674
7.53971207398558e-05
5.68664847619318e-05
3.25568888322511e-05
2.02971177550166e-05
1.29433380800305e-05
5.54736339512309e-06
8.26618000384928e-07
-1.95987095945361e-06
-3.88509119743213e-06
-5.52065910041654e-06
-7.38479134946489e-06
-9.88538616008688e-06
-1.34199575193573e-05
-1.84095313040189e-05
-2.52596982648684e-05
-3.43871413793625e-05
-4.60140359071323e-05
-6.04002588601171e-05
-7.76455499605583e-05
-9.77235707102781e-05
-0.000120351888209898
-0.000144763867681863
-0.000169979828857763
-0.00019527308218867
-0.000221635337532753
-0.000249866968809957
-0.000279094904335731
-0.000309625158421042
-0.000339426047850593
-0.000366956790341001
-0.000390299954771816
-0.000408758548103994
-0.000425919814441755
-0.000453530147515772
-0.000515494280868912
-0.000615153944891347
-0.000614479848145352
-0.000701770955630882
-0.000735181251913847
-0.000764813114833342
-0.000778840932734488
-0.000790301850150711
-0.000796152651079095
-0.000799899343257404
-0.000799123218016083
-0.000829494771214194
-0.000824757742327121
-0.000819081321954633
-0.000811010829431431
-0.000800282002842866
-0.000786894990268548
-0.000770960662507434
-0.000752665959491547
-0.000732348994087448
-0.000710543025400219
-0.000688049282585993
-0.000666012719121035
-0.000645989900013912
-0.000630038743717766
-0.000620693801224939
-0.000620915486087975
-0.000633374246192236
-0.000659362173839446
-0.000695191323287105
-0.000730011120962443
-0.000767898094235589
-0.000884748346044012
-0.00104872867201052
-0.00117862778652883
-0.00134321558815066
-0.00151820814909722
-0.00169920510171179
-0.00188637198511811
-0.00208035241199626
-0.00228292339959844
-0.00249668399146157
-0.0027256894998938
-0.00296764388710956
-0.00321727163699894
-0.00347357894152273
-0.00373405636711176
-0.00399698935931595
-0.00432728859225676
-0.00457595056241361
-0.00478788227565063
-0.00496215989888974
-0.00507958939295696
-0.00517713221847022
-0.00526014082837758
-0.00533385946243511
-0.00540393199581793
-0.0054793869032376
-0.00557452192308277
-0.00573727441158671
-0.00606761970578787
-0.006578753664686
-0.00720343492449329
-0.00778151313800447
-0.00832543260686055
-0.00876239723921921
-0.00920251473740353
-0.00934937526691929
-0.00904600456951751
-0.00706371439563964
-0.00506492075557637
-0.0021837438634169
-6.23750042484591e-05
0.00125439285296291
0.00163441921359212
0.00160415276916085
0.000439148077872183
-0.000914105882076336
-0.00269780226088646
-0.00319206607146773
-0.00190550975243365
0.000466016681543335
0.00167848300200682
0.00121364542504941
0.000923040635556105
0.00080273724365304
0.000176091784509385
0.000129765136001102
7.64046704502655e-05
4.78456979382156e-05
2.98977875563657e-05
1.29985842963552e-05
3.64793390698573e-06
-1.70629573808654e-06
-5.24782158550574e-06
-8.02822997028809e-06
-1.10262918328484e-05
-1.49518036240346e-05
-2.04571142304745e-05
-2.81697236340476e-05
-3.86011942445082e-05
-5.21255636896095e-05
-6.86435706940807e-05
-8.82242954060609e-05
-0.000110613551871353
-0.000135554655488944
-0.000162718495849742
-0.000191412886105331
-0.000221035193951147
-0.000251555357170341
-0.000284602191298668
-0.000320671296194681
-0.000358901762397716
-0.000399787088991112
-0.00044083464772542
-0.000480874577179009
-0.000518750084276519
-0.000555460348405549
-0.00059659666496287
-0.000653640457670666
-0.000738452841702374
-0.000820831773036295
-0.000819495302002782
-0.000907843745907568
-0.000932976947967024
-0.000955574270433814
-0.000961816645720285
-0.000965853548912945
-0.000964440918793079
-0.000961389860772763
-0.000974484298390813
-0.000969353923794298
-0.000957300198658593
-0.000943902460227006
-0.000928319072818458
-0.000910404554316405
-0.000890174679630563
-0.000867758693493328
-0.000843375131255833
-0.000817399349980601
-0.000790404124234351
-0.000763224540970478
-0.000737016491848438
-0.000713302968858838
-0.000694001823171709
-0.000681347354102709
-0.000677668002086598
-0.000684658339490369
-0.000702123343999309
-0.000726045961202219
-0.000748837056617623
-0.000790939206919008
-0.000945796809769298
-0.00114150445191353
-0.00130032328873423
-0.00148673597095113
-0.00167708998294004
-0.001869907283494
-0.00206542997090581
-0.00226495798726224
-0.00247029566578349
-0.00268404376558098
-0.00290961753743557
-0.0031431050444032
-0.00337846630844958
-0.0036152995667806
-0.00385261321582029
-0.00410046821769473
-0.00443839727843338
-0.00464457576731708
-0.00483803182524417
-0.00500243167278168
-0.0051236487198771
-0.00522980751106729
-0.00532328172858506
-0.00540855231094507
-0.0054909822177351
-0.00557967668238856
-0.00568755586016646
-0.00585850825938034
-0.00618272513738385
-0.0066933893635154
-0.00740457417629553
-0.00815706687777996
-0.00896858083142217
-0.00972807146046035
-0.0106033175101192
-0.0112371584198057
-0.0116142525948802
-0.00987508653265743
-0.00787209997255297
-0.00400399860233125
-0.000588103287210601
0.00194100031293646
0.00279912072345868
0.00289540403595471
0.00106767563674522
-0.000656683743084746
-0.0028757148075295
-0.00398810857251797
-0.002806505656599
0.000538883682464975
0.00296661478576575
0.00256090484187419
0.00160140914709401
0.00151485734741993
0.000375943294644612
0.000225426201324407
0.000157282172393631
9.90769311737331e-05
6.07511022414392e-05
2.75943915963696e-05
1.06724229847713e-05
1.28291305262508e-06
-4.58083460476618e-06
-8.69718872708331e-06
-1.27598966159437e-05
-1.79064559081326e-05
-2.51182430686518e-05
-3.52498843853206e-05
-4.8852698204412e-05
-6.61119585171336e-05
-8.65829638727582e-05
-0.00011035221279412
-0.000136967182482717
-0.000166258152350065
-0.000198146733112542
-0.00023221032307541
-0.000268253193628076
-0.000306634782688444
-0.000348732732002229
-0.00039422552688513
-0.00044245874736532
-0.000494088524265895
-0.000546707067631819
-0.000599927215211367
-0.000653636542155376
-0.000710224613680908
-0.000775655911491035
-0.000857823638279792
-0.000955120487881362
-0.0010158887484329
-0.00101572888066595
-0.00109390566390167
-0.00110830864889819
-0.00112114395508028
-0.00111869876916432
-0.00111459340312065
-0.00110572005567913
-0.00109335050551747
-0.00110248127550121
-0.00108460940467149
-0.00106652271162405
-0.00104707527293702
-0.00102571052433309
-0.00100232917970203
-0.000976952918465562
-0.000949713488611979
-0.000920838906611436
-0.000890710775447178
-0.000859901015502451
-0.000829227148160703
-0.000799794802201956
-0.000773023940770708
-0.000750628498547484
-0.000734506511317808
-0.000726426455733637
-0.000727402555636273
-0.000736564803120907
-0.000750878916993445
-0.00076710115151449
-0.00081797884025416
-0.00100386473997789
-0.00121964289907891
-0.00140008283627991
-0.00160319097715203
-0.00180530678230387
-0.00200725149605277
-0.00220904128796416
-0.00241248015283923
-0.00261927320394609
-0.00283190504508068
-0.00305305370212608
-0.00327775535635717
-0.00349978539132917
-0.00371918527592888
-0.00393602487930062
-0.00420286729129083
-0.0044932620594215
-0.00467942500754951
-0.00485415427400196
-0.00500568383104215
-0.00512287397326754
-0.00522730038488927
-0.00531828004122685
-0.0053990423165928
-0.00547394345618396
-0.00555114541389907
-0.00564115062273472
-0.00578239830839454
-0.00605580764854439
-0.00650624481135823
-0.00719964703676593
-0.00800048360896603
-0.00894238770984742
-0.00990664521721435
-0.0111185206940742
-0.01219934438472
-0.0133049160660549
-0.0122103127032878
-0.0108883106834191
-0.0067864031001021
-0.00243592895524598
0.00157384434234217
0.00332476706431544
0.00395996823208239
0.00182316531703403
-0.000334692151525243
-0.00292273511912181
-0.00461041043106685
-0.00383363020046072
0.00013899280827439
0.00409037110905561
0.00427752452680902
0.00290708084488523
0.00237658309324691
0.000742868534895742
0.000395640249280737
0.00029106749093631
0.000184927058360363
0.000105084212099127
5.37970001369661e-05
2.54049245658445e-05
1.00808790075023e-05
1.08491743174977e-06
-4.46259113444445e-06
-9.34334345142021e-06
-1.53155177291234e-05
-2.38347903008389e-05
-3.60632025826744e-05
-5.25838026576371e-05
-7.33641977506821e-05
-9.78140796961867e-05
-0.000126201717714528
-0.000157822744370113
-0.000192554650309029
-0.000230428228662648
-0.000271168433848435
-0.000314843786486503
-0.000361932024475554
-0.000413201478940917
-0.000467732486964405
-0.000525423477413441
-0.000587139402660054
-0.000650918264338646
-0.000717156126866586
-0.000786548915708432
-0.000862038358683377
-0.000948402983948629
-0.00104864556490801
-0.00115056443372248
-0.00119123297132964
-0.00119219624359184
-0.00125601614736346
-0.00126045706836569
-0.00126351359576442
-0.0012531740244375
-0.00124162422552989
-0.00122640295407269
-0.00121348249789531
-0.00120605328422598
-0.00118356520430767
-0.00116062271804035
-0.00113644247242286
-0.00111061457581841
-0.00108305543358899
-0.00105378462585565
-0.00102292548695475
-0.000990699498179324
-0.000957473058349652
-0.000923790136831851
-0.000890418089477643
-0.000858377054264204
-0.000828949910460305
-0.000803629649309026
-0.000783998612902941
-0.000771390148289262
-0.000766430119365154
-0.000768185454960251
-0.000775241063168803
-0.000788660224621521
-0.000849616339887957
-0.00105941251263242
-0.00128834303276781
-0.0014853949651598
-0.00170167185578464
-0.00191323618023834
-0.00212262135782412
-0.00232949967722804
-0.00253603895396962
-0.00274379075766499
-0.0029550581262529
-0.00317180509849971
-0.00338846016604064
-0.00359894463200245
-0.00380363360752554
-0.00400338038787103
-0.00430008788846839
-0.00453592470760122
-0.00470495038550491
-0.00486359620358824
-0.00500337359986132
-0.00511482496021133
-0.00521472929812972
-0.00529959038157741
-0.00537127837657428
-0.00543291492932416
-0.00549135989529832
-0.0055544294283519
-0.00565506846565032
-0.00586662183749729
-0.00624161355349977
-0.00687321460378627
-0.00765312740587161
-0.00862973205313597
-0.00969372823322523
-0.0111164318117695
-0.0125279722832283
-0.0142445042152195
-0.0145649041075187
-0.013622348943954
-0.00993022046298744
-0.00538278986224857
-0.000152578750037505
0.00270065577033582
0.00430382391056937
0.00242799668450074
-7.42095003384677e-05
-0.00292557687744467
-0.0050844571551015
-0.00488041943653883
-0.000748941613612501
0.00469772341248911
0.00590385363030431
0.0047186907174163
0.00350587904433918
0.00135914002496117
0.000648071706499185
0.000489056517250049
0.000314908510585159
0.000177193064117661
9.66823262800313e-05
5.20340117916117e-05
2.82791377277667e-05
1.49445000485983e-05
7.48406978910939e-06
1.5656357075272e-06
-5.4066747205087e-06
-1.55149629788693e-05
-3.02691407944059e-05
-5.02303385405976e-05
-7.51156742983987e-05
-0.000104328907005769
-0.000138202020895185
-0.000175607523103234
-0.000216390270468746
-0.000260633841747592
-0.000308243459217197
-0.000359529509604219
-0.000414976099954151
-0.000474719071491545
-0.000537563063662065
-0.000604070975795085
-0.000675288786644892
-0.000749808759398707
-0.000828599289389369
-0.000912761199587472
-0.00100500763821215
-0.00110804984851243
-0.00122019925092456
-0.00132234562820306
-0.00134635130183633
-0.00134768419120801
-0.00139684008143451
-0.0013929004099662
-0.00138712186529053
-0.00137003850553302
-0.00135203262840172
-0.00133114071764716
-0.00132522989447926
-0.00129749491054875
-0.0012711344291576
-0.00124430191990253
-0.00121640744439887
-0.00118712157667834
-0.00115636097037643
-0.00112413606638382
-0.00109055347979961
-0.00105581591151421
-0.00102025906626258
-0.000984380157991506
-0.000948875327425933
-0.000914659223973714
-0.000882863429056704
-0.000854765929235201
-0.000831676899589422
-0.000814623611835776
-0.000804086118889585
-0.000799478866903868
-0.000801229613878853
-0.00081421388627698
-0.000884976785042231
-0.00111260913266483
-0.00135036137222979
-0.00156036736615891
-0.00178723226726401
-0.00200661342263132
-0.0022222502759651
-0.00243343745904181
-0.00264258198548172
-0.00285105753996213
-0.00306094680429152
-0.00327356122017532
-0.00348304814416926
-0.00368366851026825
-0.00387605050827531
-0.00406181346574301
-0.00439661877137627
-0.00457345278724732
-0.00472818540765111
-0.0048736851919371
-0.00500371427388768
-0.00510968824336081
-0.00520484995650056
-0.00528323032131046
-0.00534541204835328
-0.00539330310184176
-0.00543247242768176
-0.00546820270078779
-0.00552858939548689
-0.00568121404244921
-0.00598473990781191
-0.00654401546393679
-0.00727539182628997
-0.00823751168925181
-0.00933816111197634
-0.0108786062902156
-0.0125151570403014
-0.0146876490498752
-0.0158594963108479
-0.015793110244827
-0.0128319345231972
-0.00869514508325792
-0.00285347374166043
0.000959534013174892
0.00373202414563531
0.00263878403909812
4.89665271066734e-06
-0.00295870310398554
-0.00545327246632708
-0.00584510350157343
-0.0019519039455905
0.00469854325887265
0.00707040288729932
0.00677420479523965
0.00486911288894432
0.00230155742701025
0.000994654927171911
0.000685557754422083
0.000473448000560735
0.000278265118927631
0.000160136410980227
9.37837471252121e-05
5.82822093081178e-05
3.85961718972339e-05
2.78221999816053e-05
1.97065944661751e-05
1.06957896130597e-05
-1.97322414510279e-06
-2.01073941599617e-05
-4.41744378116769e-05
-7.3659641100807e-05
-0.000108071225854623
-0.000147654390247813
-0.000190861271024201
-0.000237552613759646
-0.000287907162582508
-0.000342057909945342
-0.000400513610482069
-0.000463700945613922
-0.000531217533610688
-0.000601812312202959
-0.000676663159173116
-0.00075695480371206
-0.000841796319929258
-0.000932470536014042
-0.00103010352063641
-0.00113665114461003
-0.00125248885022798
-0.00137210657866349
-0.00147255853391787
-0.00148353062618422