/*--------------------------------*- C++ -*----------------------------------*\
  =========                 |
  \\      /  F ield         | OpenFOAM: The Open Source CFD Toolbox
   \\    /   O peration     | Website:  https://openfoam.org
    \\  /    A nd           | Version:  7
     \\/     M anipulation  |
\*---------------------------------------------------------------------------*/
FoamFile
{
    version     2.0;
    format      ascii;
    class       volScalarField;
    location    "20000";
    object      nut;
}
// * * * * * * * * * * * * * * * * * * * * * * * * * * * * * * * * * * * * * //

dimensions      [0 2 -1 0 0 0 0];

internalField   nonuniform List<scalar> 
15600
(
2.40335230158076e-11
2.49337220565907e-11
2.38373684700705e-11
2.02835677063472e-11
1.59286148881684e-11
1.09197486372708e-11
6.30829803241771e-12
3.13179232900498e-12
1.78884768499901e-12
1.58770803986349e-12
1.54413643065366e-12
1.35932071057837e-12
1.15445129671334e-12
1.04086865787765e-12
1.04669014501947e-12
1.15560783679955e-12
1.35281528799101e-12
1.6346003082514e-12
2.00778439715905e-12
2.47849101758954e-12
3.06515165345233e-12
3.80148501685397e-12
4.74080579377637e-12
5.96198515299882e-12
7.57268879757707e-12
9.70295101109075e-12
1.25184057809072e-11
1.62580079154559e-11
2.12249527211555e-11
2.77699555378801e-11
3.62887545648127e-11
4.72018329389047e-11
6.09330247449637e-11
7.79295361720501e-11
9.87544676059397e-11
1.2392232907472e-10
1.53522250874428e-10
1.8736846096345e-10
2.24922921070134e-10
2.65213619031582e-10
3.06881894096574e-10
3.48423497549103e-10
3.89186642807161e-10
4.3073527014288e-10
4.82252158559829e-10
5.70822176251658e-10
6.62144138324063e-10
7.45658289726709e-10
8.22541879882105e-10
8.9456885420486e-10
9.62248432360517e-10
1.02627360078025e-09
1.08688032602881e-09
1.14433645438973e-09
1.19876722627707e-09
1.25031271199168e-09
1.29916506116154e-09
1.3455416841662e-09
1.3885081531241e-09
1.42739407120387e-09
1.46196303575751e-09
1.4920676371334e-09
1.51760547756714e-09
1.53855145224661e-09
1.55499784032365e-09
1.56719662455574e-09
1.57563407454229e-09
1.58107249585305e-09
1.58470718266917e-09
1.58815029199643e-09
1.59385125292627e-09
1.60465476801728e-09
1.62514963711142e-09
1.65764463079056e-09
1.70314217797647e-09
1.725185852461e-09
1.64438980650756e-09
1.61788442922318e-09
1.63427408109996e-09
1.6616460268473e-09
1.69042872138771e-09
1.71252244920239e-09
1.72429461847146e-09
1.72264750762011e-09
1.70654076727602e-09
1.67531721513307e-09
1.63130881199866e-09
1.58122739177014e-09
1.52609856479143e-09
1.46283641476676e-09
1.39038595420162e-09
1.30834957428746e-09
1.2169488045645e-09
1.11868945800132e-09
1.01585139801981e-09
9.07277924341588e-10
7.99458338942286e-10
6.96797507301384e-10
6.01759461341048e-10
5.15403458334731e-10
4.38050636592109e-10
3.69736285637633e-10
3.10549232104077e-10
2.61172421262397e-10
2.20544963233661e-10
1.8571906854916e-10
1.56483593611117e-10
1.32235271300072e-10
1.12733191007055e-10
9.70571683012806e-11
8.45083788118271e-11
7.35941521647216e-11
6.30929532336908e-11
5.22644512001192e-11
4.24423095178004e-11
3.44980997558532e-11
2.86401144558855e-11
2.43568161867893e-11
2.29919323921942e-11
2.32758571395247e-11
4.60489451437754e-09
4.77649552465667e-09
4.56712015445384e-09
3.88572627648428e-09
3.05268795822089e-09
2.09531897852007e-09
1.21366792298971e-09
6.04541938370173e-10
3.45193481922557e-10
3.05526636114784e-10
2.97326067935867e-10
2.6220292620356e-10
2.2282779924323e-10
2.00709974073883e-10
2.01481106252032e-10
2.22104484063625e-10
2.59724341751107e-10
3.13581560013135e-10
3.84980796603159e-10
4.75076755276609e-10
5.87350247625152e-10
7.28200047015512e-10
9.07763329496423e-10
1.1410547295185e-09
1.44862956989068e-09
1.85540152835251e-09
2.39290509813919e-09
3.10663503263913e-09
4.05452810869744e-09
5.30371594620703e-09
6.93005707743388e-09
9.01430437834069e-09
1.16378642978288e-08
1.48855360054332e-08
1.88642246609121e-08
2.36743877823194e-08
2.93346636137855e-08
3.58103844501847e-08
4.29994190645315e-08
5.07160625111466e-08
5.86991710037947e-08
6.66556266420221e-08
7.44565051900805e-08
8.2364522000633e-08
9.19903033105393e-08
1.0883815322148e-07
1.26283385456889e-07
1.42235284903228e-07
1.56914078364653e-07
1.70665873603848e-07
1.83587400334692e-07
1.95813739946686e-07
2.07390310883361e-07
2.1836945193788e-07
2.28775421440385e-07
2.38635428899129e-07
2.47986254313881e-07
2.56869961758152e-07
2.650714971405e-07
2.72485158784494e-07
2.79080375897895e-07
2.84829071820705e-07
2.8971170602475e-07
2.93723424412523e-07
2.96881682961609e-07
2.99234398183798e-07
3.00873991723046e-07
3.01945720136455e-07
3.02676792443548e-07
3.03374701332709e-07
3.04504043777834e-07
3.06606625968036e-07
3.10543265887921e-07
3.16767024584457e-07
3.25331741827492e-07
3.29219810158403e-07
3.14228743040735e-07
3.09406127364385e-07
3.1264533020196e-07
3.17940448773175e-07
3.23481801426041e-07
3.27735225453167e-07
3.30009328618255e-07
3.29718799577321e-07
3.2666449877112e-07
3.20729852096184e-07
3.1237254567793e-07
3.02849607138479e-07
2.92332748582704e-07
2.80236445688784e-07
2.66365173578963e-07
2.50646492316389e-07
2.33125969752138e-07
2.14292339463543e-07
1.9457478451855e-07
1.73775503459666e-07
1.53134228502228e-07
1.33484588021915e-07
1.15292975248441e-07
9.87611108788204e-08
8.39509395500586e-08
7.08705728201581e-08
5.9539206027003e-08
5.00834144754811e-08
4.22942324867516e-08
3.56148180280622e-08
3.00060253830168e-08
2.53535784984157e-08
2.16099548293139e-08
1.8599082912734e-08
1.6186230882833e-08
1.4087476437767e-08
1.20635130805263e-08
9.98371488058169e-09
8.10859315334306e-09
6.59509505163659e-09
5.47924036489716e-09
4.66275129798366e-09
4.40521800621545e-09
4.46023668174229e-09
1.01891539703873e-07
1.05610505138378e-07
1.00994111254288e-07
8.58475717800746e-08
6.74568852128072e-08
4.6381623328316e-08
2.69766521425612e-08
1.35108635566075e-08
7.71890346045318e-09
6.81643563110523e-09
6.63802657383256e-09
5.86496677180903e-09
4.98818283730523e-09
4.48954904312575e-09
4.49950173873424e-09
4.95245532632189e-09
5.78481562100164e-09
6.97811893961774e-09
8.56139190809478e-09
1.05598994438653e-08
1.30494266204264e-08
1.61701218002648e-08
2.0144335982393e-08
2.53017078903836e-08
3.20952400902949e-08
4.10773808291811e-08
5.29397344769713e-08
6.86768806569189e-08
8.95605906772784e-08
1.1706501882869e-07
1.52855371614283e-07
1.98702460884869e-07
2.56376681379133e-07
3.27657631501341e-07
4.14799720770057e-07
5.20035762835065e-07
6.43777060757577e-07
7.85241743674209e-07
9.42183144019743e-07
1.1105068682001e-06
1.2843860938666e-06
1.45705626784021e-06
1.62473665172702e-06
1.79016915370598e-06
1.98488862069445e-06
2.34485309157299e-06
2.72180470304194e-06
3.06604647868832e-06
3.38252837139328e-06
3.67906491267904e-06
3.95780621063435e-06
4.2218371884706e-06
4.47218922248697e-06
4.71006701461193e-06
4.93602158066333e-06
5.15065164949515e-06
5.35473847483443e-06
5.5478173006516e-06
5.72464336887346e-06
5.88507045539818e-06
6.02840033585429e-06
6.15401836201499e-06
6.26148463199511e-06
6.35066548808706e-06
6.42189612866135e-06
6.47615897080815e-06
6.51537871691532e-06
6.5426159656886e-06
6.5626607357159e-06
6.58204852290858e-06
6.61056442846661e-06
6.6596933114181e-06
6.74717400215907e-06
6.88241513009714e-06
7.05973518110679e-06
7.12787347172906e-06
6.82673259664496e-06
6.73832699346278e-06
6.8140812716914e-06
6.93114311310865e-06
7.052345141486e-06
7.1456005924014e-06
7.19631616548456e-06
7.19219326915246e-06
7.12885196311335e-06
7.00393789082266e-06
6.82730941967252e-06
6.62484226987893e-06
6.39953289339839e-06
6.13899150602028e-06
5.83906876055068e-06
5.49814010010252e-06
5.11698117852111e-06
4.70667398561527e-06
4.27621521203881e-06
3.82216442652757e-06
3.37081233978329e-06
2.9403405185406e-06
2.54110104391393e-06
2.17775618185723e-06
1.85187799711787e-06
1.56381214564483e-06
1.31408552687754e-06
1.10533624033522e-06
9.32990564412884e-07
7.85238967016467e-07
6.61145278308382e-07
5.58222640034251e-07
4.7534825181099e-07
4.0865931575472e-07
3.55169238863256e-07
3.08755069745812e-07
2.63787597951728e-07
2.1790463143269e-07
1.77170222785171e-07
1.44514739026068e-07
1.20438379661903e-07
1.02785192595497e-07
9.74186781211123e-08
9.87302816918667e-08
8.2222146446124e-07
8.51069869424128e-07
8.13815785860312e-07
6.90794348828443e-07
5.43410322848245e-07
3.75444565040904e-07
2.2036682774453e-07
1.1166524885138e-07
6.39023963576976e-08
5.63378371859203e-08
5.49189181975074e-08
4.86266082070933e-08
4.13954541922913e-08
3.7229071815388e-08
3.72454582857938e-08
4.0920619319036e-08
4.77299303583744e-08
5.75041743358522e-08
7.04810994831448e-08
8.68612738617998e-08
1.07246285197983e-07
1.32758963014503e-07
1.65181760222998e-07
2.07158773416476e-07
2.62338135488295e-07
3.3518849431223e-07
4.31191056687697e-07
5.58181134917783e-07
7.26194902255483e-07
9.46791198361671e-07
1.23291432607516e-06
1.5981298520651e-06
2.05552373410972e-06
2.6172821847478e-06
3.29928846687736e-06
4.11836229270157e-06
5.07629862519704e-06
6.16534590300937e-06
7.36650694122231e-06
8.64626312808622e-06
9.95672237671081e-06
1.12395049794474e-05
1.2449287586668e-05
1.3585081316981e-05
1.49115914252994e-05
1.757701706476e-05
2.03659929346683e-05
2.28971502247888e-05
2.52151499573275e-05
2.73825351271039e-05
2.94161519820178e-05
3.13417506886533e-05
3.31677357876385e-05
3.49043709995639e-05
3.65562610013842e-05
3.81279810092157e-05
3.96232908181084e-05
4.10071229431134e-05
4.22829242452413e-05
4.34468758885127e-05
4.44944541560308e-05
4.54216031648476e-05
4.62253274002611e-05
4.69045915614281e-05
4.74614257796436e-05
4.79021722248122e-05
4.8239503059491e-05
4.8493842374882e-05
4.86973598045011e-05
4.88943258832132e-05
4.91508538116922e-05
4.9544750620684e-05
5.01936639835694e-05
5.11557692332058e-05
5.23395637923793e-05
5.2680567975353e-05
5.07006164277844e-05
5.02315404098359e-05
5.08199864275865e-05
5.16695126441924e-05
5.25427126921392e-05
5.32244498469176e-05
5.36176142642311e-05
5.36386625358555e-05
5.32552737090881e-05
5.24487912995715e-05
5.12837978602434e-05
4.992737122974e-05
4.8390660053957e-05
4.65850006348659e-05
4.44775490130172e-05
4.2050962176931e-05
3.93041466781038e-05
3.63174339730463e-05
3.31476709928042e-05
2.97742762843512e-05
2.63830736140126e-05
2.31135693074985e-05
2.00509314790635e-05
1.7239284222471e-05
1.46988176361252e-05
1.24391937349289e-05
1.04698203541857e-05
8.8140031328009e-06
7.43936700907088e-06
6.25809249059533e-06
5.26360205568847e-06
4.43748924061544e-06
3.77086718175708e-06
3.23341225023473e-06
2.80152835991035e-06
2.42821387947868e-06
2.06536403837179e-06
1.69928538662553e-06
1.38374091325713e-06
1.1358285033782e-06
9.54066211707085e-07
8.20607854208128e-07
7.83720561301863e-07
7.96973080962112e-07
3.79649698475444e-06
3.92444617372796e-06
3.75514467685309e-06
3.18457195767864e-06
2.51197430873935e-06
1.75328920699554e-06
1.04864396283231e-06
5.43887014299844e-07
3.12860082697409e-07
2.75488958926358e-07
2.68943007885583e-07
2.38661287051377e-07
2.0335185278552e-07
1.82713948027176e-07
1.82402181637653e-07
1.99948970451439e-07
2.32781238780407e-07
2.79961642218894e-07
3.42619156269386e-07
4.2164926520648e-07
5.19791975098556e-07
6.4223822431444e-07
7.97228622513966e-07
9.96989702025436e-07
1.25844276416145e-06
1.60226858608924e-06
2.05294597966435e-06
2.64515443656434e-06
3.42311184774216e-06
4.43667739559915e-06
5.74015140965941e-06
7.38779857273864e-06
9.42703803979526e-06
1.18953341783696e-05
1.48475297093347e-05
1.83458467768205e-05
2.23797763958978e-05
2.68977624335968e-05
3.18015863506269e-05
3.69335511620255e-05
4.20768075731877e-05
4.69669211183469e-05
5.13830050588306e-05
5.53849360043015e-05
6.03311023247936e-05
7.08523322278999e-05
8.14505499319137e-05
9.09447356136521e-05
9.9530680430683e-05
0.000107489216551173
0.000114889052347562
0.000121850150574913
0.000128409563655608
0.000134616396535686
0.00014049260617612
0.000146058581155552
0.000151236063023807
0.000156031498155367
0.000160454938263592
0.000164497890726185
0.000168149699415571
0.000171400729387053
0.000174244074649935
0.000176678418920069
0.000178711462916402
0.000180363888983487
0.000181675799069808
0.000182711382208398
0.000183571804711701
0.000184396765907082
0.000185395575406211
0.000186814775029285
0.000189023364168126
0.00019218015485655
0.000195820055573593
0.000196370992743073
0.000189975144799971
0.000188801700899469
0.000190798530413251
0.000193578985021062
0.000196446226999822
0.000198726686596194
0.000200127180735233
0.000200385620609131
0.000199393624974933
0.000197079847609254
0.000193634830959471
0.00018954685158539
0.000184808437701367
0.000179114130963691
0.000172329237257081
0.000164354983476896
0.00015514695824819
0.000144939596465627
0.000133865726567657
0.000121821934620279
0.000109410766124232
9.71376646514788e-05
8.5346123395717e-05
7.42530906245531e-05
6.39963444965404e-05
5.46775904061272e-05
4.63954833789711e-05
3.93040780639178e-05
3.33243435366945e-05
2.81193144922209e-05
2.36860384018449e-05
1.99682752172202e-05
1.69434207101357e-05
1.44870254284418e-05
1.25018555891255e-05
1.07881442089301e-05
9.11971452578112e-06
7.44694643107699e-06
6.05672838050904e-06
5.00628851540031e-06
4.25523079964695e-06
3.70893644145583e-06
3.58787629750544e-06
3.67665619332821e-06
1.20982404131759e-05
1.25058056187285e-05
1.20091275199408e-05
1.02012665946043e-05
8.08196316466498e-06
5.72749491160959e-06
3.53406466133714e-06
1.91149051947522e-06
1.11568309203297e-06
9.82380089863035e-07
9.61158393061086e-07
8.54897397981128e-07
7.28973040357482e-07
6.54160508550534e-07
6.51245565635307e-07
7.11809918399284e-07
8.26538547270176e-07
9.91549030058675e-07
1.21060062332662e-06
1.48630421165673e-06
1.82727402663497e-06
2.25026841688801e-06
2.78192623065541e-06
3.4617987450998e-06
4.34469297704463e-06
5.49656784576381e-06
6.99094871756796e-06
8.93105330706807e-06
1.14466483752331e-05
1.46774741152813e-05
1.87665907154298e-05
2.38419490598326e-05
2.99913368550321e-05
3.72595201896524e-05
4.57572362505543e-05
5.56176060055085e-05
6.67348281005385e-05
7.89005451907287e-05
9.17882429708414e-05
0.000104932497969386
0.000117742645921072
0.000129555388907456
0.000139937795101406
0.000149559882278664
0.000162546343430678
0.000189586290279475
0.000214997515676331
0.000237519990993537
0.000257506736811031
0.000275828090743274
0.00029264404723119
0.000308314313620977
0.000322938782600465
0.000336664501006738
0.000349556117611528
0.000361567224706167
0.000372670233184482
0.000382940491633408
0.000392385673140676
0.000401000731412167
0.000408774507182721
0.000415696772345007
0.000421761265498533
0.00042697152209734
0.000431347576876737
0.000434933951583312
0.000437812576278681
0.000440112545673066
0.000442036321749657
0.000443864264003166
0.000446016531835068
0.000448988639481893
0.000453498792881714
0.000459771785892353
0.000466485153200607
0.000466190107054094
0.000452960338792122
0.000450913268038437
0.000454826725204009
0.000460278898794502
0.000465972144558384
0.000470577325405456
0.000473538030991247
0.000474338927529435
0.00047275899551438
0.000468644931791842
0.00046236293812903
0.000454801709109615
0.000445863372556483
0.00043490272820068
0.00042159648986813
0.000405658980656209
0.000386928854698612
0.000365826912015966
0.000342468103149544
0.000316513653436844
0.000289113903001698
0.000261310189712602
0.000233847012438665
0.000207249815611507
0.00018191079409785
0.000158182853440044
0.000136444730074154
0.00011727814762909
0.000100691639655357
8.58702500438613e-05
7.29218079301372e-05
6.18095884263852e-05
5.25888192658516e-05
4.49672563622272e-05
3.87227126648025e-05
3.32934260423035e-05
2.79895659796192e-05
2.26142564217361e-05
1.82565512930874e-05
1.51128604870766e-05
1.29773239346598e-05
1.14750611635539e-05
1.12640310148475e-05
1.16787869533634e-05
2.92176532325531e-05
3.02697080386049e-05
2.9305259782545e-05
2.50559894391443e-05
1.9966981991334e-05
1.43881937270939e-05
9.23895520095213e-06
5.32826179544916e-06
3.21537684532601e-06
2.84080569004638e-06
2.78966937445341e-06
2.48731118677849e-06
2.12222863150883e-06
1.90112656655573e-06
1.88578939815193e-06
2.05319945367734e-06
2.37545242224549e-06
2.83919299634004e-06
3.45388721039964e-06
4.2242400044669e-06
5.17020460104198e-06
6.33276105308108e-06
7.77759532491683e-06
9.60269957113761e-06
1.19437927528054e-05
1.49584930550395e-05
1.88066006279499e-05
2.37131740667234e-05
2.99550364195479e-05
3.78081683333214e-05
4.75265110303751e-05
5.9292374820848e-05
7.31654195262272e-05
8.91178529892973e-05
0.00010732389164115
0.000127978678634183
0.000150709121243926
0.000174989146436892
0.000200085673947024
0.000225064107698361
0.000248850083992878
0.000270406627400137
0.000289440711092289
0.000308202714994489
0.000334941103936109
0.000386460014675203
0.000431479221971548
0.000471348373833468
0.000506069614216188
0.000537659892637027
0.000566333234719532
0.000592858345278496
0.000617416599279886
0.000640313365327231
0.000661619627281318
0.000681272862992101
0.000699435843716687
0.00071618551487065
0.00073154186688343
0.000745512205857365
0.000758091606117852
0.000769274982615217
0.000779061482965619
0.000787463962343164
0.000794519461252708
0.000800302123067742
0.000804943645326497
0.000808649777970932
0.000811741526841554
0.000814665149837008
0.000818083707320106
0.000822774682599652
0.000829791205221943
0.00083926720516495
0.000848519205852594
0.000845777049985638
0.000824643753486965
0.000821639783535286
0.00082743801159961
0.000835688306696827
0.000844455709185044
0.000851680808444448
0.000856517560421372
0.000858164970468479
0.000856268995201911
0.000850587956369815
0.000841691348649223
0.000830847171112166
0.000817792017907698
0.000801483386948571
0.00078135203779359
0.000756813463730731
0.000727616232702859
0.000694354200857941
0.000656998508901327
0.000614847088352837
0.000569592962618572
0.000522844082797731
0.00047574511592841
0.000429130435463997
0.000383655953905909
0.000339975403986527
0.000298846096092332
0.000261557457371954
0.000228466579319478
0.000198018941053787
0.000170579395820028
0.000146278944012583
0.00012553879912156
0.000107920466714646
9.31655709089286e-05
8.00977286304412e-05
6.72296360900005e-05
5.37579307679294e-05
4.28210633552847e-05
3.51587673113505e-05
3.02502817450457e-05
2.69713617084943e-05
2.67394037195569e-05
2.80441533747937e-05
5.71093673061508e-05
5.94066755406366e-05
5.82132830539374e-05
5.03691769326639e-05
4.0433065280645e-05
2.95342051574521e-05
1.97125840028769e-05
1.23172803550649e-05
7.90305664392355e-06
7.06067159362377e-06
6.98027714868488e-06
6.24248759039766e-06
5.32978952359186e-06
4.76396051878298e-06
4.70311808894692e-06
5.09447045346991e-06
5.86419923857664e-06
6.9721278211524e-06
8.43627892077194e-06
1.02578424690452e-05
1.24701080823605e-05
1.51510668171701e-05
1.84296246256332e-05
2.25015555139963e-05
2.76380191041522e-05
3.41355188940161e-05
4.22562773142066e-05
5.2386824845394e-05
6.49917318668323e-05
8.04867864219503e-05
9.91971433258698e-05
0.000121266184506226
0.000146601257320282
0.000175023637245229
0.000206798692765396
0.000242119800746547
0.000280139989002894
0.000319892176079381
0.000360129419996168
0.000399424045449522
0.000436305732068155
0.000469646152607129
0.000499846229090607
0.000531466426660111
0.000577094953002475
0.00065733384197845
0.000723640799783838
0.00078284052312646
0.000833657110724015
0.000879776816905411
0.000921332563517808
0.000959620784052423
0.00099489283847492
0.00102765713476928
0.00105783869520276
0.00108568221764362
0.00111137476102698
0.00113501358968194
0.00115663840973647
0.00117627248595479
0.00119392002197913
0.00120958346308313
0.00122326939297615
0.00123500206015072
0.00124483797418086
0.00125288444447539
0.0012593280413484
0.00126445914745626
0.00126872771219251
0.00127275994902174
0.00127746964765743
0.00128390928654824
0.00129337214594011
0.00130568465128616
0.00131644164306139
0.00130985373037273
0.00128080114716323
0.0012768150421263
0.00128434116201843
0.00129536467414073
0.0013072971975434
0.00131733755055309
0.00132432998442732
0.00132717399299173
0.00132536776674407
0.00131858701780251
0.00130761668456945
0.00129404354473163
0.00127737861091984
0.00125616237109099
0.0012295408965559
0.00119649487402473
0.00115687786225863
0.00111136000822664
0.00105969914051121
0.00100077832227244
0.000936805428351118
0.000869964891507031
0.000801775431091505
0.000733342170189509
0.000665533544927064
0.000599265403813949
0.000535641454859277
0.000476757738897267
0.000423552309631715
0.000373440086582198
0.000327039919476779
0.000284685562030537
0.000247496239771421
0.000214931841611877
0.000186973244383563
0.000161537229304284
0.000136199057565571
0.000108318778731044
8.50143076275192e-05
6.86411517590525e-05
5.85365216380865e-05
5.20534201231338e-05
5.16146073317721e-05
5.44753612218692e-05
9.57100340769707e-05
9.99921534565101e-05
9.93278247838235e-05
8.73190019703742e-05
7.07251659264396e-05
5.20825241815423e-05
3.57220814982759e-05
2.41796443197201e-05
1.69958576540911e-05
1.55603242258873e-05
1.55782046949055e-05
1.39983104245634e-05
1.1968928153625e-05
1.06727590140682e-05
1.04736500752583e-05
1.12702069826248e-05
1.28840281475453e-05
1.52071498300262e-05
1.82624768565101e-05
2.20225297002098e-05
2.65194525056801e-05
3.18683203279467e-05
3.82772005692301e-05
4.60768461483522e-05
5.57268323034723e-05
6.76887720448149e-05
8.23044330897345e-05
0.000100143901292494
0.000121871311797579
0.0001479991812198
0.000178832682263538
0.000214347210554371
0.000254186632341818
0.000297997830823204
0.000346164669476434
0.000398765695882754
0.000454334597520192
0.000511439739275851
0.000568329368956889
0.000623195252684891
0.000674387192304448
0.000721045778084402
0.000764707000528608
0.000812445364743766
0.000880514842594023
0.000990437138398614
0.00107820528275829
0.00115745031968256
0.00122484326034738
0.0012860407371248
0.00134095160243273
0.00139145115191225
0.00143784026903572
0.00148075605747602
0.00152015463602372
0.00155650610655861
0.00159000475221437
0.00162077816234644
0.00164888848890399
0.00167437589860266
0.00169725490060971
0.00171753651398965
0.0017352359887817
0.00175039057706449
0.00176307851948829
0.00177344365937542
0.00178173199776608
0.00178832493761419
0.00179380764775052
0.00179899149427551
0.00180503090555188
0.00181321659250611
0.00182495125890713
0.00183954788298236
0.00185071492320162
0.00183934408791832
0.00180293715314557
0.00179798167119128
0.00180712920292375
0.00182092947400719
0.00183612506061965
0.00184919104051212
0.00185863999070828
0.00186306656342608
0.00186180884457678
0.00185446921949295
0.0018420466625673
0.00182637466677396
0.00180669385105221
0.00178112405926477
0.00174847836277865
0.00170718148611102
0.00165748107680947
0.00159994724069401
0.00153410863717135
0.00145843111532934
0.00137560823051501
0.00128841714860251
0.00119874490761839
0.00110795180428865
0.00101708701873539
0.000927296456791456
0.000839979466110462
0.000758028854899031
0.000683145038419997
0.000611504668793664
0.00054385778918931
0.000480605656096142
0.000423779759713827
0.000372650064367386
0.000327789266426283
0.000285769449007587
0.000243467031872817
0.000194191957947086
0.000150963470368479
0.000119532921182081
0.000100215093699713
8.79104187003786e-05
8.62601449689035e-05
9.0923115459818e-05
0.000144304758239757
0.000151200938903565
0.000152113970140106
0.000136104545402209
0.000111457434303257
8.23963519036441e-05
5.71170124688311e-05
4.11982274641033e-05
3.22390915146072e-05
3.08185883943031e-05
3.15244011762153e-05
2.86011664655384e-05
2.45449849284743e-05
2.18475638358107e-05
2.12919675528179e-05
2.27240435389604e-05
2.57473762235631e-05
3.01020645857343e-05
3.57926609000188e-05
4.26968345744454e-05
5.07987060766593e-05
6.02262300562276e-05
7.12693800810077e-05
8.44281040597567e-05
0.000100397529459305
0.000119804157158654
0.000143022118884293
0.000170825001215164
0.000204060764267445
0.000243260372603888
0.000288597515927008
0.000339769675920796
0.000396111095766702
0.000457130448296033
0.000523338409873826
0.000594588391514433
0.000668759800525124
0.000744011809855557
0.00081817238965439
0.000889219310826304
0.000955553525491704
0.00101687688505536
0.00107607576835663
0.00114253239007763
0.00123513090601868
0.00137402794340673
0.00148315564269753
0.00158265273871908
0.00166687211727009
0.0017434709503868
0.00181206266981622
0.00187509561861417
0.00193292277946165
0.0019861941521689
0.00203510964845766
0.00208022730044264
0.00212176372161098
0.00215988176875543
0.00219466736329348
0.00222617811305237
0.0022544399659371
0.0022794736545196
0.00230130466357577
0.00231998527264278
0.00233561811626951
0.00234838705290183
0.00235860153500469
0.002366738419504
0.00237351999231126
0.00237993927334155
0.00238736724901817
0.00239727701733153
0.00241104504874225
0.00242731360085807
0.00243791537180653
0.00242127739797792
0.00237837590580544
0.00237249697196968
0.00238322794739649
0.00239985007263374
0.00241842574097764
0.00243474073966276
0.00244695393278909
0.00245335512390582
0.00245311201968509
0.00244576258739682
0.00243250666232549
0.00241535042703128
0.00239323200689655
0.00236385397376039
0.00232559157674924
0.00227637290898845
0.00221697105204164
0.00214773843784782
0.00206796943166558
0.00197573547690011
0.00187418075644375
0.00176668602053857
0.00165551116398542
0.00154227294139837
0.00142819167357084
0.00131463346203765
0.00120326511333337
0.00109773184139178
0.00100063820814334
0.000906854349432068
0.000817135511328028
0.00073175686265094
0.000653784284257226
0.000582083547326482
0.000518185380439333
0.000456712544422406
0.000394486762466808
0.000318033997580063
0.000247240658189782
0.000192822900899945
0.000158583970046261
0.000136246626189089
0.000131177687731701
0.000137054668515784
0.000202805617072612
0.00021257203905242
0.000216018986932739
0.000196690801925827
0.000163183335083873
0.000121017899261928
8.34347225129782e-05
6.2568646735701e-05
5.41362609617415e-05
5.50188925222455e-05
5.82038474367721e-05
5.37211660488883e-05
4.6472018137615e-05
4.13567390456235e-05
4.00330389176619e-05
4.2322517293433e-05
4.74370626701544e-05
5.481993411401e-05
6.4398988501381e-05
7.58322181385124e-05
8.89728554188333e-05
0.0001039180546042
0.000121040820855955
0.000141050787201878
0.000164920097949584
0.000193419742384858
0.000226910032816788
0.000266390039739566
0.000312851101271161
0.00036675695002764
0.000428062646672447
0.000496139368938412
0.000570036662699118
0.000649187459150157
0.00073420885684099
0.000824649828879863
0.000917780642679164
0.00101143047602903
0.00110311541164189
0.00119075934387601
0.00127300306460962
0.00135029017266917
0.00142687487777839
0.00151402127929015
0.00163219269041426
0.00179875773023238
0.00192924282509639
0.00204897797168719
0.00215023761845741
0.00224247501768804
0.00232502776744218
0.00240086630602186
0.00247039136075245
0.00253424313515793
0.00259293328186936
0.00264704476880479
0.00269682726686576
0.00274248130180483
0.00278411783535071
0.00282181280504972
0.00285560517308561
0.00288552700978977
0.00291161613985361
0.00293394234990519
0.00295263558296691
0.00296792296268341
0.00298018036313004
0.00298998197102881
0.0029981844182546
0.00300595092113817
0.00301483482710562
0.00302642625307915
0.0030419529279498
0.00305929024679082
0.00306853745309756
0.00304652304293378
0.00299812794652109
0.00299140966805874
0.00300373739338052
0.00302324890905789
0.0030453240518478
0.00306510409273329
0.00308037505493561
0.00308912582604625
0.00309034565237914
0.00308351500021292
0.00307001173803401
0.00305194262349257
0.00302792166247012
0.00299524010265534
0.00295167148702744
0.00289490083295394
0.00282617999813467
0.00274558613391181
0.00265218087274477
0.00254367820679232
0.00242363071355493
0.00229602051861384
0.00216348418976771
0.00202790096135994
0.00189066220654656
0.00175335512852972
0.00161790285899768
0.00148864860977621
0.00136919848641835
0.00125316171591516
0.00114121268621066
0.00103332538485845
0.000933685349036004
0.000840498250386461
0.000756629490522034
0.000674083962628103
0.000590419418859746
0.00048333470310014
0.00037918281297014
0.000293827710016568
0.000237973145852251
0.000199888569464108
0.000187904108432082
0.000193422695716114
0.000272125568012027
0.000284468594733162
0.00029100605918478
0.000269202366471917
0.000226559134322837
0.000169101824846986
0.000114543375722784
8.7050992573444e-05
8.13979249589998e-05
8.86271676709134e-05
9.8119037163432e-05
9.30038207581245e-05
8.15980530046244e-05
7.2840303722103e-05
7.01249626369097e-05
7.33997032616774e-05
8.12792650363073e-05
9.27102480331614e-05
0.000107444040069907
0.00012473939841147
0.000144216953892598
0.000165898804564466
0.000190254510246617
0.000218251523599334
0.000251169481891854
0.000289894469516825
0.000334748636976298
0.000386978266464781
0.000447668776382999
0.000517153730182062
0.000595128286977706
0.00068064552798026
0.000772528930835182
0.000870184746536332
0.00097428906877879
0.00108404179725479
0.00119618604245409
0.0013082950090705
0.00141768079123076
0.00152234480345697
0.00162130013144106
0.00171580811718278
0.00181137228243348
0.00192063348893941
0.0020647267959432
0.00225754702997286
0.00240948301967648
0.00254931402189038
0.00266781184033988
0.00277586002788556
0.00287261357755353
0.00296148430332201
0.0030428748727158
0.00311755838467471
0.00318623669209039
0.0032495335078855
0.00330773961438294
0.0033610944674133
0.00340973567598389
0.00345375888707269
0.00349321812588252
0.00352815890633324
0.00355863392550706
0.00358473322273928
0.00360661692301615
0.00362455806051088
0.00363900044287487
0.00365061461250267
0.00366038427761278
0.00366962477882833
0.00368003126293846
0.00369324354605831
0.00371024070948953
0.00372809516240933
0.00373540296375816
0.00370819519461643
0.00365536365821352
0.00364793441233922
0.00366190470328857
0.00368437745457781
0.00371005807497473
0.00373349486054148
0.00375208709231146
0.00376352981225374
0.00376662802575618
0.00376080900072398
0.00374759825527477
0.00372913492705112
0.00370369591666035
0.0036681668825675
0.00361949393658281
0.00355558421915342
0.00347792301449395
0.00338631970171611
0.00327961006237305
0.00315519636460364
0.00301699153922995