/*--------------------------------*- C++ -*----------------------------------*\
  =========                 |
  \\      /  F ield         | OpenFOAM: The Open Source CFD Toolbox
   \\    /   O peration     | Website:  https://openfoam.org
    \\  /    A nd           | Version:  7
     \\/     M anipulation  |
\*---------------------------------------------------------------------------*/
FoamFile
{
    version     2.0;
    format      ascii;
    class       volScalarField;
    location    "20000";
    object      omega;
}
// * * * * * * * * * * * * * * * * * * * * * * * * * * * * * * * * * * * * * //

dimensions      [0 0 -1 0 0 0 0];

internalField   nonuniform List<scalar> 
15600
(
23352.6506715394
23352.6506715394
23320.2770723333
23186.5210687517
22877.049072044
22418.8757757205
21839.2362944188
21123.5629087349
20096.8223191857
18787.5099046295
17307.1266735765
15762.9882284698
14246.5940308675
12811.0892629423
11483.832586997
10277.1564318024
9195.77379818064
8265.36074041172
7481.94409013473
6815.94506436612
6244.41878805433
5749.76322322155
5318.29340184743
4939.24194862807
4604.04665889711
4304.33407631607
4027.43676557957
3769.58455876687
3530.36169192113
3309.22935863346
3105.60930011362
2918.94904943655
2748.78540541335
2594.84605773571
2458.65173540211
2341.10579022337
2240.40557350533
2154.95135363238
2083.46324276183
2024.93750746591
1978.60379578568
1943.9000510257
1920.44794743614
1908.04152025943
1906.04132263754
1906.33883034088
1906.33883034083
1906.33883034075
1906.33883034081
1906.33883034083
1906.33883034084
1906.33883034089
1906.33883034091
1906.33883034091
1906.33883034096
1906.33883034079
1906.33883034079
1906.33883034096
1906.3388303407
1906.33883034089
1906.3388303408
1906.33883034079
1906.33883034097
1906.33883034079
1906.33883034064
1906.3388303408
1906.33883034084
1906.33883034076
1906.33883034089
1906.33883034078
1906.33883034087
1906.33883034072
1906.33883034089
1906.33883034083
1906.33883034082
1906.03718437032
1908.08667487747
1920.56292839102
1944.08572413792
1978.86202809035
2025.27128729098
2083.87697847029
2155.45062910496
2240.99784395364
2341.80011425307
2459.45978690193
2595.77617119165
2749.82164011393
2920.0922201103
3106.86167924294
3310.59464401424
3531.84396619106
3771.18804016839
4029.16571098841
4306.19064966331
4606.09271449405
4941.54721522356
5320.90728434846
5752.74750155015
6247.85153485954
6819.92606562496
7486.60200239135
8270.86528347539
9202.31259692724
10284.5771323271
11492.0773773937
12820.1227261317
14256.3011247007
15773.1388046633
17317.2479815318
18796.9445293948
20104.843408137
21129.4517100035
21843.6097719842
22422.4678567633
22879.652315019
23188.0671581264
23320.7236733113
23352.6506716853
23352.6506715262
3943.06230666344
3942.73303583494
3937.80235649183
3916.88651226092
3865.11974768585
3787.70117969416
3688.45836596416
3565.80984813195
3391.36889361107
3170.37809625829
2920.8631889989
2660.60805943058
2405.00935860275
2163.03117162286
1939.2512633763
1735.74921805583
1553.27278879121
1396.14939951947
1263.78683464373
1151.26373524229
1054.70606639276
971.143506081942
898.26480088061
834.252385879092
777.658451921742
727.077526928607
680.384931975149
636.918768725366
596.594209844979
559.317076995921
524.987441483779
493.51104367976
464.811895711526
438.85680378537
415.898115359425
396.070039854292
379.079155794885
364.657268843877
352.589577028066
342.708710648031
334.890379104436
329.057184692662
325.150090993202
323.252002695379
323.556525885515
323.540601558452
323.371280959232
323.275866198202
323.217150010278
323.170381403164
323.132366196999
323.096489432625
323.06136520295
323.024932881714
322.986668724876
322.945957130339
322.902747338781
322.857120940016
322.809442639382
322.760100445815
322.70963354501
322.658666106608
322.607923532357
322.558216434122
322.51040670015
322.465436510382
322.4241531827
322.387492941963
322.355789794686
322.329561621576
322.306655608634
322.285041240337
322.249578758172
322.189348278278
322.009461320109
321.71396369268
322.375544251194
324.648948736519
328.652516662659
334.512726171263
342.306710533604
352.142581195909
364.152111575402
378.510135160815
395.4328907945
415.195987144326
438.092850537936
463.942552779771
492.500323142335
523.835679047092
558.039582712214
595.218937207077
635.478534908319
678.925525250029
725.65053903575
776.355315796943
833.124740526097
897.342660510095
970.446260423665
1054.25417795185
1151.07878010195
1263.89273115711
1396.55879927324
1553.97568925321
1736.77148264879
1940.84609891464
2165.32339232552
2408.12381389518
2664.56030687374
2925.68392633261
3176.07160854362
3397.81169502428
3572.39181232413
3694.88534909429
3792.62937009662
3868.80793430703
3919.51329498504
3941.03291797135
3944.40118310091
3943.32559287911
1302.55315105582
1302.19611966165
1301.73862048705
1297.23245689819
1280.96810721055
1255.13602935448
1220.40916858706
1177.2885059165
1117.80210056677
1044.35689914938
962.106507861391
876.427482876502
792.354450556299
712.788834856874
639.186391184958
572.217747309633
512.132074410909
460.370774162716
416.743856504312
379.654356559346
347.831659060013
320.301312929579
296.304424751733
275.243616551623
256.635375948496
240.007594076552
224.673662677379
210.413275723106
197.189479821188
184.966546043693
173.708265841196
163.382536732707
153.969664410363
145.47805817921
137.988171580768
131.51614276163
125.96644932256
121.253508560121
117.309071322851
114.083328501902
111.54641887626
109.695580912128
108.553341387169
108.291714542001
109.054313868383
108.969275088977
108.684145610672
108.498707243115
108.361850409828
108.243888065791
108.138691422514
108.037674462058
107.93865553697
107.839020117705
107.73809799361
107.635272063605
107.530777237376
107.42532092556
107.319218613303
107.213251805988
107.108322589256
107.005425797614
106.905649754494
106.810137227236
106.720025305314
106.636436810136
106.560241372339
106.492164560109
106.431925180176
106.378825051231
106.328184845279
106.273909308366
106.191694456781
106.048865555919
105.745948164001
105.412731207416
105.909557527506
106.795484730606
108.106156870564
109.977898730419
112.448969372008
115.570551122316
119.389178684148
123.968154257605
129.379979785212
135.720729022847
143.082676681535
151.391056667267
160.573336124353
170.673401294574
181.736454949098
193.813209358709
206.949655551581
221.199051895691
236.611833285526
253.453889530869
272.358852073994
293.768956276458
318.15048410692
346.099190816793
378.373776233043
415.947096150337
460.06942380968
512.297984596505
572.944617982296
640.887708396
715.747639536625
796.838879924378
882.586814149085
970.117316104172
1054.4137269515
1129.73707609643
1190.2662036944
1233.55483051195
1265.95481015123
1289.16685245295
1303.26541311184
1307.91627348991
1305.52349465629
1303.17335401146
605.293543566246
604.71029386727
605.515813948281
605.841401951935
599.289305265728
586.598031007024
567.533950017355
543.868017320019
513.893199059905
479.170709833271
441.191708982493
401.83020808199
363.331852212498
326.950049381168
293.296011212058
262.653530718989
235.146887341189
211.447342065602
191.457535264991
174.460268889349
159.881556577065
147.279805407465
136.3109548513
126.702297600504
118.224450462038
110.650845762371
103.680031593936
97.2121818226634
91.2217016665371
85.6865630954309
80.5864837208467
75.9064890183537
71.6447985204507
67.8210162878469
64.463604814619
61.5537209754682
59.0496242268898
56.9168087800877
55.1296793445425
53.6749896347674
52.554696679082
51.7941840272503
51.4524648575147
51.666714984639
52.3468739474383
51.991609111033
51.5390362638912
51.2241044252331
50.9763716484109
50.7626690983768
50.574191355416
50.3995698579802
50.2355786416937
50.0784032219237
49.9267944379869
49.7797159223922
49.6375913971427
49.499740518721
49.3662915014783
49.2376632841964
49.1144250779736
48.9972343262633
48.8868294633004
48.7839770609889
48.6894052467915
48.6037648591238
48.5273838835368
48.4602846214744
48.4013293271623
48.3484820436363
48.2953808337759
48.2329603755053
48.1337127454498
47.9622459554812
47.6638232738651
47.4376225695976
47.9041425769274
48.3909354357803
48.9739323053894
49.7782891047853
50.8279918288489
52.1582326194755
53.7919015181449
55.7613481019421
58.099947067696
60.8538176700549
64.0602433649568
67.6768702859306
71.6785890041393
76.0996899985796
80.9715788751007
86.3287164963737
92.2021370873564
98.6323226031381
105.663619525017
113.448609230034
122.242155394429
132.241221626396
143.659515535198
156.771262704557
171.924822850824
189.562138695891
210.236513246077
234.604519314726
262.892223689352
294.824369371626
330.195244510309
368.698551607399
409.591949372581
451.633258419145
492.596891900033
530.031008352367
561.62611664011
585.768257670798
602.538227635239
612.29240600652
616.268466067489
615.484573842069
610.355419945991
606.547243131041
345.060539056018
343.933838849907
344.825866476334
347.187563907225
344.929568880079
337.292574207337
323.044187513452
304.919162600474
285.015617896716
264.582985544931
243.311876445699
221.520858010312
200.341777965855
180.377158155957
161.910576640067
145.075788413989
129.955638784444
116.930199444331
105.93290445048
96.5801654900741
88.5646941097522
81.6482513325286
75.6447487312629
70.4036653489631
65.7898759183476
61.6695799776102
57.8882150700144
54.3907139665321
51.1538663367448
48.1596003250209
45.3936169012847
42.8490810635683
40.5330166055066
38.4658525016506
36.650495436913
35.057683318562
33.6717106727379
32.4813027181606
31.4814175659454
30.676385645263
30.0821083966141
29.7320515929635
29.6788114321467
29.9656655363255
30.3488855875061
29.7488292573656
29.2353966013052
28.8781622416256
28.6054950958946
28.3790725536676
28.1884386170963
28.0194399560663
27.8679113636931
27.7287289542986
27.5999583547609
27.4800164303223
27.3676978524165
27.2615908573378
27.1615034219997
27.0672435858075
26.9788515166129
26.8964799285126
26.8203962800427
26.7509318921243
26.6884296275447
26.6331987591023
26.5853144669777
26.544575171259
26.5097975919983
26.4788069071237
26.4457029336709
26.4015550889728
26.3231401274389
26.1844714332908
25.9689342537077
25.8630949625888
26.2489588926679
26.556682503749
26.8852594480422
27.3215343858687
27.8780462755555
28.5785378887167
29.4347389474309
30.4647298322796
31.685653734856
33.1220879594714
34.790205971982
36.6640115390725
38.7337871928094
41.0226025304005
43.5506485232449
46.3401164395496
49.4107356799926
52.793989250515
56.528292282645
60.7178360270671
65.4885506559304
70.9515621746967
77.2325591601214
84.491435541722
92.9289266937415
102.793618724059
114.383437097716
128.010022135379
143.829831633997
161.898465168131
182.122551726979
204.362464387682
228.191694484523
252.995237528843
277.611824806891
300.903682691165
322.070689364204
340.469153388095
353.653035617013
360.351952388796
361.543841059702
358.980658214173
352.507741791128
347.253431414939
226.328113610077
224.398060204431
224.692563210183
227.953647716523
228.515378205846
224.147675383608
211.920879807961
194.692968083611
178.103401230093
163.861889094262
150.320619654361
136.776024976531
123.75163645985
111.519039476434
100.201727083947
89.862949065387
80.5704513202893
72.5683231920669
65.8028156389252
60.0481070549667
55.1233575309273
50.8862324345361
47.2242554131063
44.0424029974997
41.2478880515214
38.7510397062005
36.4658870255573
34.3559640532729
32.3978939021854
30.575733816851
28.879748502916
27.3098446672136
25.8786606000398
24.603645014812
23.474728612257
22.4656940366822
21.5787680928237
20.8152522876923
20.1801866009855
19.6838350670612
19.3429471699518
19.1829954039235
19.2293818137654
19.4548634104819
19.5983559125333
18.9821461373512
18.5766426604646
18.2960580172114
18.0957831172437
17.9356627635115
17.8080498370229
17.6990763278501
17.6053663468684
17.5220094154503
17.4473409788938
17.3793658638822
17.3164280383926
17.2576934982984
17.2028867816332
17.1517134812375
17.1041063775734
17.0601032912313
17.0198571988051
16.983593359435
16.951571682943
16.9240425187956
16.9010942647505
16.8825766128187
16.8675632504256
16.8541890284594
16.8376853232007
16.8105767380585
16.7559020742695
16.6577588697161
16.5192645466932
16.4857667248182
16.7764119517203
16.9874112204804
17.2098101106319
17.495853242909
17.851100420741
18.2910303556404
18.821757781741
19.4539459183131
20.197118268871
21.0651670914167
22.0652012609337
23.1804254289838
24.406053299856
25.7559789194633
27.2417516639387
28.8757486360002
30.66751672966
32.6387506561447
34.8170612407204
37.2724797107769
40.074964506894
43.2929785921399
47.0080906749831
51.3244924372954
56.3732668453916
62.3147958267638
69.3364707348903
77.6033551363544
87.2122887906087
98.3395567859143
110.975115015976
125.086343410077
140.410390588925
156.637929297967
173.103681050885
189.323119822007
205.276154302003
221.476749642918
234.735565236392
242.395991433042
244.292597913916
242.296468703044
235.855150381151
229.57958859202
163.987818387565
161.207399514273
160.571618846216
164.037256672239
166.796151465871
165.659786797054
155.430396795077
137.654500700932
121.269089086212
109.667709606771
100.126617476325
91.0151486478976
82.4062840443413
74.3636078189766
66.9164566443647
60.0904871529041
53.9482826316976
48.660755692527
44.1808751163755
40.369626544706
37.1148563978519
34.3257759782741
31.9283459409241
29.8553842517028
28.0358489608694
26.4052266550631
24.9138734543645
23.5335810820545
22.2418017955032
21.0264654112991
19.8839317481452
18.8209577935252
17.8535228093188
16.9948444744722
16.2299977901139
15.5408741922109
14.9390079096296
14.4291770702955
14.0179828044058
13.7137867970381
13.5277451419988
13.4732071655236
13.5531693531644
13.7131610476698
13.7411079676994
13.247826054097
12.9872810859655
12.8016868543043
12.680257103839
12.5853732036458
12.5143319410374
12.4554869902435
12.4070179756248
12.3650328829708
12.3284587502843
12.2953082370093
12.2646796691409
12.236155285596
12.2095379834056
12.1846472598049
12.1614785020826
12.1401051286866
12.1206911988202
12.1034562626118
12.0886462781581
12.0764905052064
12.0670813478953
12.0602819252424
12.0553153457945
12.0505496496241
12.0421273261721
12.0240298705716
11.9843731047233
11.9144876958599
11.8259186405465
11.827539299524
12.0457204074899
12.2007444480781
12.3673635332766
12.5770007445822
12.8320362528117
13.1429433344172
13.5131772053363
13.9495530660811
14.4578901659752
15.0466269993575
15.7188156261186
16.4629068002946
17.2760475635031
18.1667167553332
19.1414966803298
20.2068833969962
21.3663428307601
22.6345137522376
24.0297756555028
25.5988428715931
27.3824783301855
29.4225992908157
31.7714556583682
34.4964970771032
37.6835523151171
41.4377570171672
45.8825227823841
51.1126256502829
57.1788168111603
64.2683366493339
72.4140686522369
81.648386412024
91.8136356173161
102.775940559987
114.132916670521
125.752076924816
137.941416209846
152.240347378374
165.867685860404
175.54208277482
179.715002620025
179.822871752383
174.653927163844
168.109124542548
126.996048155641
123.570680107062
121.996205734322
125.155452119958
129.468197371727
131.701341714155
124.463462732905
106.383708426157
88.6693816707234
77.7410934977255
70.3226756081752
63.8009538560085
57.8168709778349
52.2743963519021
47.1356366428165
42.4024310979686
38.1355017897152
34.4618337573829
31.3391473400052
28.6817619826149
26.4182549805062
24.4878651628662
22.8379671322139
21.4164159065579
20.1654041003847
19.037527945067
18.0044222072023
17.0427417549671
16.1333464924188
15.2699035016207
14.4549284169537
13.6995395139859
13.0190671715172
12.4211730460486
11.8898109645156
11.413680102489
11.005873189692
10.6699047344394
10.4107962582694
10.233627391707
10.1444365598075
10.1478849413949
10.2351864465626
10.3495017763101
10.3348852727755
9.97534117747806
9.81943498819784
9.70081167095007
9.63139618139786
9.57767848979162
9.54072341696041
9.51110928186016
9.48818182880273
9.46898776052587
9.4527418063587
9.43795598101781
9.42427771728552
9.41145789021001
9.39939011160552
9.38799611251524
9.3773268859513
9.36748878105881
9.35865461560867
9.35103401138639
9.34484832843462
9.34028856108872
9.33741583879759
9.33606522872977
9.33552541111844
9.33432519171804
9.32928308096237
9.3155964388106
9.28501357149919
9.23350319031767
9.17556114615559
9.1931090104229
9.36099979123997
9.48132104119464
9.61338175357905
9.77712660922544
9.97359102578596
10.2102289434574
10.4891914682848
10.8151639554666
11.1920135079002
11.6252099342134
12.115894374634
12.6557057568825
13.2427779977182
13.8826023179041
14.5791518529001
15.3356550741748
16.1528265063951
17.0409899171852
18.0126541051379
19.1002290748644
20.3288422494118
21.7246190479464
23.3213471441839
25.1628777915557
27.3053456875061
29.8171928028292
32.7793555251346
36.2468750008722
40.2373846294667
44.9042461676224
50.28580179359
56.4351015452023
63.2523063692933
70.6988353534162
78.5135237625885
86.7457829715989
95.7234696442623
107.55559202477
120.447086903707
131.417406142697
137.903210092121
140.658157562103
137.547159582051
131.542383565428
102.470416488849
98.7592205408265
96.4677429476554
98.9884256390319
104.060674611997
109.332471684841
106.094846262469
88.8835985546003
69.3733952718983
57.8478543880737
51.4249536607442
46.4644469093111
42.1284341189309
38.1759880893425
34.5106322107209
31.1137143380756
28.0434358477909
25.397541520421
23.1381204905368
21.2148485930302
19.5817682180613
18.1965185114988
17.0190758097983
16.0064819112978
15.1109950913464
14.2984420974594
13.5536191575842
12.8570015712482
12.194110493601
11.5635142659646
10.9710427180032
10.4280651636421
9.94614942793709
9.52781639463878
9.1581106637671
8.83046031866626
8.55638721762914
8.33782846977904
8.17845103117118
8.08114726760436
8.04875137911726
8.08091291048982
8.16406226434848
8.24793168410218
8.22116788869895
7.96481000531177
7.87211118110468
7.79497769158391
7.75589368994124
7.72572140365695
7.70756334646742
7.69377270072237
7.68434484735454
7.67699812024273
7.67110120223071
7.66570555851529
7.66067726868615
7.65585484624944
7.65119357716797
7.64667739369877
7.64238583385039
7.63843828185704
7.6350019745285
7.63226615222749
7.63041886850784
7.62960626750655
7.62984753656333
7.63094174727889
7.63221427501947
7.63232763962037
7.62862681833525
7.61729417709064
7.5926340190405
7.55349467877461
7.51480930698787
7.53904204693231
7.67161155575029
7.76885001812889
7.87731758694206
8.01052087342188
8.1689150191514
8.35802221002804
8.57930281416782
8.83615639842506
9.13131943998444
9.46851368587394
9.84793428518644
10.2632958161031
10.7133180323411
11.2017725983521
11.7312164320163
12.3029601402928
12.9167941225726
13.5802974920219
14.3024479985555
15.1068841503148
16.0101319047982
17.0291585407962
18.186661068147
19.512139927006
21.0433961201545
22.8259597907765
24.9137544042257
27.3390650120224
30.0996955944414
33.3103770925579
37.0000862177525
41.2183422304273
45.8901063616574
51.0186502172509
56.4115195017271
62.1967291513217
68.5790201626259
77.7211942628069
88.7794730307557
99.6913414124164
107.564624272205
112.611115922128
111.767245754898
106.917511605486
84.6901813041792
81.0631860554358
78.37545360309
80.1375315846282
85.216198382233
92.6760996223444
93.922977753124
79.0227446169065
58.0856470640792
45.1523816291972
38.9450449659863
34.8910405809113
31.6032395316892
28.6949029146996
26.0111667939823
23.5099202421651
21.2430398988817
19.2863307820486
17.6062595471996
16.1767245233915
14.967970165032
13.9492390099678
13.0884354431125
12.3492443903228
11.6926458054313
11.094711669433
10.5478656396016
10.035510454064
9.5472117554218
9.08413976861161
8.65261051868251
8.26200837230694
7.91994101329682
7.62585575555037
7.36728308450286
7.14092664915334
6.95628457365186
6.81446329405906
6.71833078463935
6.66948525927426
6.66881980734591
6.71326002783417
6.78801174341286
6.85127917042181
6.82381689527218
6.64034891449429
6.58440160655756
6.53302299975878
6.51147879527694
6.49489925728396
6.48718029535422
6.48207400198593
6.47988127786114
6.47877028372987
6.47828248229466
6.4778198410241
6.47733313229704
6.4767143409649
6.47595620712352
6.47507744012289
6.47416872975198
6.47335008448097
6.47277552693023
6.47261008503688
6.47300766779617
6.47407220215182
6.47578371915552
6.47791178161862
6.47981317386218
6.48027450113705
6.47706852488408
6.46717223891133
6.44670243465552
6.41626653579316
6.3901111580097
6.4164960572424
6.52341960961799
6.60433441540473
6.69566277096007
6.80713523246133
6.93894500830074
7.0952994498076
7.27726107075327
7.48739106114107
7.7277143101649
8.00085008752787
8.30651260723955
8.63984527073793
8.99994109052363
9.38951377048401
9.81027570253763
10.2623775839795
10.7454994010358
11.2653490560311
11.8287211638297
12.4536195384613
13.1515956727804
13.9341836634829
14.817329221566
15.8217610074244
16.9740158782397
18.3055552905354
19.8535320490853
21.6374639056237
23.6451369773133
25.9607990059289
28.6033195076185
31.6128351474879
34.9250361013613
38.558615138795
42.3538402324383
46.4630800784378
50.953664509368
57.7268735909438
66.5262253628744
76.2904115271131
84.3852182291266
90.8508529192896
91.9998635705456
88.6048199585724
70.9624676074759
67.7037222967306
64.9296825609648
65.992271114764
70.5610973061372
79.0998973426102
84.6759687040925
73.3234834840298
51.8553859578376
37.1255011283852
30.5614878472209
26.9550913417189
24.3095601527779
22.0848752598192
20.0668269611573
18.1841838493174
16.4764394466338
15.0004792196839
13.7267583386822
12.6452600416653
11.7362219335215
10.9762315261325
10.3385521026394
9.79227951773199
9.30592624487045
8.86289018276883
8.45936377876462
8.08100411370511
7.72036665989768
7.37957972838583
7.06426173312083
6.78163034935482
6.5365295056035
6.32719901786008
6.14399318537483
5.98577220218596
5.86025878511036
5.76821163967734
5.71194817536014
5.6922285928474
5.70871200014741
5.75692081775903
5.82251596165304
5.87165248464104
5.84761263956284
5.71498460553397
5.68070036429134
5.64600549476649
5.63490311025091
5.62652352172571
5.62482125206608
5.6246810289096
5.62651467592604
5.62880682245584
5.63127288670692
5.63351379255454
5.6355152998642
5.63720545356492
5.6385991522484
5.63973405407744
5.64070287319929
5.64162020105367
5.64262426432992
5.64385618199706
5.64543868213384
5.64743947337612
5.64980651980107
5.65228969489726
5.65427902789585
5.65467954197746
5.65162006367814
5.64271881981112
5.62539105980011
5.60129200504251
5.58351361426132
5.60976988794476
5.69745097860471
5.76622808001237
5.844548302179
5.9398098852802
6.05208204820856
6.18463080753512
6.33826973080396
6.51497878877705
6.71630368868194
6.94412968280431
7.19792906571028
7.47387129060968
7.77129565154544
8.09222211812519
8.43779024347646
8.80748747435894
9.20115792007027
9.62317832224385
10.078922325581
10.5825728768992
11.142639807703
11.7673039609553
12.4682421171444
13.2606336327213
14.1638908728778
15.2006525588742
16.397509534508
17.7667738654049
19.29201481637
21.0356271112301
23.009177755135
25.2443863412372
27.6834390986524
30.3501059953442
33.1031742602141
36.0960923051675
39.2963177732446
44.2559235920733
50.9641627912839
59.0976498028495
66.5298829542593
73.4543169253367
76.0376174408435
74.0896527700393
59.9363405703249
57.2098763058996
54.5868716389753
55.105153314447
58.937672755472
67.4882594253023
76.7305994331209
69.747267277818
48.8252998721268
32.2829771307846
24.9560938479648
21.4644873116017
19.1740444590234
17.3794582152331
15.8094155249403
14.3590995091118
13.0490298547141
11.9177497633648
10.9385401020462
10.1108468121141
9.42057726951597
8.8489656385691
8.37321213072051
7.96705882397494
7.60525976007296
7.27610395960141
6.97735545241678
6.69666482072999
6.42879851729281
6.17612986990142
5.9434291562824
5.73626274565999
5.55783301505013
5.40620079111239
5.27421951285617
5.16205109865887
5.07596147737917
5.016555238925
4.98568270005238
4.98350864941161
5.00888906912586
5.05672570926993
5.1138792165413
5.15327240385661
5.13395271857781
5.03722451196902
5.01616713007246
4.99284478225655
4.98822789648676
4.98507465018478
4.98701208727958
4.98986146969042
4.99403920579119
4.99828482494394
5.00244734176627
5.00624388671323
5.00967573637717
5.01269683436399
5.01533511110965
5.01763827549198
5.01969661008099
5.02161676420081
5.02352111818421
5.02552893971972
5.02773594356618
5.03018013187879
5.03278497540546
5.03528984402627
5.03712095566244
5.0372959484331
5.03424367062621
5.02610009105205
5.01121728034321
4.99184257735216
4.97976093676323
5.00473344220494
5.07756489881542
5.13694412151087
5.20506182346743
5.2877940487988
5.3851485816295
5.49969082835259
5.63206543440852
5.78382972653067
5.9561887635173
6.15051828108718
6.36617765605731
6.60009694519581
6.85178084590022
7.12276893313933
7.41375797554214
7.72392555745664
8.05331050199248
8.40531980506449
8.78435194542655
9.20187023395157
9.66442461872614
10.1780411422611
10.7515807435543
11.3965630250529
12.1277130420908
12.9619373824069
13.9189618137041
15.0069243299193
16.2082629364548
17.569927006999
19.098757484848
20.8201166663631
22.6815937037791
24.7082297599249
26.7722845545538
29.0195993143285
31.3584209728636
35.0240381793782
40.0606013659643
46.5692961635261
52.9077058873518
59.5417402429264
62.9303560313196
62.204718037991
50.8869486132511
48.7454152696145
46.4199405141634
46.5684442039992
49.6629978569812
57.4106344497869
69.3077406948835
67.0792654461274
47.7563899934736
29.6568590098668
21.3002919156036
17.682723858645
15.5470467683683
14.0026243542703
12.7250518436227
11.5752588178572
10.5498554449446
9.66880156463518
8.90649601039
8.26659739207487
7.7378639686023
7.30456453717761
6.94704651117824
6.64308071978702
6.37241506639749
6.12650536507183
5.90367765231677
5.69346395486532
5.49228349992563
5.30249919060503
5.12817068167892
4.97370577890654
4.84136917728745
4.72946297070558
4.6328130892809
4.55228982204919
4.4929775481285
4.45538530647551
4.44093853040637
4.44936450727232
4.47900842407615
4.52462586013491
4.5745528578969
4.60724187646622
4.5928275688041
4.52196731522138
4.50937779527119
4.49419159950002
4.49380951272923
4.4941889549708
4.49845717601868
4.50321768674251
4.50883694846318
4.51427903706013
4.51947695930579
4.52422270185179
4.52852509605235
4.53235746027556
4.535755357966
4.53877151756995
4.54149178245907
4.54401411456577
4.54644610986998
4.54888779891784
4.5514121235532
4.55403335912312
4.55665725758646
4.55902018815517
4.56058676377918
4.56048050804097
4.55738453265708
4.54985273076964
4.53691477305364
4.52111576485032
4.51293456844891
4.53605577015315
4.59715601046711
4.64901718846984
4.70892460332612
4.78170180261395
4.86732456329868
4.96782121437613
5.08371254550249
5.2162368120642
5.36634608571383
5.53505084992152
5.72166934676957
5.9237091868416
6.14078679828818
6.37409056413433
6.62394929003093
6.88947502881685
7.17084271955166
7.47074318054585
7.79287268081087
8.14667945148342
8.53739020412577
8.96959531836641
9.4502241582554
9.9882843536524
10.5952937505969
11.2842920571641
12.0703825135771
12.9592010014723
13.9336009598494
15.0294670661037
16.2506598404762
17.6178368271027
19.0835823972218
20.6726549825801
22.2688058475307
24.007336813587
25.766690747906
28.5298966330826
32.3220138304707
37.446588552266
42.6232813784137
48.5363292856951
52.1924417360132
52.3646694228853
43.390440920911
41.804490838621
39.8410646159603
39.7699628700221
42.243681115483
48.7188178468785
62.0740409875178
64.5452816814577
47.8029333139637
28.5826569118359
19.0363968030809
15.1144950081916
12.9969509423806
11.5789467444468
10.4828406495479
9.53780903753805
8.71457839601438
8.01472688621257
7.41206670035492
6.9107623607183
6.50076751873446
6.16842718952704
5.89669836380167
5.66676247272089
5.46224241678928
5.27661651346753
5.10836621937335
4.94874250347073
4.7953702109104
4.65050145606788
4.51762968410868
4.40033926645335
4.30034708991024
4.21631418771303
4.14454204892942
4.08623031633806
4.04550664078299
4.02279643470021
4.01914297672677
4.03395591178725
4.06527967233965
4.1080099040959
4.15199539284121
4.18011658383584
4.17036083456636
4.11856001594958
4.11170911699038
4.10259931585272
4.10514604401911
4.10806188223945
4.11392659171196
4.11999892948798
4.12657120468579
4.13280868293769
4.13869053949012
4.14406132006125
4.14893414934232
4.15329725545692
4.15719064484297
4.16066920215526
4.16381359524638
4.1667132314476
4.16946240871122
4.17214457007842
4.17481377998085
4.177465749767
4.17999418417096
4.1821382214192
4.1834019579111
4.18300730406127
4.17985332382492
4.17283076802946
4.16145812042174
4.14838771647
4.14286591311572
4.16388510660322
4.21553422898381
4.26121969612057
4.31438151985176
4.37907188264612
4.45524857573155
4.54451876254085
4.64730582836307
4.76459979382448
4.8971580328059
5.0457224822163
5.20961063179711
5.38677677799222
5.57691231794777
5.78093091676616
5.99886258504735
6.22989529806497
6.47427219283918
6.73414858466741
7.01269342442891
7.31781276405503
7.65380238542615
8.02426577516938
8.43476113011814
8.89250932982068
9.40675475292951
9.98783516405742
10.6476360361131
11.3902399398704
12.1996420269324
13.1036289629433
14.1041671089979
15.2183277308907
16.4033458025593
17.6829244540858
18.9512243542137
20.3322514472174
21.6929838582168
23.8241109864812
26.714855229136
30.7459079119495
34.8871995144523
39.9254558656023
43.4776335554111
44.2235567484071
37.1666872243653
36.0596737411677
34.4618437524061
34.282980848297
36.2812884178953
41.3491263220123
54.9856532341155
61.6764826042752
48.3317851953535
28.5956440910451
17.7859769987926
13.4163545657285
11.2199703020592
9.84507715372037
8.85253665224609
8.04240954876703
7.36007894897183
6.78977245559492
6.30337116279184
5.90325301395911
5.57964047681468
5.32030636363006
5.11033609838543
4.93369065215508
4.77691929027772
4.63477067736433
4.50572415085308
4.38251929691578
4.2636246695948
4.15113337244145
4.04807710101321
3.95743185827444
3.88057898482953
3.81653229260181
3.76267036494119
3.72029453871079
3.69275725616036
3.68040088397138
3.68393594263101
3.70255084800617
3.73414232207337
3.77391181755087
3.81313927919411
3.83821213808711
3.83272120314867
3.79528323307606
3.79257965786071
3.7881831081055
3.7928911762896
3.79774190651674
3.80478882918093
3.81183808445149
3.81910260353727
3.82592510690254
3.83230670371076