/*--------------------------------*- C++ -*----------------------------------*\
  =========                 |
  \\      /  F ield         | OpenFOAM: The Open Source CFD Toolbox
   \\    /   O peration     | Website:  https://openfoam.org
    \\  /    A nd           | Version:  7
     \\/     M anipulation  |
\*---------------------------------------------------------------------------*/
FoamFile
{
    version     2.0;
    format      ascii;
    class       volScalarField;
    location    "20000";
    object      p;
}
// * * * * * * * * * * * * * * * * * * * * * * * * * * * * * * * * * * * * * //

dimensions      [0 2 -2 0 0 0 0];

internalField   nonuniform List<scalar> 
15600
(
-3.19202910419203e-09
0.00455962082300589
0.00238852748866961
-0.00693316500089326
0.00518460758942535
0.0238099494498997
0.0552448211542491
0.0815910478467143
0.0987253692976952
0.108397290972773
0.116506243744026
0.122456853583319
0.127204963540984
0.13077809568962
0.133790916581282
0.136353971487028
0.138676549785468
0.140752761316339
0.142731821900869
0.144601856486606
0.146403859544191
0.148131096424016
0.149796658516398
0.15140241675573
0.152961032242826
0.154508916272682
0.156035570189187
0.15754766820119
0.159058148472466
0.1605804465461
0.162126559614377
0.163702950922018
0.16531351725347
0.166934012698771
0.168555244038727
0.170213853743798
0.171913251202161
0.173658127356799
0.17544308531822
0.177257500681649
0.179086088724047
0.18088955423089
0.182671048878121
0.184417823949734
0.185445754888814
0.187483094439508
0.190072562791208
0.193164001088235
0.196618299345197
0.200395586628218
0.204434853066468
0.208705687311297
0.213175267037874
0.217820862799982
0.222620654253556
0.227556646485692
0.23261184409421
0.237770789892616
0.243018621721345
0.248341220625183
0.253724944994104
0.259156703599052
0.264623967366424
0.270114918547902
0.275618688313576
0.281125564587991
0.286627598266001
0.292118665245985
0.29759599238967
0.303059131721503
0.308514153004777
0.313967667207988
0.319446124551656
0.324928504893126
0.33052745374677
0.336366126170226
0.341311674197596
0.346115442181904
0.350885840679167
0.355725732150782
0.360679812454154
0.365772532351161
0.371022134002934
0.376430490175203
0.381998883637008
0.387712292598594
0.393548721142609
0.399499885860077
0.405519855129844
0.411511937106366
0.417353843511502
0.422887199820315
0.42795306403261
0.432354636260347
0.435935483058914
0.438497891242946
0.440029374118771
0.440413657777819
0.439555775827436
0.437310243541495
0.433485289252626
0.427815745075852
0.419915543041249
0.409193521693477
0.39451851028344
0.374060111449688
0.347651349836108
0.314062301897814
0.272943000771764
0.22310369128801
0.16524895224555
0.0996786450982133
0.0329047249983923
-0.0284874269988359
-0.0573057433243514
-0.0682728270739712
-0.0598559188442688
-0.0502256912873516
-0.0230990624703935
-0.0084176762303047
-8.01936310623122e-06
0.00454784093036175
0.00239233123128134
-0.00690858988680146
0.00518177071472323
0.0237463260381461
0.055098728099525
0.0814255089963923
0.0985897365306158
0.10829016797688
0.116412149676183
0.122381690905129
0.127146581658637
0.13073429314443
0.13375656848282
0.136326733639143
0.138654948082312
0.140735613604662
0.14271752487648
0.144590035534148
0.146394133455924
0.148123451001294
0.149791003150687
0.151398669867613
0.152958577456723
0.154507272272967
0.156034829584218
0.157547681010399
0.159058591983137
0.160580955753319
0.162126841339298
0.163702839867136
0.165313317801869
0.166934369507249
0.168556043790757
0.170214565224902
0.171913733352778
0.173658403921805
0.175443342768033
0.177258013593031
0.179087250636036
0.18089154422027
0.182674765538465
0.184424167642823
0.185459774971354
0.187500100857885
0.190088432160671
0.193178741568467
0.196631983415564
0.200408226155507
0.204446409642328
0.208716112567867
0.21318450518474
0.217828859340678
0.222627357657833
0.227562009959162
0.232615826350381
0.237773357278928
0.243019750010852
0.248340894688013
0.253723159321254
0.259153462773506
0.264619286350215
0.270108822579583
0.275611212450395
0.281116752460493
0.286617500111393
0.292107333926408
0.297583478501894
0.303045472245568
0.308499352594412
0.3139516735297
0.319428791156617
0.324909408879124
0.330504225183936
0.336337299202608
0.341294279709871
0.346109551796724
0.350890368543523
0.355740742311327
0.360705633458279
0.365809609593231
0.37107081396995
0.376490943395445
0.382070999919874
0.387795542215817
0.393642492720874
0.399602326955075
0.405627319890339
0.411619752449507
0.417456593841082
0.422979219658025
0.428028548002603
0.432408472873828
0.435963334612864
0.438498245691459
0.440001817370631
0.440356689894115
0.439467552457252
0.437187805139743
0.433324388805637
0.427610072786563
0.4196552925191
0.40886132832862
0.394088743966776
0.373525800211487
0.34701609082768
0.313333221224743
0.272133887805492
0.222244457542958
0.164387874521335
0.0989023788000505
0.0323175369386553
-0.0287606620532226
-0.0573492180461999
-0.0682255464189909
-0.0597945357787496
-0.050173396334973
-0.0230777597432512
-0.0084181621621973
-1.50762817446106e-05
0.00453771988602749
0.00240198782733456
-0.00687366272605002
0.00519101600553101
0.0236934953840825
0.0549635997064769
0.0812693236070225
0.0984590932824374
0.108184795273788
0.116318834720172
0.12230668706402
0.127088173814254
0.130690343196554
0.133722084435196
0.136299315048357
0.138633189804672
0.140718330272773
0.142703141250181
0.144578146177979
0.146384372078141
0.148115801670465
0.149785389723683
0.151395016236167
0.152956262437487
0.15450576141928
0.156034142798764
0.157547614087439
0.159058752822151
0.160580886053878
0.162126132405867
0.163701193329846
0.165310896292168
0.166931719796012
0.168553033668425
0.170210610295788
0.17190859853833
0.173652051970444
0.175435937154496
0.177249858101492
0.179078835559417
0.18088316997974
0.182667680689805
0.184419180363423
0.185466838281403
0.187514127458797
0.190102400617276
0.193192131150244
0.196644571759877
0.200419945300477
0.204457127075954
0.208725744890148
0.213192961274179
0.217836067980215
0.222633251840367
0.227566533040064
0.232618930927857
0.237775011852382
0.243019933692413
0.24833959593935
0.253720377760388
0.259149209959951
0.264613585793635
0.270101709086787
0.27560273169582
0.281106957659119
0.286606451290819
0.292095086969842
0.29757008733055
0.303030950734098
0.308483694213664
0.313934702994491
0.319410281886373
0.32488913547147
0.330477581030385
0.336295393708828
0.341260821103392
0.346087606440585
0.35087922979297
0.355740689767346
0.360717143460217
0.365833235560628
0.37110700777786
0.376539929009279
0.382132705986021
0.387869398300135
0.393727992673628
0.399697567743165
0.40572838777347
0.411721691790317
0.417553768333017
0.423065787823329
0.428098661576554
0.432457043402145
0.435986186751409
0.438493962905178
0.439970006254868
0.440295712340227
0.43937543945073
0.437061437402444
0.433159350772302
0.427399880174769
0.419389960279774
0.408523737846194
0.393655456312365
0.372992399131466
0.346387964970385
0.312619331892325
0.271350832129524
0.221425607433204
0.163586360930935
0.0982074559395053
0.0318305124277734
-0.0289353533762309
-0.0573241325604781
-0.0681393693587021
-0.0597111281366061
-0.0501098021283532
-0.0230513762845842
-0.00841659189136698
-1.87214176811732e-05
0.00453293402329918
0.00242250042408675
-0.00682190047892697
0.00521342854595821
0.0236485331968403
0.054834722784201
0.0811219850879366
0.0983367816055048
0.108085070111536
0.116229627112845
0.12223472256629
0.127031967685804
0.130647909889296
0.133688647888943
0.136272572320711
0.138611866633234
0.140701332988126
0.142688972841859
0.144566424276325
0.146374751184937
0.148108273412918
0.149779883985761
0.151391450419004
0.152954029804814
0.154504241501519
0.156033228426417
0.157546980385377
0.159057879075722
0.160579155260482
0.162122939659409
0.163696016535839
0.165303606142851
0.166922643325161
0.168542019217045
0.170196983389164
0.171892008068227
0.173632370843804
0.175413306423505
0.177224639509206
0.179051693336966
0.180854794656727
0.1826395926429
0.184391814532587
0.185461248420645
0.187521382638409
0.190111793240257
0.193202147602111
0.196654384498265
0.200429195760834
0.204465486017252
0.208733021326742
0.213198988004182
0.217840727418809
0.222636441937437
0.227568177685141
0.232618985202985
0.237773454492859
0.243016750934181
0.24833478980788
0.253713968003271
0.25914123364989
0.264604096708933
0.270090775622646
0.275590435559673
0.281093386091086
0.286591695826959
0.29207921938542
0.29755316647449
0.303012938207973
0.308464517826527
0.313913904398853
0.31938726368238
0.324863703335966
0.330442229496202
0.336232048557243
0.341203165837905
0.346041039693949
0.35084363975378
0.355716671245301
0.360705288550662
0.365834150026599
0.37112116564042
0.376567520541918
0.382173606606954
0.387922913284156
0.393793622677596
0.399773196748773
0.405809762046013
0.41180363950954
0.417630601811547
0.423131760468181
0.428148287755936
0.432485692019387
0.435990305151691
0.438472722921299
0.439923177593329
0.440221585370038
0.439271931035112
0.436925257937726
0.432985909899335
0.427182558042851
0.419118777761334
0.408182462669693
0.393224515789799
0.372471818841357
0.345785649190875
0.311947290875377
0.270629761230832
0.220694119941484
0.162904165746234
0.097666682586782
0.0315248481932314
-0.0289342621694909
-0.0571781400541868
-0.0679848147754368
-0.0595932247074827
-0.0500293495538876
-0.0230200732419994
-0.00841136948437368
-1.8757372249717e-05
0.00453340871486214
0.00245834737838221
-0.0067412114249243
0.00525922327904638
0.0236148781582089
0.0547055080918124
0.0809734048321982
0.0982161743733988
0.107986475468927
0.116140604875276
0.122162706552128
0.12697556491505
0.130605190788997
0.133654796940194
0.136245281749674
0.138589954224453
0.140683780055515
0.142674293721062
0.144554256556858
0.146364757269251
0.148100459986596
0.149774188295834
0.151387784319376
0.152951774661048
0.154502617391696
0.156031956583847
0.1575455574813
0.159055579226334
0.160575109391479
0.162116240584008
0.163685804394451
0.165289353315338
0.166904458664173
0.168519777617438
0.170169871583956
0.171859543638822
0.173594354323919
0.175369922380772
0.177176422647767
0.178999715636554
0.180800563695543
0.182585052725733
0.1843385445295
0.185444138327234
0.187523316920455
0.190117691138735
0.193209756720118
0.196662054618484
0.200436194831617
0.204471239659566
0.208737211660934
0.21320136200345
0.217841117779469
0.222634716505111
0.227564271068024
0.232612871873442
0.237765117545365
0.243006196920635
0.248322059934014
0.253699132384871
0.259124390796104
0.264585372170851
0.27007031786992
0.275568412711183
0.281069971287629
0.286567062302054
0.292053496855498
0.297526445377991
0.30298512157951
0.308435413861295
0.313882620584878
0.319352514163515
0.324824668121425
0.330388621608804
0.336139921865983
0.341116741324536
0.345966370124662
0.350780444399544
0.355665522801107
0.360666565976826
0.365808261023282
0.371108365539278
0.376567748590431
0.382186480414183
0.387947438273344
0.393829002548335
0.39981670848187
0.405856539888403
0.411848176683293
0.417667151868462
0.42315478787385
0.428152817370731
0.432467777163898
0.435947512168105
0.438405505066872
0.439831832778603
0.440104436042157
0.439126806852221
0.436748601918111
0.432772759533124
0.426925818544668
0.418807911418957
0.407801108746216
0.392756341320725
0.371922436210857
0.345166696875837
0.311275141620983
0.269930993539019
0.220015520440828
0.162316508089224
0.0972713024427555
0.031415043317959
-0.0287163994175587
-0.0568626917871388
-0.0677215146831782
-0.0594137452566962
-0.0499145670159157
-0.0229787156117353
-0.00840161406650192
-1.44007748837023e-05
0.00453873630974624
0.00251322361123519
-0.00661949679583409
0.00534276223363743
0.0236041902641974
0.0545797793299272
0.080820923200661
0.098095341148227
0.107887949581527
0.116050931920513
0.122089983481817
0.1269184774584
0.130561823978725
0.133620221360181
0.136217136339859
0.138567164225923
0.140665417298129
0.142658875371743
0.144541443083384
0.146354224641334
0.148092240235162
0.149768238263784
0.151384020877252
0.152949562448617
0.154500959926725
0.156030356096278
0.157543284267765
0.159051638670952
0.16056830324637
0.162105276843176
0.163669409673806
0.165266557413359
0.166875218981962
0.16848410827944
0.170126880896552
0.171808714834937
0.173535546521455
0.175303526906918
0.177103339477803
0.178921685711096
0.180720297737446
0.182505220785123
0.184262803360028
0.18541954966495
0.187522709162986
0.190122391602923
0.193216809911921
0.196668868853174
0.200441650925202
0.204474525323062
0.208737901944884
0.213199141444466
0.217835795406299
0.222626172433508
0.227552470560445
0.232597798980961
0.237746783588888
0.242984664528873
0.248297438456571
0.253671573575738
0.2590940882334
0.264552559201038
0.270035261242923
0.275531406618538
0.281031314814518
0.286527048326947
0.292012346191575
0.297484302100283
0.302941836962971
0.308390648952995
0.313835015347435
0.319300007716525
0.324765458298987
0.330310833806678
0.336017814411726
0.341001928804023
0.345864155171059
0.3506899451841
0.355586797557555
0.360599454211936
0.365752705036276
0.371064175314999
0.376534412429489
0.382163176030449
0.387932705884998
0.393821470212653
0.399812801818737
0.405850700259988
0.41183458056159
0.417640080994364
0.42310908782883
0.428084192551186
0.432373311763993
0.435826433659586
0.438260129744891
0.439663367165775
0.43991142867682
0.438907119248719
0.436498446850977
0.432486783571541
0.426596359444591
0.418423677792168
0.407345100753724
0.392215229792637
0.371308388694191
0.344496358447397
0.310570387172391
0.269225511898933
0.219365796485992
0.161806662510906
0.0970149280924248
0.0315106006694268
-0.0282523642123398
-0.0563367800654122
-0.0673104044867252
-0.0591426970446783
-0.0497444051576692
-0.022918989083831
-0.00838493186106958
-3.27523436668109e-06
0.00454930655513003
0.00258992098936785
-0.00644670581410851
0.00547831951851092
0.0236315319606333
0.0544671848300455
0.0806661226187649
0.0979743110855153
0.107789721883036
0.115960871613135
0.122016798268279
0.126860942946853
0.13051800909932
0.133585058854538
0.136188185948672
0.138543491297908
0.140646215312417
0.142642677626602
0.144527943807366
0.146343128295469
0.148083620083767
0.149762089739189
0.15138028037833
0.152947580548751
0.154499475843795
0.156028611182541
0.157540284810135
0.159046078102875
0.16055861644036
0.162089772749292
0.163646431576718
0.165234780279632
0.166834603413946
0.168434966393946
0.170068392229538
0.171740495767997
0.173457666211539
0.175216714100081
0.177008962845473
0.178822217657062
0.18061965256451
0.182406794032
0.184172099549276
0.185391794881005
0.187521905400758
0.190127781024472
0.193224487596482
0.196675470180096
0.200445772987761
0.204475213662872
0.20873469359226
0.213191718895593
0.217823998452315
0.22260993030764
0.227531781729886
0.232572685440273
0.237717326175158
0.242951001034767
0.248259760115511
0.2536301230971
0.25904915919157
0.264504493238264
0.269984439605881
0.275478241496057
0.280976219661365
0.286470420673896
0.29195448258543
0.297425385073715
0.302881665199529
0.308328749005311
0.313769681870025
0.319228691762547
0.324685681824825
0.330210526579788
0.33587136033437
0.340863885885704
0.345738559784046
0.350575869633136
0.35548366128025
0.360506582054918
0.365669527667095
0.370990025300737
0.376468274790762
0.382103718942359
0.387877901426364
0.393769229592595
0.399758667216769
0.405788440871775
0.411757996287778
0.417543337894615
0.422987217172376
0.427933434496909
0.432191720975065
0.43561464361077
0.438022134646629
0.439401334820579
0.439624272457773
0.438592878255264
0.436153250960863
0.432105016682005
0.426169871450799
0.417940464621577
0.406787368713535
0.391572194224297
0.370598882248479
0.343742845089652
0.30980116388197
0.268482225379727
0.218715496016536
0.161347829249992
0.0968749946437999
0.0317975683880148
-0.0275400688818427
-0.0555798784810642
-0.0667227326158638
-0.0587530098781426
-0.0494972249945236
-0.0228302512611409
-0.00835666030626622
1.88243217710124e-05
0.00456729890719576
0.00269088100715725
-0.00621651424584357
0.00567625290329434
0.0237105412310812
0.0543792741740571
0.0805136456810249
0.0978540588292046
0.107692188688033
0.115870556567265
0.121943253846022
0.12680310657338
0.130473895261598
0.133549419672453
0.13615846449905
0.138518921784164
0.140626143112086
0.142625665161091
0.144513733427641
0.146331473397621
0.148074657604118
0.149755877708857
0.151376789399094
0.1529461468437
0.154498538907621
0.156027129470919
0.157536987848574
0.159039346313241
0.160546547115142
0.162070350257276
0.163617740920742
0.165195298074205
0.166784420117693
0.168374758258985
0.169997494350073
0.171658726643924
0.173365326579582
0.175114854150391
0.176899358568339
0.178707909697805
0.180505397161005
0.182296505238228
0.18407249414893
0.185362295584589
0.187520525624478
0.190133316407954
0.193231984985437
0.196681057151747
0.200447858068051
0.204472772371939
0.208727261577295
0.213179003768619
0.217805888072171
0.222586394020788
0.227502851007396
0.232538439812854
0.237677910882133
0.242906617981446
0.24821066839327
0.253576637482816
0.258991649380143
0.264443380225259
0.269920185422768
0.275411338317029
0.280907154685201
0.286399654701343
0.291882351502295
0.2973520838509
0.302806944714766
0.308252048581346
0.313689122749923
0.31914156971365
0.324589231271057
0.330093238346135
0.335707756968437
0.340708853975954
0.345594923420008
0.350443393713594
0.355361267859865
0.360393303451857
0.365564383686594
0.37089197059291
0.376375860142522
0.382015155881027
0.387790621121592
0.393680485351312
0.399663257933571
0.405679560484777
0.411629032273262
0.417388173178618
0.422800873845951
0.427712275131385
0.431934275106305
0.435322313934662
0.437699826177902
0.439051775179079
0.439246552609745
0.438185074462704
0.435711329893382
0.43162305275083
0.425639202334646
0.417348413575347
0.40611541217017
0.390811348292822
0.369773663327774
0.342881480204482
0.308938753665695
0.267668744718223
0.218028960816484
0.160901242105742
0.0968106048341077
0.032235933515724
-0.0266086609919375
-0.0545985580978082
-0.0659475372273979
-0.0582269266630106
-0.0491556723964995
-0.0227021573907211
-0.00831067315919969
5.70475201224455e-05
0.00459678321610226
0.00281891258598851
-0.00592665072235055
0.00594071133420059
0.0238494961389957
0.0543256868104311
0.0803709982016182
0.0977371787064741
0.10759663530789
0.115780188683486
0.121869323777892
0.126744996204641
0.130429557029038
0.133513373393913
0.136127986970894
0.138493440665577
0.140605182922571
0.142607829967607
0.144498831640169
0.146319333949533
0.148065508892696
0.149749865715702
0.151373929339214
0.152945756830707
0.154498745909027
0.156026612183566
0.157534210270125
0.159032406733006
0.160533267197583
0.162048479452087
0.16358520799347
0.165150466316881
0.1667275043169
0.16830672693053
0.169917825732406
0.171567416843776
0.173262855188452
0.175002517461021
0.176779227363759
0.178583391233982
0.180381728405896
0.18217805486833
0.183966734338504
0.185330254768805
0.187516777462575
0.190137424027466
0.193237968177962
0.196684666933384
0.200447320719465
0.204466989308419
0.208715749961413
0.213161479256465
0.217782257238144
0.222556642103454
0.227467038397169
0.232496687797723
0.237630406451422
0.24285360603341
0.2481524537395
0.253513582921094
0.258924174537644
0.264371957028331
0.269845326277345
0.275333583461957
0.280827033068512
0.28631766012736
0.291798835307079
0.297267240628776
0.302720489945415
0.308163379009896
0.313596298418593
0.319041890739131
0.324479759971864
0.329963262416151
0.335531680755559
0.34054115136301
0.345437266567465
0.350296579004401
0.355223835761403
0.360264163796054
0.365442232622613
0.370775476623776
0.376263217052758
0.381904196896388
0.387678315489351
0.39356355211181
0.399535907750871
0.405534520914425
0.411459317572231
0.417187361905684
0.422563892630972
0.427435415372434
0.431616255785495
0.434964889959644
0.437308234386334
0.43862892365085
0.438791473047829
0.437695641148634
0.435183120729543
0.431049601493321
0.425011113037683
0.416652180768857
0.405331813288713
0.389932463444886
0.368828062755084
0.341902097536224
0.307966951138436
0.266762432498334
0.21727684859097
0.160430126097568
0.0967776624924364
0.0327752087667805
-0.0255060234712747
-0.0534215454669453
-0.0649927833116152
-0.0575596548454592
-0.0487107783630582
-0.0225277215464524
-0.00824139521828157
0.000115905919289081
0.00464243002865051
0.0029771293049923
-0.00557763914442709
0.00627020820662114
0.0240501450802585
0.0543111891960771
0.0802460799233148
0.0976285355712584
0.107506400673366
0.115690670584307
0.121795117659417
0.126686655872011
0.130385079369548
0.133477018470795
0.136096815361333
0.138467096543285
0.140583394202278
0.142589256863033
0.144483370629138
0.146306919768136
0.148056488431211
0.149744490774234
0.1513722585716
0.152947079884371
0.154500881867891
0.156027969528176
0.157532994953019
0.159026458462881
0.160520172662514
0.162025798371758
0.163550746904006
0.165102485306363
0.166666273982474
0.16823340743282
0.169832014696538
0.171469261517187
0.173152975212925
0.174882398928025
0.176651153502356
0.178451009089137
0.180250566436454
0.18205303782087
0.183855814373274
0.185294692875
0.187509281252344
0.190138981163063
0.193241609823509
0.196685813348646
0.200443990152287
0.204457980807493
0.208700534188533
0.21313975056915
0.217753915183326
0.222521670529433
0.227425517591158
0.232448761341652
0.237576286177642
0.242793564216176
0.248086825033691
0.253442761750706
0.258848613344163
0.264292160770118
0.269761839241172
0.275246975222629
0.28073785634267
0.286226425694325
0.291705898791446
0.297172792464192
0.302624221108713
0.308064669150052
0.313493194169243
0.318931737189049
0.324359410583636
0.329822883766304
0.335345574176233
0.340363270711769
0.345268074578738
0.350137986428925
0.35507404442509
0.360122051171055
0.365306214640331
0.370643987430568
0.376134139302353
0.3817750380032
0.387545643006276
0.393423640740427
0.399382479056155
0.405359910602989
0.411256213307179
0.416949089180489
0.422285230404039
0.427112596234392
0.431248105118615
0.434553350340077
0.436858613119424
0.438144137907092
0.43827041123977
0.437135883501586
0.434579762353008
0.430395518182384
0.424296049240515
0.415861691646774
0.404446041674026
0.388944169514802
0.367768484156958
0.340807481100776
0.306883738289949
0.265755364350312
0.216444289262554
0.15991109736474
0.0967431917225255
0.0333716165395624
-0.0242813630790845
-0.0520873827592983
-0.0638793059549277
-0.0567576330257445
-0.0481619953772932
-0.0223041463960226
-0.00814538055758417
0.000198258392133307
0.00470800193033127
0.00316825484351006
-0.00517110250465096
0.00666015650402009
0.0243095158257902
0.0543349606872015
0.0801423799184762
0.0975348442716428
0.107427498429586
0.11560435257399
0.121721224102178
0.126628307994225
0.130340652019132
0.133440554206803
0.136065128415167
0.138440069418862
0.140560977818456
0.142570183509116
0.144467646972847
0.146294610895214
0.148048074139041
0.149740327725861
0.151372429833423
0.152950825984449
0.154505724385736
0.156032049832558
0.157534257871418
0.159022497379885
0.160508361178665
0.16200352569443
0.163515705724603
0.165052831074336
0.166602281014183
0.168156361113836
0.169741624535569
0.171365816099175
0.173037216036941
0.174755969188032
0.176516504731071
0.178311976490335
0.180112908599392
0.181922371654499
0.183740356625194
0.185255134062484
0.18749733403029
0.190137410990873
0.193242500402788
0.19668430163766
0.200437868222127
0.204445928055107
0.208681956345291
0.21311429861999
0.217721467348208
0.222482205346985
0.227379122891767
0.232395591379942
0.237516567774596
0.242727587366122
0.248014944297778
0.253365392846243
0.258766230656788
0.264205290874974
0.269671046513029
0.275152846685133
0.280640957216522
0.286127273871826
0.291604847633804
0.297070026051974
0.302519411966696
0.307957190703795
0.313381094562019
0.31881241039369
0.324229448881868
0.329673402722938
0.335150922226467
0.340176829417564
0.345089006036672
0.34996933672482
0.354913690456929
0.359968894083579
0.365158414102318
0.370499774722759
0.375991112998525
0.381630412143706
0.387395621390487
0.393264109506002
0.399206731090197
0.405159935801345
0.411024396567388
0.416678568286867
0.421970577868863
0.426750021369299
0.43083650667814
0.434094773996866
0.436358300899187
0.437604939489325
0.437691066540539
0.43651368437116
0.433909342716656
0.429669115627285
0.42350258143052
0.414985823471701
0.403467460932951
0.387856317950169
0.366604541188848
0.339606028512567
0.305695253189128
0.264650264990875
0.215529294958237
0.159335574276215
0.0966900093294609
0.0339967821742773
-0.022973259742509
-0.05063288428787
-0.0626324889103977
-0.0558337626610331
-0.0475142646910846
-0.0220314258985835
-0.00802132777888727
0.00030533361595667
0.004795745349152
0.00339405255001786
-0.00470874183621643
0.00710535256032801
0.0246223823989974
0.054389686688824
0.0800527132717003
0.0974610689183321
0.107367819147156
0.115525576747632
0.121649074837143
0.126570540701522
0.130296672609486
0.133404351943961
0.136033284814628
0.138412723108162
0.140538313919947
0.142551019511827
0.144452113459618
0.146282911156785
0.148040815169769
0.149737951122599
0.151375014345248
0.152957542594928
0.154513816878907
0.156039400991715
0.157538555952753
0.159021107651698
0.160498466783904
0.16198236292011
0.163480863832472
0.165002369416397
0.166536450128449
0.168076529395408
0.169647607449203
0.171258036387184
0.172916525392709
0.174624148591743
0.17637615530117
0.178167112239803
0.179969506417741
0.181786832279452
0.183620961618019
0.185211424863263
0.187480584907908
0.190132391565492
0.193240389919769
0.196680022199358
0.200428974800211
0.204430976234511
0.208660273965911
0.21308548281291
0.21768536560881
0.222438789421754
0.227328478122852
0.232337875843183
0.237452016602466
0.242656501491665
0.247937691050032
0.253282401660106
0.258677989748875
0.264112339807122
0.269573960757666
0.275052221592282
0.280537361822203
0.28602122543333
0.291496691829868
0.296959937710377
0.30240704721207
0.307841919311091
0.313260966884869
0.31868486632562
0.324090787728956
0.329515754976272
0.334948843149381
0.339983059527039
0.344901337169981
0.34979196012546
0.354744165550067
0.35980618981162
0.36500045244289
0.370344608444765
0.375836076898251
0.381472451106361
0.38723060327534
0.39308757193513
0.399011582280795
0.404937852080938
0.410767475390706
0.416379799951433
0.421624288095669
0.42635240830692
0.430386501377143
0.433594450335664
0.435812726932988
0.437016835114505
0.43705902145112
0.435834718814287
0.433177672109397
0.428876394803566
0.422636988250305
0.414031253105551
0.402403370652561
0.38667700849478
0.365344873723957
0.33830645401087
0.304409702971508
0.263454093771623
0.214536563024506
0.158704439192554
0.0966130274139286
0.0346367004520941
-0.0216065080544562
-0.049086986092097
-0.0612762429571276
-0.0548031434048263
-0.0467751008330828
-0.0217107443432999
-0.00786918970601177
0.00043726734609702
0.00490658921889178
0.00365518319043159
-0.00419218009643986
0.00760139672918647
0.02498187085892
0.0544678750803922
0.0799689631607411
0.097403873031618
0.107334636506712
0.115460498939691
0.121581163869775
0.126514454281587
0.130253823189458
0.133368992201997
0.136001840400579
0.138385600996642
0.140515933441117
0.142532290046791
0.144437290286805
0.146272326666466
0.148035185567708
0.149737779977835
0.151380356624619
0.152967495329681
0.154525381964196
0.156050226914106
0.157546094136841
0.15902252157528
0.160490773681083
0.161962663160515
0.163446654558742
0.164951624861765
0.166469378049423
0.167994545189831
0.169550620921337
0.171146595060264
0.172791582170807
0.17448761185372
0.17623077154897
0.178017082658056
0.179821023628887
0.181647115802585
0.183498178794379
0.185163528187569
0.187458837168868
0.190123706665294
0.193235087794477
0.196672890375268
0.200417321472003
0.204413237401004
0.20863568690243
0.213053588139505
0.217645975107944
0.222391862173272
0.227274090916123
0.232276185554376
0.237383261371115
0.242580987793469
0.247855793224493
0.253194556699409
0.258584693058469
0.2640141368401
0.269471430676778
0.274945960527685
0.280427935392188
0.285909143627935
0.291382287672705
0.296843373045945
0.302287961002213
0.307719675232122
0.313133611262446
0.318549881300277
0.323944167801981
0.329350698606797
0.334740256199868
0.339782970068274
0.344706131298598
0.349606970203982
0.354566639769851
0.359635201023964
0.364833701231501
0.370179989565177
0.375670678577828
0.381302969315301
0.387052593065417
0.392896254445631
0.398799516630273
0.404696424560297
0.410488524648843
0.416056152119752
0.421250040198959
0.42592372637093
0.429902307136832
0.433056775356135
0.435226370222403
0.436384326553557
0.436378788974536
0.435103516691491
0.43238932880297
0.428022028641659
0.421704118650959
0.413003126548835
0.401259419326508
0.38541259210482
0.363996466395897
0.336916193992891
0.303034720800155
0.262174321857879
0.213472767762684
0.158022542925142
0.0965134752000738
0.0352863931725621
-0.0201948752114598
-0.0474696339331416
-0.0598301378396109
-0.0536804507536928
-0.0459528906137153
-0.0213437254621372
-0.0076893987119283
0.000593616430194938
0.00504060490207207
0.00395137046201563
-0.00362319694923327
0.00814517191481292
0.0253814385532716
0.0545734228739191
0.0799053219380178
0.0973497207603627
0.107332169731164
0.115415870105174
0.121520918508161
0.126461667627943
0.13021307446551
0.133335235155548
0.135971491203527
0.138359347719632
0.140494422739792
0.142514526012801
0.144423645944667
0.146263248380285
0.148031483560938
0.149740009267615
0.151388548205747
0.152980686908001
0.154540381588984
0.156064484588808
0.157556851808726
0.15902676690921
0.160485378020361
0.161944602692614
0.163413341716227
0.164900956084199
0.166401500145889
0.167910886408125
0.169451170920166
0.171032016488926
0.172662923379493
0.174346904754891
0.176080911168992
0.177862470652139
0.179668062327185
0.181503833118431
0.183372479233659
0.185111450638367
0.18743198692955
0.190111202914417
0.19322644209495
0.196662838668779
0.200402915987557
0.20439280465681
0.208608361192941
0.21301885275495
0.217603605262275