/*--------------------------------*- C++ -*----------------------------------*\
  =========                 |
  \\      /  F ield         | OpenFOAM: The Open Source CFD Toolbox
   \\    /   O peration     | Website:  https://openfoam.org
    \\  /    A nd           | Version:  7
     \\/     M anipulation  |
\*---------------------------------------------------------------------------*/
FoamFile
{
    version     2.0;
    format      ascii;
    class       volScalarField;
    location    "20000";
    object      Pk;
}
// * * * * * * * * * * * * * * * * * * * * * * * * * * * * * * * * * * * * * //

dimensions      [0 2 -3 0 0 0 0];

internalField   nonuniform List<scalar> 
15600
(
3.62717078421911e-08
4.361139495536e-08
5.04473114741263e-08
3.80664504511452e-08
1.76949760661075e-08
4.02908097712246e-09
5.63157478741038e-11
2.01436222735097e-10
2.23660440035986e-10
1.72092698726915e-10
1.3474371981141e-10
8.53482194613163e-11
5.25015967639483e-11
3.5110256139671e-11
2.81950949948531e-11
2.59581084691277e-11
2.63489611849604e-11
2.87021681605184e-11
3.30230526329421e-11
3.87677283227802e-11
4.63535049581502e-11
5.62793055635655e-11
6.9891105277002e-11
8.92539296783932e-11
1.17915375150355e-10
1.59234707532716e-10
2.17441519735262e-10
3.01431751675911e-10
4.23247107985706e-10
5.98025870744476e-10
8.43708515736372e-10
1.17979334589017e-09
1.62420523581634e-09
2.20479439695211e-09
2.98388529558257e-09
4.02206424184035e-09
5.34494287534688e-09
6.97122764353421e-09
8.8914911316155e-09
1.10690056620761e-08
1.34375513629742e-08
1.59842571254845e-08
1.87516518046164e-08
2.19037094395342e-08
2.97464157767501e-08
4.5843822385182e-08
6.29408510806461e-08
8.00055263312876e-08
9.63994595233483e-08
1.12199337933596e-07
1.27138361295264e-07
1.41202163453531e-07
1.54249815893431e-07
1.66222477536432e-07
1.77029442846477e-07
1.86615129618416e-07
1.94939720258983e-07
2.01990543965531e-07
2.07597508586388e-07
2.11656884615292e-07
2.14158035908874e-07
2.15133628273478e-07
2.14652359034915e-07
2.12822942844835e-07
2.09796134186241e-07
2.0576618703652e-07
2.00971628450806e-07
1.95692742923322e-07
1.9025196740267e-07
1.8500290905255e-07
1.80335158490829e-07
1.76609997279853e-07
1.74039866969889e-07
1.72682780988631e-07
1.70155181589719e-07
1.54744050988794e-07
1.30878503653989e-07
1.22585461043313e-07
1.20222457028809e-07
1.19956344867932e-07
1.19898957936909e-07
1.18896835968826e-07
1.16243753030756e-07
1.11403389407917e-07
1.04120183009501e-07
9.43202507086803e-08
8.2427806864408e-08
6.88879911559377e-08
5.38058593658545e-08
3.78748171979914e-08
2.25820713449509e-08
9.91299808097488e-09
1.89362340798638e-09
2.67706419255243e-10
5.95765595898761e-09
1.84145061959641e-08
3.58922763022638e-08
5.68503489681995e-08
7.98792068119616e-08
1.04018093866009e-07
1.28677641950509e-07
1.53819531668873e-07
1.803431941315e-07
2.11883230733285e-07
2.53829258094216e-07
3.01252671717731e-07
3.50824374177257e-07
4.01326185273272e-07
4.54127015565316e-07
5.06388769448284e-07
5.54230952770982e-07
5.75544152754665e-07
5.43757510533346e-07
4.1523960336209e-07
2.62089454243745e-07
1.50500673438606e-07
8.6459791866306e-08
4.69897696402075e-08
3.08780504561371e-08
3.1871961277025e-08
7.18757775710676e-06
8.34395108522907e-06
9.27700725763016e-06
7.26081090822263e-06
3.74631039904276e-06
1.04193542794145e-06
5.51128611031248e-08
1.66422207343249e-08
3.10967138982296e-08
2.6511594155665e-08
2.14316430026471e-08
1.39576213948965e-08
8.78021258036371e-09
5.98664094793593e-09
4.86522219025959e-09
4.52409374975644e-09
4.63240471072797e-09
5.08192126755431e-09
5.87175908251783e-09
6.92661454585828e-09
8.31989722686396e-09
1.01556912483504e-08
1.26805953580703e-08
1.62778700014554e-08
2.15620663443094e-08
2.917131387579e-08
3.99433097748885e-08
5.5472265156394e-08
7.79241529927165e-08
1.10013785128064e-07
1.54967157275599e-07
2.16330766296346e-07
2.97833153756246e-07
4.05079295513214e-07
5.48059400408206e-07
7.36585606984434e-07
9.75566119515698e-07
1.2682917426966e-06
1.61412381579267e-06
2.00848642035081e-06
2.4446621021143e-06
2.92170643506811e-06
3.45747277453677e-06
4.18247506990536e-06
5.50991221780714e-06
7.85203816591412e-06
1.03191493002261e-05
1.27133247692966e-05
1.49688027740455e-05
1.70975186287148e-05
1.90749774100637e-05
2.0900832343867e-05
2.25618470727154e-05
2.40528340441851e-05
2.53658378636933e-05
2.6496816977366e-05
2.7444557099406e-05
2.82113789995463e-05
2.87741442381155e-05
2.91256728981263e-05
2.92705370776696e-05
2.92171770992549e-05
2.89783056304206e-05
2.85711836685635e-05
2.80177267010264e-05
2.73443872955427e-05
2.65821898284049e-05
2.576585021055e-05
2.49341317663775e-05
2.41269984650162e-05
2.33874970628734e-05
2.27475848716283e-05
2.22354259477834e-05
2.17816648320682e-05
2.10738331572228e-05
1.9479934478892e-05
1.70558749119039e-05
1.59914645503085e-05
1.5566299318683e-05
1.53285681600057e-05
1.50749341061379e-05
1.46745685617351e-05
1.40553979653146e-05
1.31682680801697e-05
1.19998041805501e-05
1.05618271330542e-05
8.90971455632163e-06
7.10842353889627e-06
5.21380960201893e-06
3.34592206775303e-06
1.70027847932989e-06
5.15177590188866e-07
2.36082715495936e-08
4.10341071320842e-07
1.75935101182011e-06
3.96437167095922e-06
6.79963019383998e-06
1.00686597193124e-05
1.3595607937302e-05
1.72560288564357e-05
2.09743674696054e-05
2.47481194704273e-05
2.87066374079804e-05
3.33425596167439e-05
3.93314330175793e-05
4.61211876205895e-05
5.33492981894539e-05
6.08053815853768e-05
6.86825927962088e-05
7.66099019358387e-05
8.4045113384297e-05
8.80239503849256e-05
8.46591753140624e-05
6.79201188249978e-05
4.59602663252373e-05
2.81461961341721e-05
1.69939366442867e-05
9.84336276099566e-06
6.72558750411124e-06
6.54971288871584e-06
0.000164521882361492
0.000184362590834914
0.00019689273879456
0.000158900996337448
9.02977170916677e-05
2.98168623332428e-05
2.99915191585137e-06
8.31647759905137e-08
4.61973652790769e-07
4.56196184394091e-07
3.84907587585021e-07
2.59338943324406e-07
1.67603520301443e-07
1.16919599726534e-07
9.63797824877708e-08
9.06591943399134e-08
9.37456280997465e-08
1.03646276074761e-07
1.20323741565254e-07
1.42674268202121e-07
1.72203016938701e-07
2.11355466856727e-07
2.65330383498466e-07
3.42247770481163e-07
4.54338304929391e-07
6.15453523411415e-07
8.44258941007895e-07
1.17323410721525e-06
1.6464309651543e-06
2.31861802073815e-06
3.25468320714704e-06
4.52681096726688e-06
6.2179204724505e-06
8.44436413799335e-06
1.13761940734905e-05
1.51821194765826e-05
1.9952768561908e-05
2.57411269963553e-05
3.25438814730303e-05
4.03049597352158e-05
4.89673160096626e-05
5.8562101214423e-05
6.96971520650948e-05
8.49571273024434e-05
0.000106304431392118
0.000139672217029509
0.000174381178530705
0.000206677427919516
0.000236065050703036
0.000262834761536399
0.000286877683012655
0.000308281583537299
0.000327003649072566
0.000343068218486444
0.000356476075143156
0.000367263848846995
0.000375506019508453
0.000381245288303018
0.00038423558120683
0.000384620650594279
0.000382540494954187
0.000378173277953084
0.000371735221840956
0.00036348051715856
0.000353699812835914
0.00034271566205958
0.000330880184873633
0.000318561245924873
0.000306143316913539
0.000293988275366147
0.000282448517363775
0.000271710696438334
0.000261894893322203
0.000251833627340199
0.000240084060483184
0.00022684806290769
0.000206593091014943
0.000193502746401699
0.000185741506095332
0.000178974496702675
0.00017151051302319
0.000162187178686975
0.000150480001780148
0.000136125905758877
0.000119229072143378
0.000100160660214097
7.95872876491754e-05
5.84183489156055e-05
3.78784525442306e-05
1.97942762096091e-05
6.56639775212892e-06
9.01534173526577e-07
5.36198694370471e-06
2.18486218018908e-05
5.1115029708359e-05
9.1595615829401e-05
0.000140645370194951
0.000195806101567433
0.000254876096669083
0.000316138543604769
0.000378491006175918
0.000441825066857896
0.000507996762795933
0.000583899863619378
0.00067817669134643
0.000785004408360192
0.00090100127863767
0.00102257562399864
0.00115245605910544
0.00128539775534649
0.00141319782684501
0.00149352652495141
0.00146380842098231
0.00123685520508878
0.000902500727670557
0.000594227722224013
0.00037963212292511
0.000234580677597147
0.000167099321974136
0.000155484819298473
0.00136409792496213
0.00147542730387712
0.00151422812199513
0.00125019426627978
0.000776194952046057
0.000299103466673451
4.55037440091207e-05
2.9857582796018e-07
2.2293542745389e-06
2.76076593093998e-06
2.47518935641728e-06
1.74143014657589e-06
1.16369322943799e-06
8.34091658138824e-07
6.99259523365736e-07
6.66456350986075e-07
6.96633132824667e-07
7.76552843855754e-07
9.05990985437568e-07
1.079772992513e-06
1.30926837674354e-06
1.61489748562889e-06
2.03635208447602e-06
2.63524700286103e-06
3.49955394143202e-06
4.73649970004323e-06
6.49059513962242e-06
8.99306981272162e-06
1.25525058933325e-05
1.75420050535878e-05
2.43916386624341e-05
3.35720177560299e-05
4.56306644941068e-05
6.12358675396571e-05
8.11758295451678e-05
0.000106207985488697
0.000136615451575437
0.000172405721436098
0.000213369374792804
0.000259166482556394
0.000309663260715911
0.000365269209183985
0.000429306312097719
0.000508417293341429
0.000589773148471954
0.000703605407556885
0.000817443565758276
0.000915211359430328
0.000997526152833072
0.00106671124502804
0.00112365867721073
0.00116946816821576
0.00120481444538981
0.00123042126159822
0.00124691131912758
0.00125492546984058
0.00125527054045308
0.00124757416180868
0.00123273967628324
0.00121147171288358
0.00118449480346152
0.00115256136334255
0.00111644488414519
0.00107693180044117
0.0010348105486473
0.000990854084111069
0.000945804912586536
0.000900338345776267
0.000855046986194892
0.000810356833380984
0.000766522689537479
0.000723436901044271
0.000680950833135867
0.000637991168370869
0.000601922933951411
0.000588552947633427
0.000561936423645451
0.000522809570515573
0.000488879979001076
0.000453807676679143
0.00041629618481966
0.000374974767501542
0.000329652611783122
0.000280623042753377
0.000228837529177092
0.000175790400722243
0.000123426804210463
7.50551526479017e-05
3.59226940464738e-05
1.23916196075152e-05
1.17996619632366e-05
4.22479943190275e-05
0.00011170441408508
0.000226769890428025
0.000391162195285108
0.000602754352291158
0.000856822741202805
0.00114675799987922
0.00146594190905013
0.00180770385433554
0.00216662744016785
0.00254057719690657
0.00293578998722876
0.00337888840238316
0.00390060290060566
0.00448664692698273
0.00513422007045991
0.0058249005211262
0.00656890448203367
0.0073395530233108
0.00809478370179058
0.00863749881300158
0.00863585990265834
0.00769223460421174
0.00608482767357681
0.00435475458588222
0.0029792972148827
0.0019753371516838
0.00147687473301032
0.00133517241264735
0.00630895682563216
0.00659122778785332
0.00652218143077517
0.00547725943244027
0.00369303442232664
0.00164902680724704
0.000343437295653593
1.08817180900712e-05
5.00260739203362e-06
9.15184527705461e-06
8.99217751506944e-06
6.70004045938127e-06
4.67158221108346e-06
3.45908008175943e-06
2.95841184385894e-06
2.86186566743324e-06
3.02637143357699e-06
3.40138126426414e-06
3.98691657391284e-06
4.77219474608113e-06
5.80642326676292e-06
7.18426820263262e-06
9.07609979845929e-06
1.17409700661944e-05
1.55304221883322e-05
2.08940194150912e-05
2.84135116664166e-05
3.89339495083395e-05
5.35242764777438e-05
7.33689051939758e-05
9.969505021609e-05
0.000133687587103093
0.000176550933006129
0.000229230638139833
0.000292243285878254
0.000365942870513242
0.000449358520595593
0.000540969526602827
0.000639405308834131
0.000743810060911916
0.00085445563412409
0.000972381266819613
0.00110019437495438
0.00122861133719431
0.00129597940937947
0.00136844306964006
0.00143829358465205
0.00148640963646051
0.00151546262537583
0.0015293942981856
0.00153041737337755
0.00152044188979578
0.00150098770605425
0.0014734059369119
0.00143892860335715
0.0013988211850402
0.00135356792737328
0.00130407911640268
0.00125131011317895
0.00119608240793531
0.00113914443637415
0.00108117406596827
0.00102277312179571
0.000964459887839117
0.000906659590665406
0.000849692948543348
0.000793761170570899
0.000738931904362084
0.000685120994896759
0.000632102039983562
0.000579516471389409
0.000527193044823056
0.000475810486094886
0.000428876283584567
0.000404018840437744
0.000423613738645239
0.000430565221933432
0.000391144652267045
0.000347615956196523
0.000300724985432962
0.000253615458737891
0.000207071007888784
0.000162236340870222
0.000120347068755422
8.300812219506e-05
5.23453700141871e-05
3.14235367600615e-05
2.56983913882724e-05
4.21589568233614e-05
8.79788416167393e-05
0.000171478674683978
0.000302550731109322
0.000492059728607276
0.000752344735882897
0.00109428797746399
0.00153063208855676
0.00207374076680903
0.0027284359398748
0.00349853467686569
0.00438403977542162
0.00538292491353423
0.00649395646476564
0.00772595998734204
0.00911176562232929
0.0106796699058019
0.0124332513402079
0.0144078559314028
0.016562709169447
0.0189030211347566
0.0213475131393374
0.0237800123685949
0.0257495427331189
0.0264079537297212
0.024883418301365
0.0214516118143209
0.0168664845030546
0.0125329134189918
0.00899863206627191
0.00711986938714241
0.00637045440781256
0.0190833595809722
0.0192987251918767
0.0185413426170231
0.0158330965185247
0.0115612323116076
0.00598288093579472
0.00163522538114426
0.000116426516690364
4.92785567253353e-06
1.95055895366039e-05
2.22612845055119e-05
1.7979126705922e-05
1.32606181771592e-05
1.02203946330651e-05
8.95243022340325e-06
8.8058367647779e-06
9.42398657593502e-06
1.06702979819882e-05
1.25483295410307e-05
1.50514310342167e-05
1.83221030155827e-05
2.26485877086932e-05
2.85122821053254e-05
3.66150271112267e-05
4.78479582456049e-05
6.33606845695873e-05
8.44775232658217e-05
0.000112840813166261
0.000150238438601302
0.000198154549640117
0.000257537463700197
0.000328650900216837
0.000411156491397991
0.000503084599374037
0.000601065532689515
0.000702622775312576
0.000804738935494693
0.000905123205648748
0.00100332803721092
0.00110057726645465
0.00119920783636836
0.00129949854898964
0.00139474245547131
0.00144893449127975
0.00137249076587816
0.00125597696050095
0.0011753369035362
0.00110785143294158
0.0010465002524133
0.000988686777790572
0.000933141735068326
0.00087903456316884
0.000826164785996172
0.000774455142775292
0.000724072243428855
0.000675139035533185
0.000627565673357971
0.000581483095390367
0.00053705446935415
0.000494398560789054
0.000453602864199343
0.000414717487282851
0.000377752768446203
0.000342677268831668
0.000309416848440086
0.000277858067805993
0.000247849367578757
0.00021921884287157
0.000191783682172828
0.000165427735008156
0.000140147758382493
0.000116438903013955
9.55885199474706e-05
8.07208562539946e-05
8.09040419827898e-05
0.000103717762907413
0.0001154144794196
9.68665425328768e-05
7.67779348130722e-05
5.69387683530153e-05
4.07765452491559e-05
2.94993447975456e-05
2.44736579607305e-05
2.70615511885711e-05
3.89835125500227e-05
6.25466723702261e-05
0.000101851251707765
0.000162710418449326
0.000249178491285245
0.00036457305161862
0.000513626931555765
0.000702980710318839
0.000940240358430418
0.00123744685680282
0.00160663499072807
0.00207514970344588
0.00267714438304908
0.00343973170737264
0.00439470177279127
0.00557483781190582
0.00701424903246974
0.00874787321926688
0.0108141870718809
0.0132382903830104
0.0159953537523895
0.0191464903451653
0.022824020537521
0.0270073133075356
0.0316705972300001
0.0366494169582527
0.0417309414415689
0.0463220893419782
0.0492871196437145
0.049598392216377
0.0469233349808788
0.0408507693621556
0.0333288684499617
0.0261090245412999
0.0219643135595342
0.0197581328759929
0.0405117180053903
0.039796965954538
0.037432093846939
0.0326232100801132
0.0257728056131663
0.0154781642854111
0.00545208901627521
0.000668895645423617
6.77788596929663e-06
2.66684770298708e-05
4.01081071917216e-05
3.66123798679544e-05
2.92062607431083e-05
2.37014217959175e-05
2.13778178338416e-05
2.14228116017695e-05
2.31934902519778e-05
2.63994062123551e-05
3.10498268220921e-05
3.71561497700249e-05
4.49959438866455e-05
5.51670431912488e-05
6.85832117989183e-05
8.64772045335697e-05
0.000110237436625253
0.000141584852227578
0.000181965580192745
0.000232506243604469
0.000293738842240535
0.000364886936433756
0.0004439598519598
0.000528144548226518
0.000614252799906895
0.000697210744327475
0.000771358217578168
0.000835024851689226
0.0008885889989128
0.00093380380235301
0.000973974353602786
0.00101270460532665
0.00105213598102148
0.00108854283065976
0.00110698512385296
0.00106656066415314
0.000897897899649521
0.000703450445773248
0.000582727718710658
0.000496964441297082
0.000431109236402746
0.000377464271117245
0.000332236936285274
0.000292954884878129
0.000258334962806075
0.000227496639042453
0.000199941681740771
0.000175175863074745
0.00015285184403117
0.00013277921009436
0.000114786155803
9.87094106662834e-05
8.43954480281252e-05
7.16942030696411e-05
6.04591137977089e-05
5.05499631544472e-05
4.18388888793077e-05
3.42218745786784e-05
2.76318741051197e-05
2.20628881462231e-05
1.75915350660637e-05
1.44208625715192e-05
1.28959858195596e-05
1.35239496080688e-05
1.66691536271558e-05
2.2260323660908e-05
2.82871441559984e-05
2.77155441122653e-05
2.15369861115495e-05
1.74998739618321e-05
1.88667786334859e-05
2.5382435883428e-05
3.82513196487008e-05
5.82442679020872e-05
8.64378710214113e-05
0.000124094572992645
0.000172905015166138
0.000235185774347521
0.000315575134524113
0.000419245952805719
0.000546707563620471
0.000697346165196017
0.000871953784898793
0.0010730289488092
0.00130293765650649
0.00156884755879557
0.00187698337625556
0.00225410392546343
0.00273824816664757
0.00336094576586757
0.00416164226376356
0.0051875755187368
0.00649588974974826
0.00815453134165882
0.0102408298550399
0.0127931804709794
0.0157483867819455
0.0192185104751952
0.0234495062736146
0.028530028082105
0.0344632068707463
0.0410724155120521
0.0481149839637469
0.0551333230907477
0.0614607167886991
0.0668755000210238
0.0701118413011587
0.0679820965126645
0.0612296589374643
0.052440486628
0.0468279234498594
0.0427108274472158
0.0643553552359327
0.061684910869811
0.0571279686203154
0.0508929600088743
0.0433474415990613
0.0301042131505843
0.0134540579919012
0.00255804093426119
9.01993033738686e-05
1.83263086365941e-05
5.1341967472944e-05
5.77047035484052e-05
5.17569261350924e-05
4.50599230281748e-05
4.21926289709845e-05
4.31809781676227e-05
4.72358477406421e-05
5.38449939401711e-05
6.29951126634427e-05
7.46707383302018e-05
8.91785490441788e-05
0.000107317978823665
0.000130157352908881
0.000158937367956616
0.000194698318740781
0.00023865331880445
0.000290747634415416
0.000349569952119938
0.000412702537661264
0.000476600778534472
0.000537632126734977
0.00059294498271366
0.000640572658592994
0.00067713648274838
0.000699395128783789
0.000709496344866548
0.000711971737772768
0.000710791797870374
0.000709518430470318
0.000710257588473088
0.000712206073157519
0.000708348017181716
0.000683516458491339
0.000609652901522726
0.000448923169936742
0.00029102810721724
0.000203789866699799
0.000148000863106083
0.000109876619631361
8.22756195881496e-05
6.17292702511247e-05
4.61042407866055e-05
3.42331805639799e-05
2.53276483835534e-05
1.88674081574425e-05
1.44415189636207e-05
1.17751302484439e-05
1.06431799352122e-05
1.08473240942356e-05
1.22098511281263e-05
1.45709099950634e-05
1.77878874508547e-05
2.17395714441016e-05
2.6333674714209e-05
3.15180334875352e-05
3.7294967179787e-05
4.37395026757752e-05
5.10152459582682e-05
5.93913327080104e-05
6.92155957206533e-05
8.08736902460679e-05
9.44327900494897e-05
0.000108938456126888
0.000121784144960297
0.000123959551118167
9.70849373770374e-05
7.0283252995264e-05
7.22459694915075e-05
8.58734705984575e-05
0.00010933759816014
0.000141401871583419
0.000182415322500679
0.000233099909216798
0.000294637796264784
0.000368684677360409
0.000457544724094483
0.000566201487805712
0.000699279001863318
0.000854595835650195
0.00102861103458853
0.00121908909134805
0.00142526715542741
0.00164519875171416
0.00188127002273823
0.00213369482310261
0.00242385934747318
0.00278706203553767
0.00325047149121033
0.0038465439975388
0.00461539515790798
0.00560734209596189
0.00688569142232835
0.00852538823370497
0.0105586478952611
0.0128898991832769
0.0156107378451792
0.0189945967181355
0.0232140485502162
0.0283444475522421
0.0342942726273564
0.0409099096983754
0.0480497069836974
0.0559211187591723
0.0661127847920554
0.077494904784718
0.0841593660018947
0.0838884077701001
0.0784304985437587
0.0740049832643343
0.0686507940367101
0.0825285321429028
0.0775952804850094
0.0709251287510623
0.0642939617570415
0.0584751852084542
0.0464587668282464
0.0257595951562984
0.00709934773629339
0.000574181125320536
6.3709610827698e-06
3.92626795857534e-05
6.75952911901362e-05
7.34789096551325e-05
7.08951588604623e-05
6.98523222067123e-05
7.33015801683125e-05
8.08865301220668e-05
9.18692156827465e-05
0.000106131926797401
0.000123479472050519
0.000143924426044516
0.000168042317306194
0.000196381183433399
0.000229316255227055
0.000266636164112303
0.000308369510672133
0.000352749766083208
0.000396426612076949
0.000436022908366181
0.000468667704317487
0.000492999382204159
0.00050920867072479
0.000518095429149314
0.000518495509461453
0.000508998556291761
0.000492970222783464
0.000475175252316736
0.000458460557068542
0.000444516525385405
0.000433342532782829
0.000422400071095962
0.00040472833903372
0.000369738365135527
0.000303926046562939
0.000190624487409591
9.30276580190835e-05
4.56559906907157e-05
2.06079543937744e-05
7.5114318516522e-06
1.48617147330467e-06
1.24929132786654e-08
1.70371293374828e-06
5.73808083562159e-06
1.15852394888297e-05
1.88880673985193e-05
2.73965197688301e-05
3.6900448070128e-05
4.72153687789005e-05
5.81802426043604e-05
6.96532041815126e-05
8.15107604598137e-05
9.36523355786797e-05
0.000106007971331406
0.000118549066595349
0.000131302723757359
0.000144365796697966
0.000157923955069578
0.000172254030555764
0.000187729098345318
0.000204717440082426
0.00022348918550913
0.000243578197440075
0.000262864305677238
0.000277089936052255
0.000273287009874998
0.000223548191364563
0.000177713242929695
0.000180846247776384
0.000201217644641461
0.000236047281145955
0.000281781829162055
0.000338430819147946
0.000406364898191899
0.00048673921393912
0.000581222780944716
0.000692171629556823
0.00082493198184834
0.000983877722367717
0.00116485092064066
0.00136210610335636
0.00157112306958307
0.0017886216260521
0.00200938810457394
0.0022320335946215
0.00245223444806971
0.00268655913244009
0.00296819101292601
0.00332082008823292
0.00376959330972625
0.00434497752125661
0.00508431650701172
0.0060349710467984
0.00725211746062941
0.00874893923455501
0.0103984532752663
0.0122289095927519
0.0144603653743444
0.017251980194602
0.0206848385545987
0.0247130376416495
0.0292584624492187
0.0344128090036885
0.0409180919667039
0.0519746192417321
0.0682214327871316
0.0833419574753335
0.092149059780329
0.0939670161581748
0.0935108453185043
0.0885034247864508
0.0916338174163153
0.0850592260408808
0.0768334911447089
0.0702891474829259
0.0672501305770851
0.0601460304881064
0.0402674983631516
0.0151466958958835
0.00218162962223185
0.000101780354679341
7.52086498826841e-06
5.08662595882317e-05
7.97465049528267e-05
9.0617490782658e-05
9.62337191349071e-05
0.000104382243763357
0.000116157690657668
0.000130822226118888
0.00014816274489378
0.00016776090246338
0.000189133417350537
0.000212357154539309
0.000237167314731098
0.000262987393595376
0.000288756853671903
0.00031426784178976
0.000337794277840327
0.000356359349079045
0.000368064963535681
0.000372457165763929
0.000370623487688694
0.000364394144432437
0.000355217827374776
0.000342326660754509
0.00032452930213508
0.000304406103210416
0.00028530691236839
0.000268618346611362
0.000254726428049978
0.000242746037147881
0.000230127431928669
0.000211819958096622
0.000182206474371222
0.000137928596000309
7.44122551388602e-05
2.89400829057487e-05
1.32615606471926e-05
1.21886616516132e-05
1.78946795131683e-05
2.77100693600897e-05
3.99221632651963e-05
5.38120785577883e-05
6.8859693278824e-05
8.47729237562196e-05
0.000101355606521029
0.000118458604996363
0.000135932715952774
0.000153642514729335
0.000171468295199215
0.000189306061737244
0.000207069955661836
0.000224700678526606
0.000242175766936662
0.000259522302599892
0.000276832891245263
0.000294277649580311
0.000312121770159913
0.000330712958497565
0.000350472126293714
0.000371724975619063
0.000394566905166597
0.000418033807765848
0.000439076754722161
0.000452290763246379
0.000442501205914753
0.000373584750137993
0.000310664204047327
0.000312445086739413
0.000336654268694097
0.000380027068283773
0.000436801953688004
0.000506706462944027
0.000589762186048029
0.000687144887827669
0.000800586945361667
0.000932569045175068
0.00108884771661119
0.00127376740536304
0.0014816380756896
0.00170494002351385
0.00193731903529977
0.00217339917487328
0.00240529119913522
0.00262860580476031
0.00283566233027031
0.00303944196138209
0.00327244064437073
0.00355711031342294
0.00391407071820732
0.00436723974329186
0.00494429339042671
0.00567999419705143
0.0066127617605357
0.00774145976538274
0.00891889015251478
0.0101144828449749
0.0114828373658314
0.0131325634142033
0.0151050991952013
0.017339153223788
0.0197611283508338
0.0225225227351781
0.0264122341027632
0.035076285338503
0.0510782278679127
0.0701746407965709
0.0861898414178709
0.0959677700252927
0.10095244120953
0.0980322686938338
0.0925901130970105
0.0854759828281337
0.0764853234188144
0.0700876388885178
0.0693894327355605
0.0685670725004002
0.05398695368894
0.0262490752790752
0.00585745145962799
0.000583322501321628
2.27673184491994e-05
1.38201405900137e-05
5.87319927943726e-05
8.96847246391893e-05
0.000107491702080538
0.000122597802200477
0.000138216857658516
0.000154177381420939
0.00017056046292012
0.000187149653770211
0.000203301209036492
0.000218879349729308
0.000233262495273358
0.000245689894439038
0.000255345151339196
0.000262821962924402
0.000267511362040734
0.000267639742326572
0.000262783615235342
0.000253800904695267
0.000242352958995549
0.00023003166565301
0.000217702889479805
0.000204469657951784
0.000189081930992832
0.000173072957348113
0.000158522913379999
0.000146018569163356
0.000135475794374821
0.000126012079044226
0.000115873657813098
0.000102246386772862
8.32795812623119e-05
6.16398342482605e-05
4.05821844202576e-05
3.65443729428192e-05
4.57730193519806e-05
6.3791014794144e-05
8.42824041497477e-05
0.000106486342294078
0.000129301452223475
0.000152570784073831
0.000176017375789703
0.000199558068345378
0.000223111876993423
0.000246610177839493
0.000269959796172255
0.000293071651792769
0.000315863623647449
0.000338265797632367
0.000360226083226856
0.000381721649406409
0.000402771015897868
0.000423447920157811
0.000443897870300615
0.000464347096806972
0.000485117243336458
0.000506598197912009
0.000529223662145701
0.000553245173827999
0.000578564573747407
0.000603782889529566
0.000625122503978697
0.00063624228297899
0.000620762441649336
0.000535627309711037
0.000457412325616434
0.000456487934395871
0.000482921682412689
0.00053336400755393
0.000599927389551384
0.000682100514481409
0.000779549544954065
0.000893506951559879
0.00102580608667242
0.00117911091465913
0.00135961789011779
0.0015717701229094
0.00180861630429424
0.0020611326988066
0.00232139464334978
0.00258211284008485
0.00283306225856468
0.00306733016904203
0.00327468617954952
0.00346551378755737
0.00367256589841932
0.00391865633281165
0.00422218992557807
0.00460349205090464
0.00508440167416335
0.00569210582914072
0.0064546225274793
0.00736380370544783
0.00826248571932001
0.00907741569899517
0.00991312010052816
0.0108333795213851
0.0118393540669135
0.0128394753649606
0.0137383137871374
0.014658794699105
0.0162161988813508
0.0216546807654683
0.0343836488914542
0.0527781729208915
0.0718551365385424
0.0874542227193034
0.0976633315253896
0.0979830883959504
0.087770153636838
0.0811849361401854
0.0722386136479612
0.0660275541260902
0.0666805287964066
0.0713944324454841
0.0648391780873921
0.0390749846038113
0.0122043942943763
0.00183697535310718
0.000217588341080954
4.64219713111885e-06
2.01907643039556e-05
6.23966482019665e-05
9.31646494609262e-05
0.000115881699685481
0.000134371977159976
0.000149422511750084
0.000161997586820097
0.000172709668376347
0.000181290308991509
0.00018779673895686
0.000191769485262934
0.000192845397478018
0.0001909072161828
0.000187293531378767
0.000182233525275045
0.000174740943213665
0.00016494021734679
0.000153767472114318
0.00014242408921708
0.000131776669442564
0.000122136913954304
0.000112695627045469
0.000102334927367543
9.17978139423736e-05
8.23237289146913e-05
7.41929766746691e-05
6.73042018149037e-05
6.11528860220359e-05
5.49692784247039e-05
4.78817135589091e-05
4.05851058680143e-05
3.91553937840117e-05
5.30127942120879e-05
8.25763146209845e-05
0.000112554891413
0.000146880826956009
0.000179989406926946
0.000212784620310961
0.000244630253349531
0.000275864468513909
0.000306412512901267
0.000336378594493987
0.000365767859144917
0.000394588713111639
0.000422800500482103
0.000450357958302547
0.000477213639002012
0.000503328764407732
0.000528681798207174
0.00055328238889061
0.00057718471194679
0.000600501962221721
0.000623422680091587
0.00064621607946205
0.00066924294941948
0.000692914978717155
0.00071765500346674
0.000743623764676125
0.000770525686335188
0.000796584155639153
0.000817437844598844
0.000825854023459976
0.0008048413099232
0.000705767528751747
0.000613889905373416
0.000609522481573539
0.000637215039380812
0.000693905036429955
0.000769653768418873
0.000863749121746347
0.000975488578834636
0.00110618645461205
0.00125780097095885
0.00143322065888231
0.00163908705669605
0.00188000146271662
0.00214792197853046
0.00243252284917322
0.0027244306557637
0.00301454132725875
0.00329048875501172
0.00354315799050622
0.00376035096042756
0.00395058938885578
0.0041473742086164
0.00437482003580463
0.00465064433551443
0.00499359973699844
0.00542241695336583
0.00596043897381117
0.00663015596467539
0.00742140793581157
0.00817301081386353
0.00878180433357382
0.00931787501814768
0.0098130085514331
0.0102393447200071
0.0104803095961044