/*--------------------------------*- C++ -*----------------------------------*\
  =========                 |
  \\      /  F ield         | OpenFOAM: The Open Source CFD Toolbox
   \\    /   O peration     | Website:  https://openfoam.org
    \\  /    A nd           | Version:  7
     \\/     M anipulation  |
\*---------------------------------------------------------------------------*/
FoamFile
{
    version     2.0;
    format      ascii;
    class       volSymmTensorField;
    location    "20000";
    object      tauij_B_bouss;
}
// * * * * * * * * * * * * * * * * * * * * * * * * * * * * * * * * * * * * * //

dimensions      [0 2 -2 0 0 0 0];

internalField   nonuniform List<symmTensor> 
15600
(
(3.7416283280678e-07 -9.33691020531047e-10 -0 3.74165887837755e-07 -0 3.74164311596372e-07)
(3.88176767054472e-07 -1.04277936506621e-09 -1.06480631263685e-31 3.88181468900212e-07 -1.91017620360915e-33 3.88179000752547e-07)
(3.7056975655084e-07 -1.09628182823802e-09 1.1816616164898e-30 3.70622568699905e-07 -1.14313208487759e-29 3.70596024931564e-07)
(3.13456943838799e-07 -8.75075667934881e-10 3.6748718254159e-30 3.13616518385591e-07 4.56429498688277e-29 3.13536913315114e-07)
(2.42839864636061e-07 -5.22612851835252e-10 1.14948198915318e-29 2.43026756563854e-07 1.32360757484465e-28 2.42933136297546e-07)
(1.63146969288767e-07 -2.01295995225262e-10 7.40280823473871e-29 1.63264859860906e-07 4.92502043157173e-28 1.63205658800712e-07)
(9.18393950712906e-08 -1.76480446290877e-11 3.01712619032449e-32 9.18525505661779e-08 1.14809551450699e-31 9.18456075637251e-08)
(4.41175465957726e-08 2.06707681252146e-11 -4.16813183454389e-29 4.40889977096901e-08 -1.99076717029579e-30 4.41030748525534e-08)
(2.39800109198613e-08 1.50748635059838e-11 -1.56802062386029e-28 2.39537098927186e-08 -1.93143299312602e-28 2.39667693876745e-08)
(1.98981365171267e-08 1.13422536646669e-11 6.84192768829102e-30 1.98740868924163e-08 4.7589982469751e-31 1.98860536830634e-08)
(1.78276428379738e-08 9.07113172732242e-12 -2.03290308955863e-28 1.78052140318622e-08 -4.21632096247035e-28 1.78163765377381e-08)
(1.42934181454957e-08 6.28764909113825e-12 1.17613862284384e-29 1.42759276376884e-08 4.2204939812532e-31 1.42846375730413e-08)
(1.09711940395392e-08 4.2783524757799e-12 -5.49021868804989e-29 1.09581854736279e-08 -6.82128064439393e-31 1.09646659684557e-08)
(8.89493205156658e-09 3.17830117354483e-12 -1.94475383752463e-28 8.88464758376268e-09 -2.92346664477259e-28 8.88977419137965e-09)
(8.01801926775795e-09 2.78559440272874e-12 4.4622398825586e-28 8.00869161299978e-09 6.11382663423785e-28 8.01334293057545e-09)
(7.92229457237714e-09 2.79713488300965e-12 5.5091230008334e-30 7.91287689395586e-09 -3.34505226933478e-31 7.91757500840381e-09)
(8.29856898620031e-09 3.0987859973437e-12 4.80743809095289e-28 8.28836255542866e-09 8.49171778905855e-28 8.2934555860573e-09)
(9.01285436922447e-09 3.63720839325385e-12 8.1315186617621e-28 9.00124618678185e-09 1.55500162043098e-27 9.0070408093907e-09)
(1.00216061058277e-08 4.41415835333429e-12 1.05613876568846e-27 1.00079212445637e-08 1.94126418757456e-27 1.00147537363926e-08)
(1.12703563780729e-08 5.41041139745524e-12 -9.08212823665661e-29 1.12540084201883e-08 2.99318781954273e-30 1.12621724122768e-08)
(1.27699424700885e-08 6.68060883121259e-12 4.3880032618925e-28 1.27501989408635e-08 1.03899498229228e-27 1.27600603820357e-08)
(1.45838123377127e-08 8.30121532335713e-12 1.34856884050243e-28 1.45597260544564e-08 -5.27173866052343e-30 1.45717591623565e-08)
(1.68235904219175e-08 1.0432186852845e-11 -2.58517081355304e-27 1.67937567032826e-08 -4.89650212760086e-27 1.68086641149873e-08)
(1.96506376173644e-08 1.33140538814745e-11 -5.32504276053093e-27 1.96129616346689e-08 -1.03087829084066e-26 1.9631791443193e-08)
(2.32676936268169e-08 1.73275886500478e-11 4.69950250965978e-27 2.32190029878316e-08 7.85321641819865e-27 2.32433417049015e-08)
(2.78751302784362e-08 2.28794679982066e-11 -1.38807048225413e-27 2.78112059426366e-08 -3.42753487414883e-27 2.78431617852422e-08)
(3.36536231864793e-08 3.06405822740983e-11 -5.5563251549253e-28 3.35691677501633e-08 3.30256709862559e-29 3.36113917923131e-08)
(4.09134614909459e-08 4.17782943521317e-11 3.85925189590989e-30 4.08011181014058e-08 8.5737967209862e-30 4.08572903962746e-08)
(5.00295532707718e-08 5.78835085600372e-11 -5.71421196076721e-28 4.9879447903763e-08 1.43997673778959e-29 4.9954506666403e-08)
(6.13649285787452e-08 8.10708894536659e-11 -4.18454838165892e-27 6.11645822113205e-08 -1.04291922681292e-26 6.12647681025991e-08)
(7.52651222639425e-08 1.14074498685816e-10 -1.31150992924375e-27 7.49997611124752e-08 -6.72593769889013e-27 7.51324624440152e-08)
(9.20263425202682e-08 1.60266811824765e-10 -1.41662735419667e-26 9.16799154356285e-08 -2.6406467340485e-26 9.18531635924526e-08)
(1.11882543035755e-07 2.23499041004892e-10 -1.10024873848413e-26 1.11439752573828e-07 -2.35573392000333e-26 1.11661206084431e-07)
(1.35086380835554e-07 3.08908842906462e-10 2.22934450170812e-27 1.34533592312018e-07 -1.37086313746232e-28 1.34810099811478e-07)
(1.6220710151036e-07 4.2417239820526e-10 1.49136271503794e-29 1.61529607588736e-07 3.93393132432256e-29 1.6186856210537e-07)
(1.9381744358169e-07 5.76474662238327e-10 -3.02237799093137e-29 1.93002336147961e-07 -7.1770173427622e-29 1.93410188089862e-07)
(2.29778090530813e-07 7.70019717535744e-10 5.08966997860473e-27 2.28823865341665e-07 -2.64202163966028e-28 2.29301404344101e-07)
(2.69719246095987e-07 1.00732540332982e-09 1.18532305267367e-24 2.68639464113191e-07 -1.0141273699285e-25 2.69179945720802e-07)
(3.12997792637503e-07 1.28697062623943e-09 -2.81494503331165e-24 3.11825436980126e-07 -2.50196392425581e-23 3.12412425669495e-07)
(3.58631478681817e-07 1.60291009547307e-09 -5.74429791252087e-24 3.5742098015052e-07 -2.97712846676892e-23 3.58027336445217e-07)
(4.05383927714939e-07 1.94403633729913e-09 -1.96303476918764e-24 4.04210115859841e-07 1.99044024944027e-25 4.04798453678254e-07)
(4.52056398118557e-07 2.30087647189005e-09 3.14097689861253e-27 4.51007111796149e-07 -2.111279871421e-28 4.51533636442837e-07)
(4.98686457878197e-07 2.6695103106209e-09 3.44141841374693e-27 4.97857976598217e-07 4.54921710489661e-26 4.98275126232383e-07)
(5.48167921077963e-07 3.06041541338047e-09 -3.37284526643363e-27 5.47644297107075e-07 4.25563152451291e-28 5.4790718644852e-07)
(6.12885795145381e-07 3.78627996329624e-09 2.60955364608786e-24 6.12692609818316e-07 -9.37314809807199e-26 6.12795028097457e-07)
(7.25502916882759e-07 5.11525735062794e-09 6.07738674437157e-24 7.25397337015295e-07 -1.10701514576764e-22 7.25453653205481e-07)
(8.41556027161826e-07 6.45552123377227e-09 1.31836436721868e-25 8.41463748700468e-07 -1.28939346567838e-22 8.41514054779822e-07)
(9.47688149551087e-07 7.72367187500553e-09 -4.1062918888256e-24 9.47607077639296e-07 1.36803731285165e-25 9.47651567914334e-07)
(1.04539409129807e-06 8.90456461233843e-09 -1.58547777667215e-29 1.04532226494103e-06 -2.73451385844536e-28 1.04536235013386e-06)
(1.1369286135266e-06 1.00184328960594e-08 7.09634379681226e-30 1.13686504740924e-06 7.32314485468484e-29 1.13690089545615e-06)
(1.22293830153723e-06 1.10606460442088e-08 2.94493211725657e-29 1.22288233016291e-06 2.39550902936289e-28 1.2229143673623e-06)
(1.3043039483952e-06 1.20379175716274e-08 -4.07930852375386e-29 1.30425523159486e-06 -3.59524670779137e-28 1.30428347714743e-06)
(1.38132522245965e-06 1.2947998885091e-08 9.14988944467153e-30 1.38128360327351e-06 9.23431550734308e-29 1.38130811296154e-06)
(1.45434252595366e-06 1.37918157083251e-08 3.72458195414058e-29 1.45430799524518e-06 3.03077900505119e-28 1.45432867865185e-06)
(1.52351494823163e-06 1.45676685001689e-08 -3.76510661703195e-29 1.52348757130814e-06 -2.23257047198237e-28 1.52350434132807e-06)
(1.58902049567942e-06 1.52750530715717e-08 5.91956698053913e-30 1.58900039184501e-06 5.62056251017567e-29 1.58901311529229e-06)
(1.65110335057857e-06 1.59141110138452e-08 2.22433793772893e-29 1.65109064997849e-06 1.83705506828291e-28 1.65109920207621e-06)
(1.71003982539735e-06 1.64859576645311e-08 -1.47032187311959e-29 1.71003465489782e-06 1.34130414804105e-28 1.71003890691227e-06)
(1.76464237605626e-06 1.69779548557957e-08 -0 1.76464481940764e-06 -1.38279645486059e-28 1.76464467236342e-06)
(1.81405903948073e-06 1.73815384815498e-08 1.04058359033575e-23 1.81406909060892e-06 -0 1.81406449608954e-06)
(1.85798942187712e-06 1.76943826178135e-08 2.10508759954418e-23 1.85800695808658e-06 -4.78666687307509e-23 1.85799793572496e-06)
(1.89624624027329e-06 1.7916302183778e-08 -5.84400431680759e-25 1.89627100323831e-06 -5.01871722427394e-23 1.89625764944149e-06)
(1.92869942536224e-06 1.80487519316495e-08 -1.12974820504411e-23 1.9287310011182e-06 -5.79050483841644e-26 1.92871350068293e-06)
(1.95531714586363e-06 1.8095269349196e-08 -1.12602057741787e-39 1.95535494907253e-06 -8.65709842374921e-42 1.95533358392994e-06)
(1.97621675829637e-06 1.80618971697202e-08 -0 1.976260025307e-06 -3.60106887290274e-28 1.97623517606987e-06)
(1.99171858429774e-06 1.79576040322535e-08 4.31482449979979e-29 1.99176636644212e-06 3.64078418905889e-28 1.99173852011309e-06)
(2.00244069777072e-06 1.77948618340965e-08 1.89503350688316e-29 2.00249188777825e-06 5.61846760534034e-28 2.00246161247208e-06)
(2.00935196341125e-06 1.75898748589598e-08 -8.81752359182669e-29 2.00940529962932e-06 8.9994824482685e-30 2.00937326161896e-06)
(2.01397151266688e-06 1.73635509128472e-08 -6.49568560106102e-29 2.01402570324433e-06 -5.77279153185277e-28 2.01399255802823e-06)
(2.01834818406914e-06 1.71409352159047e-08 1.20440564110785e-28 2.01840190844176e-06 -5.95652794034531e-28 2.01836838003323e-06)
(2.02559485489626e-06 1.69536625550484e-08 -1.40443903037845e-29 2.02564725313552e-06 1.21209444093949e-27 2.0256136888272e-06)
(2.03932598634555e-06 1.68344097205852e-08 -1.48172626395099e-23 2.03937713646466e-06 -4.56916275413466e-25 2.03934379570848e-06)
(2.06537354987641e-06 1.68178495598856e-08 -2.48652513116119e-23 2.06542566241619e-06 6.86764628048664e-23 2.0653905722266e-06)
(2.10666810819031e-06 1.69187971112395e-08 5.59932545093577e-24 2.10672793529408e-06 7.50983458836215e-23 2.10668821772136e-06)
(2.16445785169607e-06 1.70233621727044e-08 1.59140742844277e-23 2.1645766204325e-06 5.69079018939333e-25 2.16451071164519e-06)
(2.19186358943107e-06 1.63356735732971e-08 -1.66546381811533e-27 2.19252053227053e-06 -4.59292416990885e-26 2.19217892316018e-06)
(2.0905186334538e-06 1.46180442607991e-08 1.3302146769903e-26 2.0929908763074e-06 -2.44114459958671e-25 2.09175885206762e-06)
(2.06934633521608e-06 1.39186815647883e-08 -7.61513961516622e-29 2.07363554764449e-06 1.39673314506194e-27 2.07149923812474e-06)
(2.11501258373213e-06 1.36730746602686e-08 -2.12533368786865e-23 2.12118457125707e-06 -2.04043450140943e-24 2.11811260693003e-06)
(2.18805025571653e-06 1.35271814758814e-08 -4.68809978527999e-23 2.19613485019287e-06 1.02299613497832e-22 2.19211215110354e-06)
(2.2773741313363e-06 1.33353593816887e-08 -8.53898217784423e-24 2.28734379869813e-06 1.15060871831968e-22 2.28238450175903e-06)
(2.37322598497276e-06 1.30076882634393e-08 2.24211347417571e-23 2.3849585319089e-06 1.2026304717791e-24 2.37912407133761e-06)
(2.471077932505e-06 1.25046730980759e-08 -5.48103464900999e-25 2.48435514674296e-06 2.20472969217005e-24 2.47775461343107e-06)
(2.56633943562815e-06 1.18049555243785e-08 -4.92849249493772e-28 2.5808378642251e-06 2.17200981368784e-27 2.57363290031252e-06)
(2.6565483784978e-06 1.09137835181249e-08 -7.04904793563981e-25 2.67185508405735e-06 2.2395784547533e-24 2.66425157585633e-06)
(2.73905097259197e-06 9.84876381071017e-09 -7.71345673970253e-25 2.75467367098967e-06 2.22115810685706e-24 2.74691688061621e-06)
(2.81523970299494e-06 8.66116264238349e-09 5.41928451251409e-28 2.83066025001772e-06 -1.50005187972774e-27 2.82300836136071e-06)
(2.89133443256031e-06 7.42573360064698e-09 -7.68932083253418e-25 2.90600206033756e-06 2.1545645062904e-24 2.89872886655362e-06)
(2.96418746625852e-06 6.15437708092382e-09 2.01883196579699e-25 2.97748941556303e-06 -6.31912957942644e-25 2.97089903077931e-06)
(3.02417269491326e-06 4.83844953391631e-09 5.43674092801493e-25 3.03548515788316e-06 -1.41530021930297e-24 3.02988693335998e-06)
(3.06423607093208e-06 3.4934815245565e-09 -5.52117093805123e-23 3.07299791500257e-06 7.77347703251656e-25 3.06866952872834e-06)
(3.07765695535183e-06 2.14949347846051e-09 -2.1634893189217e-22 3.08343577968591e-06 3.26503158528896e-22 3.08059103307721e-06)
(3.05826188696664e-06 8.3826409539248e-10 -1.1860786255679e-22 3.06079280568421e-06 3.33314755409913e-22 3.0595618515139e-06)
(3.00527816225768e-06 -3.95421647280913e-10 4.16616304427259e-23 3.00452193336654e-06 4.61492497349615e-24 3.00492347028209e-06)
(2.91822428575145e-06 -1.51764162629611e-09 -1.33725939877547e-25 2.91435189980021e-06 -7.15113596749782e-27 2.91629986106686e-06)
(2.78926879000761e-06 -2.45682003543473e-09 -9.94656999596666e-29 2.7827354477871e-06 2.06574627946471e-28 2.78600415822071e-06)
(2.63802837031376e-06 -3.1743876127938e-09 9.19391856390255e-26 2.62939873326116e-06 3.60515414712209e-27 2.63370741899167e-06)
(2.47684605937883e-06 -3.68315538606897e-09 1.42815841173812e-24 2.4666387049193e-06 -2.71532918637897e-24 2.47172995487719e-06)
(2.31352432569654e-06 -4.00367686099128e-09 -7.08342454571132e-25 2.30220380247521e-06 1.20740782355941e-24 2.30784682517592e-06)
(2.15281842460635e-06 -4.16577322997357e-09 -5.85430050259925e-26 2.14077558606153e-06 -2.10003018431163e-27 2.14677619215238e-06)
(1.99789532963839e-06 -4.19978954744659e-09 9.68451641585315e-27 1.98544881707629e-06 2.68429263541986e-26 1.99164863637209e-06)
(1.8517089398125e-06 -4.13819480851012e-09 -2.08177637964122e-25 1.83909976889128e-06 3.25322135366345e-25 1.8453789442743e-06)
(1.71868081097421e-06 -4.01860192954415e-09 -1.15722503384837e-25 1.70605448315358e-06 2.688575366526e-25 1.7123405750797e-06)
(1.60862362762103e-06 -3.90071395137566e-09 -3.69665942958179e-25 1.59595520960958e-06 7.00268487200646e-25 1.60226017476863e-06)
(1.51858476426143e-06 -3.85731216257716e-09 -3.53869818190371e-25 1.50576266559303e-06 5.67810898881564e-25 1.51214112368188e-06)
(1.42930398352014e-06 -3.86404662261966e-09 4.07134719132163e-25 1.41649506199275e-06 -5.94435500232595e-25 1.42286527081629e-06)
(1.34375190883261e-06 -3.91406690503205e-09 1.42496070064386e-26 1.33116970995321e-06 3.07636947111435e-29 1.33742591648042e-06)
(1.26290515372664e-06 -4.01216016682283e-09 9.71378910703615e-26 1.25074428902555e-06 -1.88561873138136e-25 1.25679056464022e-06)
(1.19127694884855e-06 -4.18077753010818e-09 2.26330975787716e-26 1.17966386572659e-06 9.00023936814821e-26 1.18543751309793e-06)
(1.12598710803782e-06 -4.41238538005182e-09 4.25822375034139e-27 1.11509138348718e-06 -1.35562602988588e-28 1.12050870123903e-06)
(1.06400111430159e-06 -4.70060505868231e-09 -5.58597655730171e-28 1.05405300521509e-06 2.71319790992292e-29 1.05899953919666e-06)
(9.90686485874755e-07 -4.91609813624927e-09 2.05852096393275e-26 9.82156891361469e-07 1.69744308935863e-26 9.86399270017557e-07)
(8.92018919650117e-07 -4.86841027540646e-09 2.14400789477739e-26 8.85505621204893e-07 8.92426309754009e-27 8.88746339061853e-07)
(7.63098729600962e-07 -4.20950598738585e-09 -1.79827697591583e-26 7.59107582788404e-07 -2.2312305306553e-27 7.61096184641543e-07)
(6.35444010793592e-07 -3.18148014900656e-09 -6.15847164250035e-28 6.33442147472455e-07 4.55794020235231e-27 6.34440880619786e-07)
(5.26631481595682e-07 -2.23795042793333e-09 -1.91179533955104e-28 5.25774591716745e-07 2.22591619675503e-27 5.2620301862851e-07)
(4.42895023283642e-07 -1.56585955545928e-09 8.15345991748179e-28 4.4258324062549e-07 -1.03922570966599e-27 4.42739264946333e-07)
(3.78709134231993e-07 -1.06938692602142e-09 -8.79107563115322e-30 3.78648057826785e-07 -1.45505764234483e-28 3.78679053235832e-07)
(3.57950069021039e-07 -8.42581092971954e-10 3.04320481757543e-45 3.57946685968717e-07 -2.12125126940196e-32 3.57948376947944e-07)
(3.62367830829351e-07 -8.61304896716224e-10 -0 3.62369450678394e-07 2.14890420286801e-32 3.62368640573112e-07)
(1.2104202304181e-05 -1.81927268372459e-07 -9.72604656348076e-32 1.21056140725953e-05 -0 1.21049239905356e-05)
(1.25538361196063e-05 -1.9963366004636e-07 -3.14199221525159e-29 1.25560689744304e-05 -5.63647932060689e-31 1.25549644670544e-05)
(1.19845238595397e-05 -2.05773997401283e-07 4.97338716345092e-26 1.19947743913181e-05 1.49280026119987e-27 1.19896110043931e-05)
(1.01323804905817e-05 -1.67364675272115e-07 6.70988005711274e-28 1.01608472570112e-05 4.18626729756719e-27 1.01466325617994e-05)
(7.84877585564128e-06 -1.05544225924151e-07 -3.74764690738162e-24 7.88322768865836e-06 -3.84461775419285e-23 7.86600300722823e-06)
(5.27918467799559e-06 -4.52349322808356e-08 -1.81044325405352e-23 5.30259237395913e-06 -1.18480336976906e-22 5.29096144451735e-06)
(2.98196694709902e-06 -7.83506526136644e-09 -1.32142606582016e-27 2.9866562278262e-06 -6.1131347687865e-29 2.98437573603582e-06)
(1.43913220882811e-06 2.4234835753724e-09 6.20974557872821e-27 1.43503943670612e-06 3.17120608337752e-28 1.43712106496609e-06)
(7.82631218397839e-07 2.43315375363722e-09 7.52508604396773e-26 7.78242863817008e-07 1.59291323108649e-25 7.80452291246302e-07)
(6.47820262728649e-07 1.94797753879764e-09 -3.08961808414859e-27 6.43670362968973e-07 -1.25930279379742e-28 6.4575663664119e-07)
(5.80917844596728e-07 1.58984248472692e-09 3.75816366922748e-26 5.76996363203448e-07 7.82821471697032e-26 5.7896584464244e-07)
(4.66622466330135e-07 1.12219726401484e-09 -5.27109681248314e-30 4.63523830675085e-07 -1.39019538896167e-29 4.65079479108982e-07)
(3.58430147215221e-07 7.73323061700285e-10 8.17407583565608e-27 3.56099098504508e-07 1.02546953309587e-28 3.57268628357882e-07)
(2.90355571165633e-07 5.79556933612419e-10 1.3977094236698e-25 2.88494721945314e-07 2.31644010716955e-25 2.89427953584951e-07)
(2.61328311143714e-07 5.09675937937574e-10 -2.7213000989979e-25 2.59630692801195e-07 -4.83126293516821e-25 2.60481659897138e-07)
(2.57870864900034e-07 5.13295881100854e-10 -1.15158427476128e-25 2.56148837428573e-07 -2.03011379443598e-25 2.5701178969342e-07)
(2.69883851159024e-07 5.70100115858765e-10 -7.59930419091876e-26 2.68009679797544e-07 -1.57496768324584e-25 2.68948501752469e-07)
(2.92939049295642e-07 6.70383368149265e-10 -1.24384866791662e-25 2.90799724771211e-07 -2.96704510194731e-25 2.91871137808479e-07)
(3.25617828027942e-07 8.14453541535031e-10 -1.90710263593715e-25 3.23090241947732e-07 -3.68557339835506e-25 3.24355774891819e-07)
(3.66137280201779e-07 1.00022524480654e-09 3.47106713235786e-27 3.63110589203724e-07 -1.29823056638467e-28 3.64625759871024e-07)
(4.14817955172129e-07 1.23730822984384e-09 5.34607798168793e-25 4.1115421165311e-07 9.74862213759504e-25 4.12987912845024e-07)
(4.73696901017022e-07 1.54070916411694e-09 -8.46180536070377e-26 4.69215121798581e-07 3.46152184099897e-27 4.71457831191786e-07)
(5.46389803557099e-07 1.93974111255886e-09 -9.92002805613539e-26 5.40822617901789e-07 -1.77939108766041e-26 5.43607897611216e-07)
(6.38142430563692e-07 2.47895512982585e-09 1.65763288845376e-24 6.31091546211439e-07 3.08570563406133e-24 6.34618420346289e-07)
(7.55588064309902e-07 3.22648292815512e-09 -6.68171132367719e-25 7.46461115422291e-07 -1.4799137799549e-24 7.51026019152831e-07)
(9.05343377892516e-07 4.26092570569372e-09 -8.59936449878699e-25 8.93348530125767e-07 -1.31257155433461e-24 8.99347169796066e-07)
(1.0933323929745e-06 5.71021881339477e-09 1.63613462683782e-25 1.077461150072e-06 -7.47448009880241e-27 1.08539771494695e-06)
(1.32968426996261e-06 7.78679474703202e-09 -8.63958683491388e-28 1.30854680235779e-06 -1.56096107890156e-27 1.3191161065784e-06)
(1.62673437261911e-06 1.07846345095462e-08 5.80352400559213e-28 1.59847573291046e-06 1.38466379875343e-27 1.6126053288684e-06)
(1.99649656470829e-06 1.50954311467157e-08 6.87221706681325e-25 1.95878129769477e-06 1.9293611491616e-24 1.97763926683278e-06)
(2.45042699571912e-06 2.12282180035766e-08 -1.63576877186652e-24 2.40049525532457e-06 -2.61137320050964e-24 2.42546195627904e-06)
(2.99834446461772e-06 2.981572423741e-08 2.10694314768883e-24 2.93319556896606e-06 4.88029746642597e-24 2.96577250786797e-06)
(3.64792712287775e-06 4.16097830178921e-08 4.7032572787325e-24 3.56462602684213e-06 1.09336300499194e-23 3.60627851087154e-06)
(4.40716756235658e-06 5.75920813818446e-08 -3.14747011977868e-24 4.30299512841712e-06 -8.3423067470226e-24 4.35507916931765e-06)
(5.29430293472509e-06 7.9089223795473e-08 3.69680344329821e-24 5.1664967104937e-06 1.06989411644608e-23 5.23039698946008e-06)
(6.32800779275745e-06 1.0738311473022e-07 2.127784205602e-28 6.17429281198832e-06 -2.94099818285465e-28 6.2511438083128e-06)
(7.50335422241917e-06 1.43299476617854e-07 -1.43220798658494e-24 7.32354151897185e-06 7.77390914039189e-26 7.41343967882714e-06)
(8.80734255989183e-06 1.87309677332183e-07 -5.54275995597157e-22 8.6040390529515e-06 1.50336206647064e-23 8.70567799323575e-06)
(1.02177730424437e-05 2.39240111846724e-07 -1.24451444861614e-21 9.99713286865751e-06 -5.11830843657693e-22 1.01074313202771e-05)
(1.17012218305643e-05 2.98118944214731e-07 9.35527648079817e-23 1.14732958225952e-05 -7.43015207039194e-22 1.158722426156e-05)
(1.32160621507113e-05 3.62247719610807e-07 9.12988994368661e-22 1.29944665456036e-05 -4.61900025666302e-23 1.3105191753718e-05)
(1.47220439579848e-05 4.29916223319704e-07 -1.68901930126669e-24 1.45228444387303e-05 9.17411892936527e-26 1.46223418978327e-05)
(1.62196881476497e-05 5.0103285055045e-07 -6.2315615997745e-25 1.60597219103783e-05 -8.39306613628525e-24 1.61396929583937e-05)
(1.78058214775159e-05 5.84316786755225e-07 -4.85125440044039e-27 1.76951674278362e-05 2.12315272164622e-27 1.77496644585015e-05)
(1.98719037931011e-05 7.11337908913627e-07 -1.94303074069054e-21 1.98133645607766e-05 7.34763141411135e-23 1.98427086362086e-05)
(2.34991040844302e-05 9.24168329974691e-07 -4.71888643542923e-21 2.3453767086746e-05 8.33693778547364e-21 2.34757077105257e-05)
(2.72442339251047e-05 1.14138610798673e-06 -3.40652590076734e-22 2.7205527690987e-05 9.27190062026377e-21 2.72242800793751e-05)
(3.06714223263521e-05 1.34462213952314e-06 3.03195974760455e-21 3.06382952827409e-05 -1.01011681032105e-22 3.06541566206926e-05)
(3.38263907927493e-05 1.5325190777306e-06 -5.61683534059679e-28 3.37980394904791e-05 9.1998351974805e-26 3.38115474703418e-05)
(3.67822270470687e-05 1.7081617011855e-06 9.69782278075336e-27 3.67580227636889e-05 -1.10425914006817e-25 3.67694369767064e-05)
(3.9559543752068e-05 1.87131544647305e-06 -1.00423666448611e-26 3.95391368460303e-05 1.150443953324e-26 3.95486873827365e-05)
(4.21868857257534e-05 2.02301735627183e-06 -8.20025074871547e-28 4.21700048833562e-05 -2.53170087083312e-27 4.21778213062982e-05)
(4.46738521207068e-05 2.16311429211874e-06 1.25228662235229e-26 4.46603464897919e-05 -1.06391666612956e-26 4.46665313092285e-05)
(4.70314730667282e-05 2.29180688727542e-06 -9.39521522699436e-27 4.70212370470699e-05 1.37439112478031e-26 4.7025851703767e-05)
(4.92648745006108e-05 2.40895599017611e-06 -3.76824687831395e-28 4.92578484539041e-05 -1.5487034132564e-27 4.92609408381064e-05)
(5.13798194023602e-05 2.5145728928243e-06 7.52572405589901e-27 5.13759628460522e-05 -6.23941308576463e-27 5.1377564660692e-05)
(5.33842075788416e-05 2.60880704923759e-06 -1.7273578538834e-27 5.33834890348794e-05 8.03101019531618e-27 5.3383628546804e-05)
(5.52871093796656e-05 2.69196136021217e-06 8.77900685569646e-29 5.52894908636506e-05 9.12961899410664e-28 5.52881975394728e-05)
(5.70423183318705e-05 2.76173853108673e-06 -4.3182841383678e-27 5.70477400185423e-05 1.09860781198609e-26 5.70450548343408e-05)
(5.86272142713745e-05 2.8171435253396e-06 -2.77470666115775e-21 5.86355776250602e-05 -1.22336849749456e-26 5.86315581461848e-05)
(6.00353989396834e-05 2.85811174628536e-06 -4.77760989814105e-21 6.00465588201799e-05 -2.66775982304815e-20 6.00412838904088e-05)
(6.12610488670409e-05 2.88476261129703e-06 1.00378705629384e-21 6.12748057144076e-05 -2.77896294093787e-20 6.1268378921368e-05)
(6.23002151817326e-05 2.89746277946616e-06 3.01634374844448e-21 6.23163080631821e-05 1.54602175915458e-23 6.23088612691075e-05)
(6.31521385017981e-05 2.89688533158471e-06 -5.44645037036486e-27 6.31702399860087e-05 -5.58313739174148e-29 6.31619359356174e-05)
(6.38208741531315e-05 2.88406882462223e-06 8.73168184395984e-28 6.38405886697638e-05 -2.3577890487348e-27 6.38316215425158e-05)
(6.43170395444275e-05 2.86046716237291e-06 1.022457582086e-26 6.43379040940096e-05 2.52201919288986e-27 6.432850055284e-05)
(6.46607874529279e-05 2.82803353024718e-06 -5.58646757449231e-27 6.46822826448236e-05 2.43692533230738e-26 6.46726946640012e-05)
(6.48836159238777e-05 2.78922412755601e-06 -3.50453027675652e-37 6.49051778386672e-05 -1.30643038380183e-25 6.48956824795647e-05)
(6.50344765047111e-05 2.7471569035385e-06 -5.34919560966423e-37 6.50555419260706e-05 1.06160707549744e-25 6.5046410987108e-05)
(6.51795440418224e-05 2.70544251422517e-06 5.43933454085648e-37 6.51995880481617e-05 1.10389533380812e-25 6.51910896584326e-05)
(6.54181240819481e-05 2.66861352831176e-06 5.34009608605151e-37 6.54368550580577e-05 -5.0467027422285e-25 6.54291199795591e-05)
(6.58658537970131e-05 2.64092423663698e-06 3.98110623322882e-21 6.58834662238552e-05 1.2323177456234e-22 6.58764860631128e-05)
(6.6704186330433e-05 2.6277329121913e-06 5.90321117735656e-21 6.67220257090068e-05 3.77398416804903e-20 6.6714957745713e-05)
(6.80253227789861e-05 2.62670384122212e-06 -2.31346856022266e-21 6.80487757367042e-05 3.87066024679012e-20 6.8039307471277e-05)
(6.98117349558749e-05 2.6182787251629e-06 -4.32532817483259e-21 6.98606336969787e-05 -1.55197838016698e-22 6.98399326241356e-05)
(7.05341814761541e-05 2.5313067743323e-06 -4.25195676539562e-24 7.06847197235758e-05 8.29018229147188e-24 7.06097400348077e-05)
(6.73193373465554e-05 2.30523825466634e-06 -4.0064207697737e-24 6.77451153800133e-05 3.92821033795022e-23 6.75331080380837e-05)
(6.66160857653761e-05 2.19662281647131e-06 -1.1418265606133e-23 6.73166697339521e-05 -1.44072496318269e-25 6.69655826543233e-05)
(6.80061102077585e-05 2.1494139997788e-06 5.7792522912191e-21 6.89995863033689e-05 4.45357428606461e-22 6.85011163958014e-05)
(7.02617503640326e-05 2.11145769712515e-06 -1.23201767032423e-22 7.15506493890578e-05 5.53445115231047e-20 7.09034175194864e-05)
(7.3035702677242e-05 2.06283476306995e-06 -1.42356125721307e-20 7.46119948416064e-05 5.57531672946967e-20 7.38199942424217e-05)
(7.60249547048918e-05 1.99086972769792e-06 -6.28963759542101e-21 7.78643049662198e-05 3.82313284443789e-23 7.69396854932676e-05)
(7.90903614804533e-05 1.89065065838928e-06 1.07422721313519e-22 8.11532140269559e-05 -3.58496854099986e-22 8.01157292372789e-05)
(8.20930389724471e-05 1.76006705227324e-06 -1.53427474452204e-25 8.43237094476992e-05 4.38043312736398e-25 8.32012715953825e-05)
(8.49591797367918e-05 1.60096798945844e-06 1.64950417235804e-22 8.72888062658766e-05 -3.62121311859625e-22 8.6115924712667e-05)
(8.76117652127518e-05 1.4172286789911e-06 -2.35217475598634e-23 8.99603222992463e-05 1.81488185502449e-23 8.87771650318194e-05)
(9.0099861862642e-05 1.21641306580162e-06 -1.43844767511602e-22 9.23832454534406e-05 3.79666478990757e-22 9.12321193105573e-05)
(9.26145784424319e-05 1.00917526338431e-06 1.27094764192282e-22 9.47446651711683e-05 -3.56627154763731e-22 9.36698798961177e-05)
(9.50508819055939e-05 7.98634820746565e-07 8.71472827395399e-23 9.69337722286322e-05 -2.88233184161298e-22 9.59826487613791e-05)
(9.71027483831603e-05 5.85010984193259e-07 -3.30034756216633e-23 9.8645971272324e-05 2.6638139485117e-22 9.78652325474184e-05)
(9.85417091936453e-05 3.71255241878651e-07 1.55146863647342e-20 9.9664283133705e-05 5.88320859096258e-22 9.90948735420474e-05)
(9.91455457488277e-05 1.61851971542449e-07 -5.53647987899416e-20 9.97871597121666e-05 1.46555535083973e-19 9.94596925141618e-05)
(9.87059811089927e-05 -3.85627302869888e-08 -8.03746931661034e-20 9.88326139470764e-05 1.33698747007746e-19 9.87643664714463e-05)
(9.71896434821763e-05 -2.24004543363129e-07 -1.25322777884165e-20 9.68010443188103e-05 -8.17619801068584e-22 9.69923594182291e-05)
(9.45663452614664e-05 -3.89790255126386e-07 1.92759170370496e-26 9.36936740449978e-05 1.39013844927498e-27 9.41288648457672e-05)
(9.05825963552405e-05 -5.25882481629075e-07 -1.23575270542083e-22 8.92982935905505e-05 2.41961076838122e-22 8.99410239108012e-05)
(8.58558115697012e-05 -6.2790268951847e-07 -5.29939186209469e-23 8.42470936213167e-05 -2.42084882893212e-24 8.50532762577219e-05)
(8.07772868692552e-05 -6.97734646551274e-07 -1.82960866574085e-23 7.89256123199575e-05 9.72258497490215e-23 7.98542769017864e-05)
(7.55976740946903e-05 -7.38743114195744e-07 -9.48617883293644e-24 7.35760584073566e-05 9.95737410558461e-23 7.45904244553116e-05)
(7.0473483869287e-05 -7.55395839238869e-07 1.44457014668229e-22 6.83440744732877e-05 -2.74057181594368e-22 6.94128758421085e-05)
(6.55113409810527e-05 -7.52345628776838e-07 -1.0209728774738e-22 6.33252145732831e-05 2.36160221112458e-22 6.44227633904625e-05)
(6.08123342564477e-05 -7.34644751746789e-07 1.88556865243138e-23 5.86085167985592e-05 -6.24707768589022e-23 5.97152012268923e-05)
(5.65271091846169e-05 -7.08362279986045e-07 9.1102983956976e-23 5.43294879395524e-05 -2.12416350355233e-22 5.54333347191689e-05)
(5.29772872380445e-05 -6.82928761476701e-07 1.23146971421998e-22 5.07831970707906e-05 -2.64902747557471e-22 5.18856056864599e-05)
(5.00671469377957e-05 -6.69062745872599e-07 3.39146857636318e-23 4.7861847278589e-05 -1.12022888358601e-22 4.89702779090054e-05)
(4.71715664118511e-05 -6.64686182748019e-07 -1.56777584019992e-22 4.49799666874447e-05 2.89116391371738e-22 4.6081920422213e-05)
(4.43825065086123e-05 -6.69638492740308e-07 -3.49155808915102e-27 4.22355346117553e-05 -1.91549080027917e-27 4.33151657817064e-05)
(4.17331760467269e-05 -6.84114447693958e-07 -1.72847152960776e-23 3.96608735813292e-05 3.48626446823134e-23 4.07030374329972e-05)