/*--------------------------------*- C++ -*----------------------------------*\
  =========                 |
  \\      /  F ield         | OpenFOAM: The Open Source CFD Toolbox
   \\    /   O peration     | Website:  https://openfoam.org
    \\  /    A nd           | Version:  7
     \\/     M anipulation  |
\*---------------------------------------------------------------------------*/
FoamFile
{
    version     2.0;
    format      ascii;
    class       volVectorField;
    location    "20000";
    object      U;
}
// * * * * * * * * * * * * * * * * * * * * * * * * * * * * * * * * * * * * * //

dimensions      [0 1 -1 0 0 0 0];

internalField   nonuniform List<vector> 
15600
(
(0.030138761593842 -8.51483302792762e-06 0)
(0.032730512174791 -1.25935751826435e-05 0)
(0.0363788846579312 -0.000431144411726998 5.9493311928409e-22)
(0.0339974650735444 -0.00159586635146986 -6.93941292751426e-21)
(0.0255465114816673 -0.00239704324366538 -1.04545125635973e-20)
(0.0139377988591877 -0.00221032416646705 0)
(0.000870782059898145 -0.000376844614528698 0)
(-0.00744977391796228 0.00207492690338252 -9.25545176676551e-23)
(-0.00953571318248229 0.00342735483791375 1.70091430451483e-18)
(-0.00880236011503844 0.00370191426233314 0)
(-0.00803378916081679 0.00375271119777512 1.08171905559251e-18)
(-0.00699957461255402 0.00352461838837561 0)
(-0.00616687398249037 0.00327377917783112 0)
(-0.00553011215440701 0.00304260857164468 5.64381044052504e-18)
(-0.00518022062824487 0.00290482326436185 -3.04876438169508e-18)
(-0.00498238929098175 0.00280550525493624 4.96395947272367e-23)
(-0.00490553104158617 0.00273436617469306 -3.53053399733653e-18)
(-0.00492183430308149 0.00270139470064364 -2.32246746957529e-22)
(-0.00501835347660465 0.00271383652997581 2.44038489003706e-22)
(-0.00513636669792825 0.00274149725442317 5.24793653484026e-22)
(-0.00528391235067962 0.00278802215534903 4.5175786591531e-18)
(-0.00545215961676815 0.00284964275135587 0)
(-0.00565835120867305 0.00293522897814458 9.27964393560377e-23)
(-0.00591542886693902 0.00305177081414232 5.24832079843416e-18)
(-0.00624893609409515 0.00321154373874102 1.34698184564213e-21)
(-0.00663553331799117 0.00339951628564057 -5.7336046966455e-18)
(-0.00706300277371056 0.00359082491897559 0)
(-0.00756056460181126 0.00378809818135484 0)
(-0.00813546330396088 0.00398738392211375 3.19083500036429e-21)
(-0.00878268747560207 0.00417715098730074 3.38515366601005e-18)
(-0.00948851308091021 0.00434061036591169 -3.52857171021711e-18)
(-0.0102342770191882 0.00445828320714931 0)
(-0.0109906302145958 0.00450722491866576 3.81714084793243e-18)
(-0.0117639040104616 0.0044808934922307 0)
(-0.0126164620545707 0.00440570942218696 -4.03044790786999e-21)
(-0.0135395365108773 0.00428828290850834 -4.09044963061161e-23)
(-0.0144759439816306 0.00410756706094568 4.25433296884305e-21)
(-0.015397200885414 0.00385433339033486 -4.5042453145376e-18)
(-0.016270158068335 0.00352248827034295 -8.68751750038366e-16)
(-0.0170708526978128 0.00311193582134431 -8.95050193333435e-16)
(-0.0177749292238235 0.00262601012389769 4.74464867015396e-21)
(-0.0184156463864534 0.0020788068998953 -4.78316598181029e-21)
(-0.0190187796731352 0.00147655516017334 -1.24953477872571e-18)
(-0.019425358750201 0.00081305439033849 0)
(-0.0215410441717785 0.000224112879236391 -1.53646848774286e-19)
(-0.0250666526472796 7.09965208244517e-05 -7.53808755362318e-16)
(-0.0275528332305569 6.3971758514448e-05 -7.6718019299016e-16)
(-0.0294820368279412 5.73429741962085e-05 0)
(-0.0309701143084556 5.30056095905596e-05 0)
(-0.0321699934251336 4.84331767786271e-05 2.68527985961795e-21)
(-0.0331283886113454 4.43237060514669e-05 -2.68342776674555e-21)
(-0.033902554958269 4.00439906311715e-05 0)
(-0.0345178247049557 3.57715103504038e-05 2.85403488704534e-21)
(-0.0349990658801387 3.13391548907267e-05 -2.8530686522154e-21)
(-0.0353607107122452 2.68018544161017e-05 0)
(-0.0356153928581345 2.21232352577056e-05 1.52245295247954e-21)
(-0.0357718773938485 1.73301294989764e-05 -1.5223085143533e-21)
(-0.0358378182830216 1.24211572022431e-05 0)
(-0.0358194254062744 7.4226397164689e-06 0)
(-0.0357226218677355 2.36107007549052e-06 0)
(-0.0355531467539788 -2.73142961533408e-06 -1.01559487189354e-15)
(-0.0353169761351025 -7.82327724906521e-06 -1.03707505809711e-15)
(-0.0350205201054776 -1.28793928072402e-05 -1.01958096183671e-31)
(-0.034670939966986 -1.78625020698442e-05 0)
(-0.0342763090405461 -2.27373887894865e-05 0)
(-0.0338459194348552 -2.74623096059562e-05 0)
(-0.0333902392417765 -3.20132906106693e-05 -3.83554483145766e-21)
(-0.0329213197892146 -3.63414753242018e-05 -7.27174693502447e-23)
(-0.032451924167222 -4.04706529867263e-05 3.91108201153277e-21)
(-0.0319962706997697 -4.43223234209307e-05 4.05752100855515e-21)
(-0.0315661349074159 -4.80977926611656e-05 -8.19024683426342e-21)
(-0.0311731744845311 -5.15491521194562e-05 8.3378872490365e-21)
(-0.0307930553442428 -5.60171888317661e-05 1.28638213547381e-15)
(-0.0304435765685525 -5.99913792548682e-05 1.30200724018526e-15)
(-0.0299480335091786 -6.73153755943427e-05 0)
(-0.0282815535050516 -0.000270281616053511 2.86322049571698e-19)
(-0.0264044742463627 -0.00107662366377398 0)
(-0.0256198519280168 -0.00191722026264714 -9.26103910811726e-21)
(-0.0250467510389723 -0.00272491312941753 -1.27062838413604e-22)
(-0.0245513872114289 -0.00349728442715925 1.82015043732158e-15)
(-0.02400453804771 -0.00421734867379235 1.80134647021454e-15)
(-0.0233528773758527 -0.00486750490417204 -9.42842829521364e-21)
(-0.0225584435822214 -0.00542824020048407 9.28006811665184e-21)
(-0.0215959348386956 -0.00587870299021201 0)
(-0.0204477421936106 -0.00619851643443488 0)
(-0.0190999628107725 -0.00636668761793404 -9.25084726505917e-21)
(-0.0175645778826043 -0.00636833230587738 9.01858534172987e-21)
(-0.0158366268860748 -0.00616032119624568 -9.04376116711788e-21)
(-0.0138643428238616 -0.00570173771031145 -9.06209682258269e-18)
(-0.0116134205270535 -0.00498388698942447 8.93825064149076e-18)
(-0.00907692463000859 -0.00401303513948889 1.06343636918255e-21)
(-0.00627452779777941 -0.00281098711454217 5.00291064370224e-15)
(-0.0032242701126925 -0.00140495062705961 4.8417320026168e-15)
(2.28321707545004e-05 0.000158973517094543 -1.65961859173917e-17)
(0.00342637424128709 0.00183377270918099 0)
(0.0068393282828478 0.00352826864988781 3.84479096858871e-21)
(0.0101667253771312 0.00520075997535775 8.05920916574836e-24)
(0.0134225919049535 0.00686919743081406 -1.46769111393594e-17)
(0.0166013504011777 0.0085397542469466 -1.40723573637163e-17)
(0.019723380189667 0.010230678165421 0)
(0.0228138833740449 0.0119626503608213 -3.86777673901012e-21)
(0.0259169164084582 0.0137658710240316 1.20041702880655e-17)
(0.0291091498126182 0.0156879350400422 1.1210304061778e-17)
(0.0325880615547601 0.0178372669115126 0)
(0.0367617441665861 0.0203135537497331 -1.40351675545774e-22)
(0.041427472846458 0.0228104819162377 1.69394761905225e-17)
(0.0463606428296383 0.0250852597257976 0)
(0.0515574997987332 0.0270045703134031 6.38838171375197e-18)
(0.0570750248601391 0.0284393118381608 5.27167467469476e-18)
(0.0628180695370156 0.0291463427842993 2.18795463024541e-22)
(0.0686817448004364 0.0288003158216467 -2.10054183453705e-22)
(0.0737542277026585 0.0268220153543437 8.5103488801488e-19)
(0.0767338788438526 0.0227158281216251 2.72661437469457e-19)
(0.0729599547253284 0.016050129625784 2.3551180861038e-19)
(0.0632475055645802 0.00952286192168146 -7.36330726021792e-23)
(0.0521999245784988 0.00485481750477253 3.08450173308014e-23)
(0.04275899753689 0.00205560022991799 -5.98395187062306e-20)
(0.0335707984760991 0.000429802196133793 0)
(0.0277155053123532 9.34507609567861e-06 0)
(0.0284445694143257 -4.57865311043209e-06 0)
(0.0925376665302911 -9.56605180037603e-05 0)
(0.0993297953461616 -0.000144477652148954 0)
(0.10898897086932 -0.00132748068865749 9.16202688934895e-22)
(0.103212395937722 -0.0046259016038096 0)
(0.0805056008513139 -0.00701551608824739 -1.60336697426999e-20)
(0.0475234808116758 -0.00662750400585984 -1.48375093677633e-19)
(0.00888248525511678 -0.0014731494766072 -6.13430736046193e-23)
(-0.0178845597948794 0.00571606058483718 0)
(-0.026120346592733 0.00983961079030063 -1.31130350653811e-18)
(-0.0248983492654939 0.0107583993922951 -1.73669527316599e-22)
(-0.0229395539505316 0.0109559272830356 2.08796155857624e-22)
(-0.0201531420362295 0.0103340028783563 -2.1879216090539e-22)
(-0.0178750710130719 0.00963792474771599 1.24274031412026e-22)
(-0.016129401287945 0.00899430402705759 -4.35523187617416e-18)
(-0.015167806291015 0.00861173406766825 1.21039299155342e-21)
(-0.0146387058456696 0.00833674222730396 1.55896615504531e-22)
(-0.014456419015025 0.00814104036586202 -4.99368647505754e-22)
(-0.0145402708987516 0.00805503478637625 -5.82162394075916e-18)
(-0.0148481786494154 0.0080982398966853 -6.19975737987412e-18)
(-0.0152248929793032 0.00818744759942476 0)
(-0.0156888472975833 0.00833293897079448 -6.94761011237841e-18)
(-0.0162203078978889 0.00852598154663521 0)
(-0.0168666437469251 0.00879257008617378 7.68408478017696e-18)
(-0.0176653985730079 0.00915369845372539 8.04493473587852e-18)
(-0.01867869936148 0.00964070473677346 -8.40430225382841e-18)
(-0.0198474714311462 0.010210640794536 8.76778394456298e-18)
(-0.0211459541999439 0.0107944536336224 -2.21845714100427e-21)
(-0.0226484591694458 0.0113962134477775 -4.66386052787252e-21)
(-0.0243731017535945 0.012001463000038 4.80535470271512e-21)
(-0.0263042363432509 0.0125745279307098 -5.04255435350045e-21)
(-0.0284033776131495 0.0130651900637758 5.34723234857023e-18)
(-0.0306190315966984 0.013415768969248 5.53165992603192e-18)
(-0.0328840101174692 0.0135640005733004 -4.47923115431395e-23)
(-0.0352244408539123 0.0134952896187103 0)
(-0.0377788282017741 0.0132757019027357 0)
(-0.0405109247031645 0.0129179002615499 6.19346557848285e-21)
(-0.0432746663234267 0.0123649743801527 -6.30004295805205e-21)
(-0.0459903740625104 0.0115917719852903 6.64504596934706e-18)
(-0.0485735384457363 0.0105828752277742 2.09998082932923e-15)
(-0.0509643871239064 0.00933989306431198 2.15656088703638e-15)
(-0.0531216389897627 0.00787767587648806 -3.53135096261995e-18)
(-0.0551284775765986 0.006236090770173 7.03888887366979e-21)
(-0.0570653952741876 0.0044362390887983 -7.05792041827606e-21)
(-0.0591681753338442 0.00255717016911997 -7.16698121744247e-21)
(-0.0651987504524614 0.000949570666742309 7.08477651474239e-21)
(-0.07395150293897 0.00047602831725832 2.9418456137365e-15)
(-0.080169924675639 0.000357277510194639 2.96903242132418e-15)
(-0.084955455538747 0.000273219354987067 0)
(-0.0886235949134094 0.000216762432485827 3.71366748226859e-21)
(-0.091543211873574 0.000173214080967761 -3.70230373074469e-21)
(-0.0938426822257227 0.00013967720482163 0)
(-0.0956614367180092 0.000111932366641065 3.91658294325399e-21)
(-0.0970664603862552 8.86395754768262e-05 -3.91047081255096e-21)
(-0.0981197604715351 6.82784809286523e-05 0)
(-0.098859203490102 5.02050528949848e-05 2.08209982332181e-21)
(-0.0993172067785168 3.37951094717195e-05 -2.0809808501273e-21)
(-0.0995172099938553 1.87292711631526e-05 -2.50287253279139e-31)
(-0.0994798153002568 4.73588289633495e-06 -1.11079927479535e-21)
(-0.0992221925632042 -8.29069048783644e-06 1.11066085647013e-21)
(-0.0987608612570784 -2.03983031652321e-05 0)
(-0.0981119886227633 -3.15797721601444e-05 1.41831558948638e-15)
(-0.0972923345522818 -4.17909489907382e-05 1.4501505847688e-15)
(-0.0963197691334382 -5.09423400223427e-05 1.4259800402128e-31)
(-0.0952139692019975 -5.8904675724292e-05 0)
(-0.0939968073094362 -6.55227960227177e-05 2.58269594279944e-21)
(-0.0926928818273107 -7.05919209283201e-05 -2.58613354137498e-21)
(-0.09132945960477 -7.39370047216449e-05 0)
(-0.0899367897592643 -7.52959066578211e-05 0)
(-0.0885463983819731 -7.46500222332492e-05 1.61663196805449e-31)
(-0.0871908387660674 -7.17475703689536e-05 1.6488932359628e-31)
(-0.0858960309448372 -6.7536356305966e-05 -1.68111245778696e-31)
(-0.0846760243588787 -6.23866880117284e-05 0)
(-0.0834810560615054 -6.22922093285899e-05 -1.80850845360224e-15)
(-0.082260458010197 -7.13671019333629e-05 -1.85177906110242e-15)
(-0.0804065081402864 -0.000145341593756208 1.23314982553382e-20)
(-0.0762240403552121 -0.000820736062132668 -4.25272361900725e-23)
(-0.0718408162235039 -0.00305733651817756 1.65716974225199e-18)
(-0.0697275917497182 -0.00536282088211412 0)
(-0.0680325408960549 -0.00761189761184367 6.79065803890598e-18)
(-0.0664438523804889 -0.00975853361530687 -2.58537088576232e-15)
(-0.0646654672670364 -0.011750814380224 -2.62046259928981e-15)
(-0.0625721429724388 -0.0135346995166664 -1.36075101476655e-20)
(-0.0600766627260712 -0.0150553613240347 -1.38300035145919e-17)
(-0.0571218110081869 -0.0162548591024985 -1.34351270691882e-20)
(-0.0536691993570218 -0.0170777509141817 -1.38469233070744e-17)
(-0.0496936749194669 -0.0174673631241272 -1.37739808379447e-17)
(-0.0452164980363442 -0.0173785757159163 0)
(-0.0402191622149681 -0.0166942443767987 -1.36200864857347e-17)
(-0.0345928234631784 -0.0153132462673733 1.35102805824314e-17)
(-0.0282692106593856 -0.0132191395502209 -1.3170584878715e-20)
(-0.0212389645017178 -0.010432741481355 -2.65108226345631e-17)
(-0.013550415980219 -0.00701463589550133 -7.50573406894208e-15)
(-0.00524646814673786 -0.00304002874107828 -7.43739208614261e-15)
(0.00355219934872449 0.00136756433733512 6.20596559126497e-21)
(0.0127480095111632 0.00608194396355468 4.18914982612974e-23)
(0.02198797376955 0.0108660899442196 -5.80253672873727e-21)
(0.0310458106927135 0.0156117435644084 5.62458606228787e-21)
(0.0399432626906602 0.0203636776762478 4.43274777459423e-17)
(0.0486673371399788 0.0251401742009301 0)
(0.0572634554290605 0.0299898849363475 -2.46269476693141e-21)
(0.0657936344561003 0.0349698705083249 -7.20018833894758e-21)
(0.0743680816581009 0.0401628556751376 -1.80955561935482e-17)
(0.0831837536532057 0.0456982984384619 -1.6902308667297e-17)
(0.0927357668655536 0.0518624631172091 -1.56153801362782e-17)
(0.104049203016408 0.0589082306376892 -1.42393102337756e-17)
(0.116771836975002 0.0660336931642901 -1.80662847115397e-20)
(0.130394449284782 0.0725691455976953 0)
(0.144871236526617 0.0781105143894917 0)
(0.16035766477789 0.0822756069078105 -7.97366166856428e-18)
(0.176636159170995 0.0843688547165625 9.17548780983428e-23)
(0.193443632128474 0.0834542241336973 1.00839201597496e-22)
(0.208499360903814 0.0779185996753247 -1.28832520172135e-18)
(0.218346309085103 0.0663687901737505 -4.12953895843281e-19)
(0.211034650830873 0.0475782650091238 -3.56574736004441e-19)
(0.18708951331223 0.0288117285043521 -3.53403760112153e-19)
(0.157610864607666 0.015033479674577 -2.08682676399347e-19)
(0.131184779095543 0.00658497374462546 1.82444408496994e-19)
(0.105255627732601 0.00158211014557788 1.90865786592417e-20)
(0.0880397697585143 0.00010730942471531 2.93981661428744e-24)
(0.0884154642438281 -5.07059200043387e-05 -2.94181237702135e-24)
(0.158343855815526 -0.000252802608127339 0)
(0.168360439449789 -0.000389137692636665 0)
(0.182775824058315 -0.00226420439835281 -9.4003041685483e-22)
(0.174839433935284 -0.00755052703046851 -1.07558491080168e-20)
(0.140384874343664 -0.0116815556278511 4.22205808081128e-17)
(0.0877015507519822 -0.0115193695662205 1.92868792863612e-16)
(0.0236791724206303 -0.00364193309486874 0)
(-0.0237834116626316 0.00817751771229982 -1.47019581875436e-22)
(-0.0404384772321936 0.0153597846688236 1.50907074001758e-22)
(-0.0397847839406929 0.0171510319529516 -1.95074941692052e-22)
(-0.0370032767237363 0.0175917743241131 2.03196460500652e-22)
(-0.0327552689510269 0.016702636485667 2.3652149607385e-22)
(-0.0292236010610198 0.0156722460780399 -1.20237553512876e-22)
(-0.0265049645637343 0.014713270143781 -1.3563134411417e-22)
(-0.0250022475986782 0.0141469034683184 9.73802830577757e-18)
(-0.0241923468759761 0.0137426235564664 5.24074094947391e-18)
(-0.0239428349492232 0.0134595514164289 -1.70314674127456e-22)
(-0.0241233608334587 0.0133502834270979 6.01792801290591e-18)
(-0.0246604067256386 0.0134423200185264 6.40494763700786e-18)
(-0.0253183257711718 0.0136115510770342 -8.22955049728486e-22)
(-0.0261214632067547 0.0138739360555219 -7.16324776685095e-18)
(-0.0270446160982011 0.0142201126827027 2.1142909331844e-23)
(-0.0281619006428106 0.0146921002728165 -1.92033305048103e-21)
(-0.029534090883008 0.015324462413412 -1.65458868082166e-17)
(-0.0312480435056469 0.0161590245459292 8.62947133209438e-18)
(-0.0332176109814873 0.0171280118237388 0)
(-0.0354119360067899 0.0181257952939316 -4.58484916999518e-21)
(-0.0379395351553146 0.0191520134566715 4.71688328521608e-21)
(-0.0408259271164676 0.0201777727106746 0)
(-0.0440438451115457 0.0211415556507925 0)
(-0.0475318409517165 0.0219601655795246 0)
(-0.0512101280578471 0.0225402607183293 -5.58793116627239e-18)
(-0.0549910419216553 0.0227904610471978 -5.76390291249112e-18)
(-0.0589233031115576 0.0226921886680741 5.93983112213289e-18)
(-0.0631805353753952 0.0223318647291954 -6.11659019187373e-18)
(-0.0676901169805689 0.0217211335841001 -6.03036658550946e-23)
(-0.0722380283934751 0.0207771452918636 6.22322793871437e-21)
(-0.076700608505795 0.0194633846154622 0)
(-0.0809572320399953 0.017760153183661 -8.08779123282501e-16)
(-0.0849280962643407 0.0156744940548718 -8.27325435077878e-16)
(-0.0885798458598985 0.0132363633365038 3.37194951195777e-22)
(-0.0920401348400117 0.0105096402928312 -6.80787339089268e-21)
(-0.0955269153679655 0.00755743000285511 6.79632803984202e-21)
(-0.0999004730699759 0.00456269158045002 0)
(-0.109231417726243 0.00203457191103929 -6.76612414462384e-21)
(-0.121433561405668 0.00121953007269463 -1.76380472998651e-15)
(-0.130124885978643 0.000910975692339205 -1.76002370629812e-15)
(-0.136745373447365 0.000693641727608547 0)
(-0.141770082281518 0.000544355205121602 -6.92191947703389e-21)
(-0.145704158265267 0.000430275414765376 1.03903172956552e-20)
(-0.148741238538082 0.000341405692040696 -3.49121304059823e-21)
(-0.151074066302675 0.000268052534359189 0)
(-0.152801520931564 0.000206144907797067 3.68801460849427e-21)
(-0.154011351047135 0.00015208335881608 -3.67715577661259e-21)
(-0.154759467353928 0.00010403673819585 0)
(-0.155093019618772 6.04648928096426e-05 1.95451685219636e-21)
(-0.15504720807336 2.0508930526938e-05 -1.95163685472302e-21)
(-0.154653172476074 -1.64152810555461e-05 0)
(-0.153938242812461 -5.05645761048168e-05 -5.19296396141544e-22)
(-0.152928612213646 -8.20741518471669e-05 5.1881725919028e-22)
(-0.151649686130304 -0.000110926757485834 5.41292220327555e-22)
(-0.15012766037911 -0.000136998036894966 -5.41306109202752e-22)
(-0.148390209011697 -0.000160054211262026 0)
(-0.146467328729143 -0.00017976759803768 0)
(-0.144391790727572 -0.000195750180235016 0)
(-0.142199607579276 -0.000207521569404335 0)
(-0.139929799461871 -0.000214673890227027 -4.91629307967165e-21)
(-0.137624151397104 -0.000216689638337766 4.92673953595971e-21)
(-0.135324751614994 -0.000213603235167323 0)
(-0.133071827240494 -0.000205257343581922 0)
(-0.130893282181069 -0.000194242208741403 1.06692820124146e-20)
(-0.128791823281873 -0.000182761565518334 -2.15669926505072e-20)
(-0.12668758067973 -0.000187326405899486 1.08920919691813e-20)
(-0.124406832360622 -0.000232109483001775 0)
(-0.121092714203063 -0.000429889596218953 0)
(-0.115213866295801 -0.00155691860238167 -5.78012518605133e-23)
(-0.109378125446627 -0.00488923550887017 -1.51026911292173e-18)
(-0.106135380506778 -0.00832716204139636 -2.42320280185266e-20)
(-0.103320461681775 -0.0117104126053076 -6.26380765125639e-18)
(-0.100538622589208 -0.0149224376171693 6.32755278075002e-18)
(-0.0974138764392835 -0.0178777741864 -6.58333731870967e-25)
(-0.0937851044353693 -0.0204890892876104 -1.27866558825743e-17)
(-0.0895405963471703 -0.022674296430854 1.28394733489999e-17)
(-0.0846080530651258 -0.0243476410944827 -1.2465983592505e-20)
(-0.078939064788559 -0.0254288004448296 1.28730579944211e-17)
(-0.0725045366986019 -0.0258356199699925 -2.12102597042034e-21)
(-0.0653190300844359 -0.0254959847898201 -1.28717246080792e-17)
(-0.0573430465850592 -0.0242400593263033 1.28449576757428e-17)
(-0.0484422545766238 -0.0219362683545743 0)
(-0.0385374601190057 -0.0185724980812882 -1.25622413888429e-20)
(-0.0276193895828038 -0.0141854969493812 1.27340020739687e-17)
(-0.0157519779709605 -0.00886567900319317 -1.26608502848646e-17)
(-0.00298969378706882 -0.0027245427640149 0)
(0.0105053331439847 0.00406130913501187 -1.2308182403698e-17)
(0.0245982422696303 0.0113094497740143 0)
(0.0388042791429477 0.0186939616891877 -1.16390064983906e-17)
(0.0528097786435967 0.0260658774440496 0)
(0.0666273214130585 0.0334829649215151 -2.17971252199912e-17)
(0.0802378208671481 0.040973357855676 -2.09617722972828e-17)
(0.0936987264642774 0.048605729682832 2.00595209463446e-17)
(0.107096828963533 0.0564636838099646 -1.90916253220468e-17)
(0.120590364723667 0.0646677155740466 1.80426908105751e-17)
(0.134469477006833 0.0734048915402745 3.37942807134837e-17)
(0.149449247518438 0.0830764266257168 3.12963785208869e-17)
(0.167009941704705 0.0940089964048265 1.4304674200486e-17)
(0.186821060515509 0.105084065380291 -2.56934644842344e-17)
(0.208211821239789 0.115309670385868 3.28569003294443e-22)
(0.231068879167177 0.124019264293432 -3.12255135390477e-22)
(0.255615657097676 0.130587844830931 0)
(0.28155352973992 0.133936032528322 0)
(0.308496440153481 0.13259075671156 2.21840257818296e-18)
(0.333186369234368 0.124129693228165 0)
(0.350480367959725 0.106402997741752 0)
(0.343061450948905 0.0775798943799559 0)
(0.309746705120373 0.048147422470796 5.28058690068521e-22)
(0.265507532017727 0.0258207263415318 2.12246219875597e-19)
(0.224007603322622 0.0117133107358825 -1.85734913224322e-19)
(0.182877215508176 0.00315468286375462 -1.95958662273634e-20)
(0.154591985947187 0.000359054584333241 3.01256510979321e-24)
(0.152822772697298 -0.000104513114059991 -3.01880077320711e-24)
(0.227713554329408 -0.000463045052778844 0)
(0.239893261383676 -0.000731247314641333 0)
(0.257728690160535 -0.00324456782560832 0)
(0.24866458436491 -0.0103879721325943 1.09551649734391e-20)
(0.205061465690886 -0.0163603794878311 -4.26803039945209e-17)
(0.134743159425682 -0.0168142938075755 -1.96588287442994e-16)
(0.0458865219006982 -0.00680143568996633 -6.43163390523122e-23)
(-0.0244729900309995 0.00948797085310622 -1.51075431805384e-22)
(-0.0520901361518878 0.0199980053006404 3.34714317046968e-22)
(-0.0532216915979964 0.0228722113531136 1.59110248190472e-18)
(-0.0500538807426093 0.0236534065621542 1.78221052281098e-18)
(-0.0446761521095251 0.0226227479737016 4.78502091042571e-22)
(-0.0401136193094733 0.0213701961912146 -1.24320829287397e-22)
(-0.0365798361312517 0.0201927295303856 -1.04320113236986e-22)
(-0.0346207559034829 0.0195047956002003 -5.03717872010051e-18)
(-0.0335899001616674 0.0190182848011364 -5.4192080749674e-18)
(-0.0333177843999923 0.0186854575616737 -5.81519552892514e-18)
(-0.0336284216372559 0.018582327705876 7.63655343026847e-22)
(-0.0344151009482292 0.0187414557034262 -8.0066628449677e-22)
(-0.0353784275470602 0.0190086807600208 0)
(-0.0365448252317783 0.0194054785703105 7.37655085960691e-18)
(-0.037888759460795 0.0199255743896379 1.90340335156434e-21)
(-0.0395074677534518 0.0206259942858442 -1.97172028469454e-21)
(-0.0414823559008015 0.0215535727049138 4.24065066876769e-18)
(-0.043913919718516 0.0227532098103001 4.33318053176677e-21)
(-0.0466971877656968 0.0241356102321006 -4.4559364452632e-21)
(-0.0498032692753546 0.0255644065664606 0)
(-0.0533636459516473 0.0270291969764325 4.92453896742624e-18)
(-0.0574066255042974 0.0284827073955726 0)
(-0.0618916449923277 0.0298359910850119 0)
(-0.0667356983299293 0.0309736624337487 0)
(-0.0718361501664915 0.0317704788465977 5.57049830987826e-18)
(-0.0770978504090189 0.0321144690284213 -5.54955165040102e-21)
(-0.0825854341150351 0.0319825428322118 -5.8443868157848e-18)
(-0.0884693249607402 0.0314656425900593 -3.59370187443294e-15)
(-0.0946338173473654 0.0305718350687611 -3.72680176960448e-15)
(-0.100815892849917 0.0292024597698163 6.14231736337317e-18)
(-0.106858049986677 0.0273165157827479 0)
(-0.112620817045207 0.0248969984215674 0)
(-0.118023843354386 0.0219622454911811 -6.20207979444943e-21)
(-0.123062211624063 0.0185615309669675 3.18405024884125e-18)
(-0.127922306435833 0.0147882898049138 0)
(-0.133003993265208 0.0107681460838626 0)
(-0.139540650758262 0.0067627904555295 0)
(-0.15095801291034 0.00338174127927672 -1.92417106808945e-19)
(-0.164602766167129 0.0022010260217553 5.9621861471288e-21)
(-0.174225179348063 0.00163695914789607 8.79833408226457e-23)
(-0.181427969219834 0.00124033813255528 -5.83877870184095e-21)
(-0.186776760581932 0.000963780687029548 0)
(-0.19083980195051 0.000752618249775395 0)
(-0.19385062386549 0.000586493901858635 0)
(-0.196027973400135 0.000448967646105528 3.0579859200387e-21)
(-0.197490307542719 0.000332164331681627 -3.02977751750805e-21)
(-0.198339758287015 0.000229876265482809 0)
(-0.198643882255411 0.000138633005346965 1.5912418987885e-21)
(-0.198459061581774 5.57336112316159e-05 3.50522028355717e-23)
(-0.197828301941949 -2.01983635030993e-05 -1.60531249317064e-21)
(-0.196792861499493 -9.00833720371683e-05 0)
(-0.195388694404086 -0.000154480624732174 0)
(-0.19364894668108 -0.000213635848463355 0)
(-0.191605941038449 -0.000267513248716858 4.38469243832513e-22)
(-0.189292629198143 -0.000315878497229986 -4.37261644746699e-22)
(-0.186743298166496 -0.000358316471640727 0)
(-0.183994340928338 -0.000394263811966173 0)
(-0.181084567750017 -0.000423073613379943 0)
(-0.178055398626139 -0.000443991888232676 0)
(-0.174950201912046 -0.000456431115610493 3.93890350425659e-21)
(-0.17181336155474 -0.000459764934496745 -7.96414984236598e-21)
(-0.168686785512144 -0.000454376817195326 -7.4667195002672e-23)
(-0.165606124214125 -0.000440783405978974 4.10902895968676e-21)
(-0.162587660102617 -0.000424255316970726 0)
(-0.159612108509691 -0.000410926253781722 0)
(-0.156562473119146 -0.000432530539113993 0)
(-0.153195154536402 -0.000539453044920069 0)
(-0.14869804899322 -0.000879462047067692 0)
(-0.142005780581673 -0.00233709959146997 -6.75417723533268e-23)
(-0.135646039202639 -0.00636776765624121 1.20151814060872e-18)
(-0.131510771772005 -0.0105449999814112 2.47210494843192e-18)
(-0.127631414462833 -0.014680243756209 -4.97519368487397e-18)
(-0.123648810119001 -0.0185785964986116 -1.02743287534483e-20)
(-0.119190052697554 -0.0221293078294651 1.00834538923093e-17)
(-0.114097215843732 -0.0252208095406688 1.01091234348929e-17)
(-0.108256580541258 -0.0277550866699672 1.01302262182519e-17)
(-0.101594489746961 -0.0296303936622253 1.01542111999582e-17)
(-0.0940577587943949 -0.0307523081419217 -1.01703289105365e-17)
(-0.0856116461018111 -0.0310223869719322 2.04142305082119e-17)
(-0.0762477223114465 -0.0303472350583398 1.02528246714367e-17)
(-0.0658992818559061 -0.0285251862526136 -9.95644773061905e-21)
(-0.0544295024652773 -0.0254156471192704 1.0301513909582e-17)
(-0.0417615030365636 -0.0210144771480321 1.01651271826059e-20)
(-0.0278799736655794 -0.015367798841855 -1.00646053349358e-20)
(-0.0128448840076236 -0.0085808315173027 0)
(0.00329745760362257 -0.000782332884199244 -1.02171489512672e-20)
(0.0203787302099187 0.00782650607237122 9.85851566714739e-21)
(0.0382533688988052 0.0170346381294193 -9.93049714686595e-21)
(0.0563889259986145 0.0264843326893069 1.00085042997293e-17)
(0.0744256797052016 0.036009427765261 0)
(0.0923519005605614 0.0456677372362847 4.70720858977416e-21)
(0.110136058375148 0.0554911620463523 -3.87731313002655e-21)
(0.127830011013649 0.0655567072794283 -1.8298868663281e-17)
(0.145526038263587 0.0759621003365918 0)
(0.16340486618079 0.0868488873537733 0)
(0.181813213641856 0.0984358230308505 -1.0137483211707e-20)
(0.201597056862705 0.111178085513553 -1.4977714682664e-17)
(0.224532314204855 0.125406124868338 -1.37832209062419e-17)
(0.250450174271563 0.139823297917398 1.24949222262587e-17)
(0.278645270532423 0.153218346192071 -8.7733494913356e-23)
(0.308941851224618 0.16468683366651 0)
(0.341598072438627 0.173369130371959 0)
(0.376269906094376 0.177858995178729 0)
(0.412485642461464 0.176217258754796 -2.21257934461757e-18)
(0.446370272184852 0.165405138668278 3.13570292727006e-22)
(0.471587642933207 0.142669234569066 -9.94558643883804e-23)
(0.467247166327806 0.105740031435541 -6.86848990773717e-23)
(0.42951158958623 0.0672419865697766 3.59537819896141e-19)
(0.374742083267303 0.0370671463452551 -4.6951913461791e-23)
(0.320658881457674 0.0173942277701121 9.3697344533557e-20)
(0.266228746327011 0.00513744182603052 -1.97184594516486e-20)
(0.227466753541949 0.000793043408388213 0)
(0.221946884232592 -0.000136076472585144 0)
(0.300382077608166 -0.000697895116605331 4.43009561508191e-25)
(0.31357538628503 -0.0011422641276003 -4.40983607453336e-25)
(0.333464576221041 -0.0042599994886583 0)
(0.324058554432475 -0.0131464236823656 -5.79517243170318e-25)
(0.273958879837542 -0.0210303183332136 -3.41432953434217e-20)
(0.188592830916383 -0.0224791054336332 2.32392947658754e-23)
(0.0760111894368922 -0.0109508173734694 0)
(-0.0192125882932258 0.00958015654227157 0)
(-0.0606211992746696 0.0237007257469347 -1.43766979318161e-18)
(-0.0649499306659226 0.0278730028638353 -1.64364076987587e-18)
(-0.061919685036061 0.0291002764558086 -1.84145569608817e-18)
(-0.0557889637079815 0.0280613024005844 2.02805562337708e-18)
(-0.0504506797591344 0.0267055176376289 -4.43831433835543e-18)
(-0.0462801409369033 0.0254100273992329 -4.81732744086761e-18)
(-0.0439631148587045 0.0246658364126622 3.92441509494819e-23)
(-0.0427792889907237 0.0241463580398267 5.59393009534199e-18)
(-0.042533980774807 0.0238026102512796 5.99922490556811e-18)
(-0.0430102850144007 0.0237350569608575 7.86801677036085e-22)
(-0.0440680585237289 0.0239796429183269 -8.23873771640644e-22)
(-0.045360123137695 0.0243622090963374 -7.18737947752776e-18)
(-0.0469120836944984 0.0249099621880665 7.56900681528178e-18)
(-0.0487021805792075 0.0256227792280915 0)
(-0.0508466252577197 0.0265712684311914 2.03671994056696e-21)
(-0.0534430887555698 0.0278120819235606 4.31868405395584e-18)
(-0.0565957210134326 0.0293869564938958 4.40088937529185e-21)