/*--------------------------------*- C++ -*----------------------------------*\
  =========                 |
  \\      /  F ield         | OpenFOAM: The Open Source CFD Toolbox
   \\    /   O peration     | Website:  https://openfoam.org
    \\  /    A nd           | Version:  7
     \\/     M anipulation  |
\*---------------------------------------------------------------------------*/
FoamFile
{
    version     2.0;
    format      ascii;
    class       volScalarField;
    location    "20000";
    object      walldist;
}
// * * * * * * * * * * * * * * * * * * * * * * * * * * * * * * * * * * * * * //

dimensions      [0 1 0 0 0 0 0];

internalField   nonuniform List<scalar> 
15600
(
0.000782199671734096
0.000782199671734096
0.000782742414780572
0.00078499686986442
0.000790288603010502
0.000798323301208584
0.000808848151167554
0.000822436042369548
0.000843183354355013
0.00087206952384731
0.000908601050488136
0.000952064660919084
0.00100145213400996
0.00105606996708905
0.00111542993214373
0.00117909619320079
0.00124649798529726
0.001314785222681
0.00138190596509782
0.00144784703159948
0.00151265438225574
0.00157637936195791
0.00163907782308154
0.00170080909861794
0.00176163472581827
0.00182193439701876
0.00188352485534941
0.00194687906836219
0.00201175977315455
0.00207788872469084
0.00214492598946654
0.00221244489993938
0.00227989739643432
0.00234655059040074
0.00241066694465772
0.00247044506639236
0.00252535477429299
0.00257493923885684
0.00261874251705792
0.00265631704085244
0.00268723904956857
0.00271112008974743
0.00272762367024416
0.00273647705043746
0.0027379125019166
0.00273769885106134
0.00273769885106138
0.00273769885106144
0.00273769885106139
0.00273769885106138
0.00273769885106138
0.00273769885106134
0.00273769885106132
0.00273769885106132
0.00273769885106128
0.00273769885106141
0.00273769885106141
0.00273769885106128
0.00273769885106147
0.00273769885106134
0.0027376988510614
0.00273769885106141
0.00273769885106128
0.00273769885106141
0.00273769885106152
0.0027376988510614
0.00273769885106138
0.00273769885106143
0.00273769885106134
0.00273769885106141
0.00273769885106135
0.00273769885106146
0.00273769885106133
0.00273769885106138
0.00273769885106139
0.0027379154741061
0.0027364446710627
0.00272754201984268
0.00271099062165914
0.00268706370773996
0.00265609814139527
0.00261848253984108
0.00257464099995404
0.00252502104085252
0.00247007880615429
0.00241027090177968
0.00234613014701834
0.00227946778104151
0.00221201178866745
0.00214449363495841
0.00207746022106101
0.00201133757263849
0.00194646512502996
0.00188312069462383
0.00182154159978974
0.00176124341769906
0.00170041233262456
0.00163867517716894
0.00157597042996247
0.00151223877755547
0.00144742439342245
0.00138147601047812
0.00131434763264678
0.00124605505055852
0.00117867073581407
0.00111502973748148
0.00105569783140399
0.00100111113233293
0.0009517582678706
0.000908335489379359
0.00087185064036374
0.000843015138088506
0.000822321427471541
0.000808767174251099
0.0007982593529208
0.000790243642279692
0.000784970699171907
0.000782734919833021
0.000782199671731654
0.000782199671734318
0.00237532869197491
0.00237551978425649
0.0023779826315155
0.00238803465361097
0.0024108754827826
0.0024482315821994
0.00250247300764177
0.00257725908985995
0.00268024572597142
0.00281120976520891
0.00296643184855729
0.0031415994298201
0.00333205241839647
0.00353388082302984
0.00374366856000482
0.00395824747423016
0.0041745303922858
0.00438846891291405
0.00459831055828865
0.00480449633666943
0.00500748818374703
0.00520772484082532
0.00540563176225922
0.0056016230838965
0.00579610396418797
0.00598953554198357
0.00618244917225196
0.0063741598730947
0.00656352949305314
0.00674937092402573
0.00693043213071523
0.00710537470884752
0.00727275315627137
0.00743099753935948
0.00757839815418086
0.00771377313378037
0.00783662434536275
0.00794648066237798
0.00804290361644807
0.00812546560995225
0.00819377685556524
0.00824748145342968
0.00828627605083469
0.00830991121879056
0.00831876963002077
0.00831930471691141
0.00831854080149698
0.00831783138864888
0.00831717649231336
0.00831657612536913
0.00831603029962663
0.00831553902582575
0.00831510231363553
0.00831472017165344
0.00831439260740367
0.00831411962733713
0.0083139012368305
0.0083137374401857
0.00831362824062974
0.00831357364031385
0.00831357364031389
0.00831362824062977
0.00831373744018566
0.00831390123683057
0.00831411962733731
0.00831439260740382
0.00831472017165353
0.00831510231363566
0.0083155390258259
0.0083160302996266
0.00831657612536906
0.00831717649231321
0.00831783138864889
0.00831854080149711
0.00831930471691115
0.00831874225145652
0.00830980684751815
0.00828607730386857
0.00824718960714594
0.0081933936978891
0.00812499333919852
0.00804234425566391
0.00794583708258037
0.00783589885198936
0.00771296918632896
0.00757751799059048
0.00743004499348253
0.0072717398664304
0.00710430971654524
0.00692932460132929
0.00674822960004356
0.0065623625007613
0.00637297548770299
0.0061812536856655
0.00598833595998418
0.00579489999023473
0.00560041098940482
0.00540440902550266
0.00520648888946672
0.00500623638222707
0.00480322596650396
0.0045970199268531
0.00438715395194218
0.00417319038186359
0.00395690595630292
0.00374234672573814
0.00353259778076214
0.00333082876637005
0.00314045757505023
0.00296539972307592
0.00281031660578598
0.00267951220243905
0.00257671133262728
0.00250207840681736
0.00244795090807182
0.00241069366887067
0.0023879350964439
0.00237795235157214
0.0023755197842531
0.00237532869197481
0.00402681046383332
0.00402713441579911
0.00403154849332566
0.00405034752968845
0.00409335826240747
0.00416528883710653
0.004271738003861
0.00441857248532579
0.00461291352687593
0.00485106521339263
0.00512568188405367
0.00542937479819173
0.00575495069667664
0.00609645355756502
0.00644868101234671
0.0068068031719341
0.00716614358719605
0.00752154599851138
0.0078710215586606
0.00821518516863808
0.00855469020582306
0.00889017565716146
0.00922227595656351
0.00955162113873044
0.00987883797936578
0.0102045594161955
0.010529131222441
0.0108512601358474
0.0111690714223209
0.0114806040258192
0.011783784446021
0.0120763925506713
0.012356034456631
0.0126201059648101
0.0128659488958243
0.0130918000776901
0.0132968121395113
0.0134801861846924
0.0136411747634534
0.0137790577942678
0.0138931787706868
0.0139829431522772
0.0140478456252868
0.0140874737082422
0.0141024722178402
0.0141034221491469
0.0141021271104456
0.0141009244680115
0.014099814245487
0.0140987964647055
0.014097871145688
0.0140970383066418
0.0140962979639587
0.0140956501322134
0.0140950948241614
0.014094632050739
0.014094261821061
0.0140939841424199
0.0140937990202865
0.014093706458308
0.0140937064583081
0.0140937990202865
0.01409398414242
0.0140942618210609
0.014094632050739
0.0140950948241616
0.0140956501322135
0.0140962979639587
0.0140970383066418
0.0140978711456879
0.0140987964647054
0.0140998142454868
0.0141009244680112
0.0141021271104456
0.0141034221491468
0.01410242512234
0.0140872982780905
0.0140475129535824
0.0139824553533702
0.0138925387924322
0.0137782693177297
0.0136402412502537
0.0134791123377368
0.0132956020799967
0.0130904593937768
0.0128644818503204
0.0126185184765951
0.0123543436680792
0.0120746140092378
0.0117819328760784
0.0114786939443584
0.0111671163137148
0.0108492735540691
0.0105271240407282
0.0102025428033124
0.00987681432842407
0.00954958648116736
0.00922022639586189
0.00888810728274444
0.00855259909043916
0.00821306735778832
0.00786887460014315
0.00751936473997087
0.00716392639110663
0.00680457772360533
0.00644647756611526
0.00609430136404678
0.00575288103266073
0.00542742184797729
0.00512388777606976
0.00484947679251859
0.00461157002701299
0.00441752453639153
0.00427096709755282
0.00416474868544626
0.00409301552919876
0.00405016394579577
0.00403149255676707
0.00402713441579888
0.0040268104638332
0.00573879076829528
0.0057392524469781
0.00574569592659902
0.00577366230963515
0.00583786965284447
0.00594623971084895
0.00610777642276321
0.00633048206233936
0.0066204081379195
0.00697008971338692
0.00736849378959282
0.00780516970084365
0.00827042723962102
0.00875627350316273
0.00925570421226438
0.00976219470474964
0.0102694361748286
0.010771152892351
0.0112651149674633
0.0117521009148315
0.0122329502040797
0.0127085004076778
0.0131795958836835
0.0136470854115569
0.0141118216338412
0.0145746115671097
0.015035601432862
0.0154928657952462
0.015943766608861
0.016385540622424
0.016815262763814
0.0172297987878869
0.0176257716572723
0.0179995048453025
0.0183473582199461
0.0186669671955705
0.0189571216999835
0.0192166826253507
0.0194445817693512
0.0196397955785421
0.0198013908120761
0.0199285254021191
0.0200204845686647
0.0200766867524867
0.0200980485365658
0.0200994284577858
0.0200975828392225
0.0200958688987822
0.0200942866701595
0.0200928361844696
0.0200915174702458
0.0200903305534359
0.0200892754574009
0.0200883522029113
0.0200875608081459
0.0200869012886903
0.0200863736575347
0.020085977925072
0.0200857140990986
0.0200855821848125
0.0200855821848124
0.0200857140990987
0.020085977925072
0.0200863736575346
0.0200869012886904
0.020087560808146
0.0200883522029113
0.020089275457401
0.0200903305534359
0.0200915174702458
0.0200928361844696
0.0200942866701593
0.0200958688987821
0.0200975828392224
0.0200994284577857
0.0200979810039541
0.0200764376803228
0.0200200131039438
0.0199278345281779
0.0198004846794035
0.0196386794060304
0.0194432605120793
0.0192151628847084
0.0189554094848167
0.0186650702986314
0.0183452830132865
0.0179972594072384
0.0176233788159213
0.0172272808476269
0.0168126402048802
0.0163828339483457
0.0159409948586715
0.0154900479902059
0.0150327532059681
0.0145717483930979
0.0141089487276801
0.0136441985935829
0.0131766898532983
0.0127055698943777
0.0122299899775551
0.0117491057872968
0.0112620817459073
0.0107680754223063
0.0102663119535631
0.00975905554038761
0.00925258963902773
0.00875322316416106
0.00826748324432015
0.00780237804274695
0.00736591062269026
0.00696777927791551
0.00661842850817068
0.00632890872515612
0.00610660844441878
0.00594542575832117
0.00583735748819714
0.00577339058119333
0.00574561319038904
0.00573925244697807
0.00573879076829539
0.00751348583767485
0.00751409028840087
0.00752263978701398
0.00756014325690631
0.00764642116165065
0.00779276712029379
0.00801173198841303
0.00831347714515219
0.00870277516047384
0.00916820319225971
0.00969493250265591
0.0102693803992206
0.0108793095235795
0.0115146419939553
0.0121665212331962
0.0128266744736474
0.0134871055805521
0.0141403878221404
0.0147840429614794
0.0154190138738969
0.0160463290035402
0.0166670288986898
0.0172821733656105
0.0178928362985967
0.0185001032196646
0.0191049602809732
0.0197073444583586
0.020304674446346
0.0208935210100108
0.0214702893509821
0.0220311716255672
0.0225720859617235
0.0230886361428582
0.0235760339761987
0.0240296218375889
0.024446412103501
0.024824818494348
0.0251633490849736
0.0254606030219909
0.0257152420726625
0.0259260460445922
0.0260919162272094
0.0262119206666828
0.0262853025154987
0.0263132600852436
0.0263150857315157
0.0263126693637657
0.0263104253950023
0.0263083538693396
0.0263064548275156
0.0263047283068869
0.026303174341426
0.0263017929617177
0.0263005841949562
0.026299548064942
0.0262986845920799
0.0262979937933774
0.0262974756824417
0.0262971302694805
0.0262969575612981
0.0262969575612982
0.0262971302694804
0.0262974756824418
0.0262979937933774
0.02629868459208
0.0262995480649422
0.0263005841949564
0.0263017929617177
0.026303174341426
0.0263047283068869
0.0263064548275155
0.0263083538693394
0.0263104253950021
0.0263126693637656
0.0263150857315157
0.0263131713675551
0.0262849771103847
0.0262113053374307
0.02609101485805
0.0259248640328066
0.0257137862315363
0.0254588798554607
0.0251613671623358
0.0248225857829723
0.0244439386808457
0.0240269162655627
0.023573106570978
0.0230855156198556
0.0225688016339489
0.0220277499376983
0.0214667570125672
0.0208899028182865
0.0203009950885365
0.0197036245051219
0.0191012196676036
0.0184963500975245
0.0178890662817082
0.0172783797047083
0.016663204922428
0.0160424681424239
0.0154151096770945
0.0147800914826066
0.0141363819069321
0.0134830418558226
0.0128225889640448
0.0121624630553592
0.0115106615256989
0.0108754600293341
0.0102657199887399
0.00969153165042539
0.0091651438937747
0.00870013487850767
0.00831135693036205
0.00801015007631149
0.0077916677194503
0.00764573247400909
0.00755977980220912
0.00752252920038519
0.00751409028840087
0.00751348583767451
0.00935319309090438
0.00935394554382366
0.00936467926354211
0.00941208487843061
0.00952128687200845
0.00970709272553472
0.00998573733999738
0.0103695943604606
0.010862033151391
0.0114475059910749
0.0121072621799416
0.0128244914549638
0.0135843345034957
0.0143745638956648
0.015184409840708
0.016003791319132
0.0168229652140638
0.0176333159214217
0.0184321084999236
0.0192204538731332
0.0199995746231194
0.0207707204150009
0.0215351734202312
0.0222942401524385
0.0230492469729531
0.0238013651313172
0.024550313601736
0.0252928309357094
0.0260246677629448
0.0267413672914334
0.0274382065650509
0.0281101213577384
0.028751658933765
0.0293568786856939
0.0299200684247626
0.0304375948563959
0.0309074816140506
0.0313278709652018
0.0316970171531832
0.0320132556971905
0.0322750689064756
0.0324810920044644
0.0326301678931164
0.0327213580079953
0.0327561527128638
0.0327584404054476
0.0327554323803268
0.0327526389667784
0.0327500602197183
0.0327476961898589
0.0327455469237042
0.0327436124635447
0.032741892847454
0.0327403881092849
0.0327390982786657
0.0327380233809973
0.0327371634374517
0.0327365184649679
0.0327360884762522
0.0327358734797766
0.0327358734797765
0.0327360884762523
0.0327365184649679
0.0327371634374516
0.0327380233809976
0.0327390982786658
0.032740388109285
0.032741892847454
0.0327436124635447
0.0327455469237041
0.0327476961898588
0.0327500602197182
0.0327526389667781
0.0327554323803266
0.0327584404054474
0.0327560420343434
0.0327209534767736
0.0326294034351548
0.0324799724378987
0.0322736009211304
0.0320114477592384
0.0316948773724358
0.0313254099509492
0.0309047093646554
0.0304345238174806
0.0299167094297692
0.0293532443703519
0.0287477841133406
0.0281060426124962
0.0274339565215761
0.0267369790927175
0.0260201721754141
0.0252882585193591
0.02454569004741
0.0237967149967842
0.0230445814587195
0.0222895546643255
0.021530459710354
0.0207659703638449
0.0199947802782223
0.0192156074812403
0.0184272053401895
0.0176283478206251
0.0168179279082599
0.0159987251778573
0.0151793738970955
0.0143696196383226
0.0135795467273046
0.0128199307739427
0.0121030138159848
0.0114436702203485
0.010858707468804
0.0103669062181972
0.00998372527233643
0.00970569667591047
0.00952041478645776
0.00941162617418831
0.00936453977431194
0.00935394554382409
0.00935319309090449
0.0112602941076121
0.0112611999844705
0.0112741985165427
0.0113318776135534
0.0114648681098319
0.0116916300984654
0.012032221196333
0.0125012939317404
0.0131007210771605
0.0138106673981439
0.0146083237498179
0.0154735444889982
0.0163887622438651
0.0173395276104628
0.0183130912028476
0.0192974995852233
0.0202811998151992
0.0212543461776154
0.0222139380367848
0.0231612592749116
0.0240977327817671
0.0250248243048911
0.0259440460019913
0.0268569451276153
0.0277650973967709
0.0286698656118692
0.0295707421665079
0.0304637604183961
0.0313438208377748
0.0322055730693816
0.0330433455195745
0.0338510556144274
0.0346221553927853
0.0353495096031303
0.0360263129715634
0.0366482629856534
0.0372129788506082
0.0377182235904479
0.0381618938759189
0.0385419870044511
0.0388566768710544
0.0391043228746417
0.0392835345181647
0.0393931848597373
0.0394350670155438
0.0394378336774338
0.0394342123208322
0.0394308493347575
0.0394277447853226
0.03942489873358
0.0394223112355158
0.0394199823420432
0.0394179120989997
0.0394161005471399
0.0394145477221333
0.0394132536545604
0.0394122183699098
0.0394114418885748
0.0394109242258524
0.0394106653919413
0.0394106653919413
0.0394109242258524
0.0394114418885749
0.0394122183699099
0.0394132536545605
0.0394145477221334
0.03941610054714
0.0394179120989998
0.0394199823420432
0.0394223112355157
0.0394248987335799
0.0394277447853224
0.0394308493347574
0.0394342123208323
0.0394378336774336
0.0394349335718655
0.0393926983055102
0.0392826154717988
0.0391029771223681
0.0388549124426627
0.0385398140795817
0.0381593222292057
0.0377152659459494
0.0372096473124145
0.0366445724542269
0.0360222766358224
0.0353451425031825
0.0346174986655323
0.0338461533745636
0.0330382368015406
0.0322002976853103
0.0313384157419794
0.0304582622583804
0.0295651819417515
0.0286642726711912
0.0277594861042915
0.0268513106764133
0.0259383785923626
0.0250191143182647
0.0240919708348536
0.0231554362680497
0.0222080484497142
0.0212483807902857
0.0202751534463641
0.0192914170943302
0.018307041893726
0.0173335844803166
0.0163830020227445
0.0154680507234361
0.0146031968969904
0.01380602661716
0.0130966845921415
0.0124980165079091
0.0120297626401209
0.0116899261271381
0.0114638056846162
0.0113313200811839
0.0112740290484252
0.0112611999844705
0.0112602941076122
0.0132372577111205
0.0132383226322775
0.0132536692956659
0.0133220034662059
0.0134796689330508
0.0137489182847747
0.0141537740582482
0.0147112422475046
0.0154216187675507
0.0162606169940055
0.0172012251262812
0.0182198462880982
0.0192961118356426
0.0204132727867806
0.0215565298616321
0.0227119898579192
0.0238662243966731
0.0250081139770896
0.0261343827890057
0.0272464932640376
0.0283460753725841
0.0294348184429467
0.0305144727285527
0.0315868348029882
0.0326537386836879
0.0337167455465681
0.0347751125445999
0.0358241419257748
0.0368578528683849
0.037869968724117
0.0388538345087426
0.0398023119904653
0.0407077178591328
0.0415616784482351
0.0423562554247255
0.0430864526089992
0.0437494699334162
0.0443426772641731
0.0448636005810227
0.0453098865561225
0.0456793893626817
0.0459701824637679
0.0461806334097392
0.0463094199784354
0.0463586491299542
0.0463619123059577
0.0463576551497819
0.0463537017261038
0.0463500521126429
0.0463467063811714
0.046343664597504
0.0463409268214939
0.046338493107025
0.0463363635020082
0.0463345380483744
0.0463330167820744
0.0463317997330707
0.0463308869253375
0.0463302783768574
0.0463299740996199
0.0463299740996198
0.0463302783768575
0.0463308869253376
0.0463317997330707
0.0463330167820744
0.0463345380483746
0.0463363635020082
0.046338493107025
0.046340926821494
0.046343664597504
0.0463467063811714
0.0463500521126427
0.0463537017261037
0.0463576551497822
0.0463619123059576
0.046358492087254
0.0463088483975141
0.0461795541140094
0.0459686022429844
0.0456773176357585
0.0453073352789382
0.0448605812540604
0.0443392048038073
0.043745558626744
0.043082119901257
0.0423515169469702
0.0415565517329778
0.0407022505954644
0.0397965561040618
0.0388478356763337
0.0378637736713202
0.0368515049640985
0.035817684127779
0.0347685813560077
0.0337101752822859
0.0326471469890505
0.0315802166524283
0.0305078167146833
0.0294281133945435
0.0283393104247951
0.0272396579237238
0.0261274707092511
0.0250011148583065
0.023859132110358
0.0227048539094126
0.0215494301962326
0.0204062943264276
0.0192893436721591
0.0182133853563851
0.0171951876454818
0.0162551416572029
0.0154168452648364
0.0147073536230364
0.0141508523082988
0.0137468948647366
0.0134784090592841
0.0133213434308639
0.0132534687397641
0.0132383226322773
0.0132372577111203
0.0152866431643975
0.0152878729561023
0.0153056540017476
0.0153850370231915
0.0155682912596984
0.0158816047043161
0.0163531114351114
0.0170022512168082
0.0178276686880624
0.018800458396673
0.0198892549107875
0.0210668878496706
0.0223100885858853
0.0235997267848571
0.0249188796183235
0.0262516438604274
0.0275826474346501
0.02889945128767
0.0301984945189205
0.0314814241681875
0.0327500845065137
0.0340063963627133
0.0352523566030877
0.0364900200970605
0.0377214885059559
0.0389485285181417
0.0401701531930432
0.0413809068315389
0.0425738950424315
0.0437418809535173
0.0448771901638069
0.0459715901080987
0.0470162205340639
0.0480014239887945
0.048918087619074
0.0497604962119039
0.0505254150502809
0.0512098064258844
0.0518108120366289
0.0523257150762211
0.0527520382787667
0.0530875586922293
0.0533303930494366
0.0534790166931827
0.0535358619248673
0.0535396398035716
0.0535347235566589
0.0535301580659533
0.0535259434212077
0.0535220797053046
0.0535185669942491
0.0535154053571604
0.0535125948562652
0.0535101355468909
0.0535080274774618
0.0535062706894929
0.0535048652175862
0.0535038110894277
0.0535031083257838
0.0535027569405002
0.0535027569405003
0.0535031083257839
0.0535038110894278
0.0535048652175862
0.053506270689493
0.0535080274774619
0.0535101355468909
0.0535125948562652
0.0535154053571604
0.0535185669942492
0.0535220797053046
0.0535259434212075
0.0535301580659533
0.0535347235566591
0.0535396398035714
0.0535356804186946
0.0534783569714856
0.0533291476353337
0.0530857354157163
0.0527496479988433
0.0523227715900588
0.0518073286337769
0.0512058002954423
0.0505209027423533
0.0497554978097855
0.0489126212856026
0.0479955098401635
0.0470099130509329
0.0459649493135662
0.0448702686200437
0.0437347325529056
0.042566569803452
0.0413734542532657
0.0401626154841862
0.0389409451413281
0.0377138805090319
0.0364823822290266
0.0352446757906519
0.033998659825947
0.0327422798458437
0.0314735394473932
0.0301905225354505
0.0288913806265551
0.0275744709877727
0.0262434159436545
0.0249106912048047
0.0235916751545426
0.0223022756383596
0.021059424387057
0.0198822734711336
0.0187941178959933
0.0178221310538874
0.016997728784885
0.0163497092946324
0.0158792499710446
0.0155668266147548
0.0153842706940295
0.0153054212121934
0.0152878729561023
0.0152866431643972
0.0174111034831074
0.0174125041850409
0.0174328089531358
0.0175236479787495
0.017733435250669
0.0180924410882018
0.0186330626544741
0.0193772584948669
0.0203219499395723
0.0214334405327735
0.0226758538291355
0.0240183179285194
0.02543456068628
0.0269029848790805
0.0284044673268942
0.0299210216950406
0.0314352613045408
0.0329333798184836
0.0344115209135956
0.0358715226707036
0.0373154512612966
0.0387454673096519
0.0401638231884583
0.0415728414176105
0.0429749010238338
0.0443719816483019
0.045762843152196
0.0471412440850352
0.0484993430234102
0.0498289076961553
0.0511212069395367
0.0523668737632837
0.0535558278561017
0.0546770809469333
0.0557203026693843
0.0566790324692332
0.0575495850474033
0.0583285001805487
0.0590125212008918
0.0595985545024085
0.0600837792362845
0.0604656651736839
0.0607420690414507
0.0609112563310174
0.0609759966034003
0.0609803080403719
0.060974708558339
0.0609695085788358
0.0609647082040889
0.0609603075284994
0.0609563066386355
0.0609527056132215
0.0609495045231323
0.0609467034313853
0.0609443023931334
0.0609423014556617
0.0609407006583811
0.0609395000328246
0.0609386996026454
0.0609382993836131
0.0609382993836132
0.0609386996026455
0.0609395000328246
0.060940700658381
0.0609423014556618
0.0609443023931335
0.0609467034313854
0.0609495045231323
0.0609527056132215
0.0609563066386355
0.0609603075284993
0.0609647082040886
0.0609695085788358
0.0609747085583389
0.0609803080403716
0.0609757897376125
0.0609105052401753
0.0607406514245774
0.060463589939069
0.0600810587358465
0.0595952044420372
0.0590085567247084
0.0583239408337452
0.0575444497259609
0.056673343991233
0.0557140818222586
0.0546703505252111
0.053548649380358
0.0523593156508397
0.0511133288901431
0.0498207710315142
0.0484910046551874
0.0471327602931295
0.0457542620601663
0.0443633480548662
0.0429662395047861
0.0415641464890781
0.0401550800506821
0.0387366615156543
0.0373065688213155
0.0358625501535429
0.0344024502306365
0.0329241984010516
0.0314259610305809
0.0299116618634663
0.0283951503402805
0.0268938208257131
0.0254256647379819
0.024009815254661
0.0226678938703401
0.0214262031504186
0.0203156201027293
0.0193720788874697
0.0186291623668577
0.0180897427921089
0.0177317582708995
0.017522771436978
0.0174325427442178
0.0174125041850409
0.0174111034831073
0.0196133888699669
0.01961496674306
0.0196378878025756
0.0197406042444055
0.0199779015271402
0.0203842838386619
0.0209965682486578
0.0218393213160224
0.0229076695761296
0.0241629479442316
0.0255646052627572
0.0270779346209961
0.0286735522832115
0.0303273049928732
0.0320177893220105
0.0337248599064748
0.0354290418729166
0.0371151119409676
0.0387789076198036
0.0404224647942678
0.0420480794861018
0.0436581607668468
0.0452552257749154
0.0468418744085567
0.0484207731611745
0.0499941223645035
0.051560419288606
0.0531126079189252
0.054641865109524
0.0561389267257819
0.0575939661270516
0.0589964403380192
0.060335004292145
0.0615972901466629
0.062771705445872
0.0638510170151351
0.0648310724615218
0.0657079735615138
0.0664780506850181
0.0671378196187191
0.0676841033440153
0.0681140530965852
0.0684252560730746
0.0686157602259252
0.0686886847305092
0.0686935492725311
0.0686872415265182
0.068681383815075
0.0686759762533586
0.0686710189477112
0.06866651199565
0.0686624554858578
0.0686588494981737
0.0686556941035859
0.068652989364224
0.0686507353333537
0.0686489320553711
0.0686475795657975
0.0686466778912779
0.0686462270495767
0.0686462270495768
0.0686466778912778
0.0686475795657975
0.0686489320553711
0.0686507353333539
0.0686529893642241
0.0686556941035859
0.0686588494981737
0.0686624554858578
0.06866651199565
0.0686710189477112
0.0686759762533584
0.0686813838150749
0.0686872415265181
0.0686935492725311
0.0686884515761201
0.0686149144191732
0.068423659945903
0.0681117166750178
0.0676810405276624
0.0671340480920786
0.0664735875146643
0.065702840735171
0.0648252913068974
0.0638446131854029
0.0627647024491851
0.0615897135540295
0.0603269229216379
0.0589879313087525
0.0575850965377857
0.05612976559971
0.0546324765040283
0.0531030551430629
0.0515507565976333
0.0499844000885685
0.0484110195338144
0.0468320837051211
0.0452453814062283
0.0436482465582361
0.0420380797999091
0.0404123646502724
0.038768698011462
0.0371047791054664
0.0354185766382699
0.0337143267345326
0.0320073024617786
0.0303169878085135
0.0286635337016303
0.0270683546993581
0.0255556309532926
0.02415478080759
0.0229005184593637
0.0218334603507803
0.0209921514505722
0.0203812293123579
0.0199760043888974
0.0197396134344899
0.0196375869464878
0.0196149667430602
0.0196133888699667
0.0218963502749485
0.0218981118094886
0.0219237450914877
0.0220387753666513
0.0223045941857294
0.0227600961985158
0.0234466807704232
0.0243916157083927
0.0255881607386457
0.0269924985730672
0.0285592332822517
0.0302496840480851
0.0320312430218638
0.0338771081935452
0.0357635128814549
0.0376680738863516
0.0395691517934144
0.0414500547804609
0.043306303027551
0.0451401372961673
0.0469540917464019
0.0487508329005532
0.0505331522876821
0.0523039372887543
0.0540661523506439
0.0558222265333019
0.0575703848085466
0.0593027267361254
0.0610094114852449
0.0626801052569013
0.0643038458010475
0.0658688710750823
0.0673625249235234
0.0687710093931089
0.070081423724445
0.0712857338390517
0.0723793031366614
0.0733577793429264
0.0742170647363014
0.0749532701839465
0.0755628494508083
0.0760426235665589
0.0763899003251505
0.0766025021710454
0.0766839107011737
0.0766893486114583
0.076682306655728
0.0766757671177412
0.0766697301260583
0.0766641957994004
0.0766591642466353
0.076654635566768
0.0766506098489313
0.0766470871723754
0.0766440676064624
0.0766415512106576
0.0766395380345251
0.0766380281177206
0.0766370214899908
0.0766365181711676
0.0766365181711675
0.0766370214899909
0.0766380281177206
0.076639538034525
0.0766415512106578
0.0766440676064626
0.0766470871723754
0.0766506098489312
0.076654635566768
0.0766591642466354
0.0766641957994004
0.0766697301260581
0.076675767117741
0.0766823066557282
0.0766893486114583
0.0766836502951532
0.0766015581789312
0.076388119148934
0.0760400163908772
0.0755594317797488
0.074949061753057
0.0742120846049632
0.0733520520310124
0.0723728524925703
0.0712785884550426
0.0700736099289879
0.068762555635443
0.0673535075863253
0.0658593762980389
0.0642939483529623
0.0626698821446023
0.0609989341736031
0.0592920658208257
0.0575596009012771
0.0558113756981868
0.0540552666133711
0.0522930106755255
0.0505221663546002
0.0487397696822684
0.0469429338973728
0.04512886823093
0.0432949127884622
0.0414385283682153
0.0395574789484137
0.0376563244206029
0.0357518133232241
0.0338655956679193
0.0320200607122617
0.0302389874405836
0.0285492074745742
0.0269833676100006
0.0255801582141234
0.0243850483444181
0.0234417284545726
0.0227566723309128
0.0223024687900019
0.0220376660889867
0.0219234083163242
0.0218981118094886
0.0218963502749484
0.0242629430859116
0.0242648950099422
0.0242933399398346
0.0244211361557361
0.0247165242409958
0.0252229512941448
0.0259865671941875
0.0270374381501004
0.0283668838581299
0.0299257449070646
0.031663604056451
0.0335376622437286
0.0355119705297245
0.0375569818221789
0.0396464800142726
0.0417557623078669
0.0438609455617163
0.0459438158404058
0.0479995644080636
0.0500306442770236
0.052039836369694
0.0540300740163881
0.056004433132374
0.0579660990697047
0.0599183451103694
0.0618638373859254
0.063800518527698
0.0657196127187392
0.0676102241627065
0.0694609102100924
0.0712595313986256
0.0729930619580607
0.0746474866128245
0.0762075249095391
0.077658919874193
0.0789928072016741
0.0802040483462985
0.0812878203454564
0.082239581704425
0.0830550235350924
0.0837302168623537
0.0842616404122445
0.0846463123423662
0.0848818213284854
0.0849720246653521
0.0849780569497264
0.0849702538880768
0.0849630075462894
0.0849563180668207
0.084950185581222
0.0849446102101288
0.084939592063246
0.0849351312393403
0.0849312278262278
0.0849278819007665
0.0849250935288496
0.0849228627653973
0.0849211896543525
0.0849200742286758
0.0849195165103436
0.0849195165103435
0.0849200742286758
0.0849211896543524
0.0849228627653973
0.0849250935288497
0.0849278819007666
0.0849312278262278
0.0849351312393402
0.084939592063246
0.0849446102101287
0.084950185581222
0.0849563180668207
0.0849630075462895
0.0849702538880769
0.0849780569497263
0.0849717360093846
0.0848807755544007
0.0846443393387212
0.0842587525646592
0.0837264313382643
0.0830503621961856
0.0822340656758053
0.08128147677206
0.0801969036894054
0.0789848931004573
0.0776502655806342
0.0761981618565954
0.0746374990247359
0.0729825453254873
0.0712485684414194
0.0694495862111729