6 	0.00273779077457386 	1.04083408558608e-17 	-0.0182463869272882 	-2.38906065446123e-05 	4.31213650645289e-22
6 	0.00831366561724397 	1.38777878078145e-17 	-0.049777380921844 	-0.000169333589662837 	1.06207620843052e-21
6 	0.0140938010840031 	1.38777878078145e-17 	-0.0717977026662557 	-0.000460941145143424 	1.70379584178012e-21
6 	0.0200856798396764 	1.38777878078145e-17 	-0.0835100235345653 	-0.000887551409426861 	2.49068637855431e-22
6 	0.0262970586610136 	2.08166817117217e-17 	-0.0867260109447417 	-0.00141189891508976 	-5.61121772688814e-22
6 	0.0327359784782122 	3.12250225675825e-17 	-0.0853675971345797 	-0.00198988605937759 	2.35148195799568e-16
6 	0.0394107747842904 	3.46944695195361e-17 	-0.0822786422558991 	-0.0026088633148971 	4.41045830217923e-16
6 	0.0463300884257853 	3.12250225675825e-17 	-0.0786026072830498 	-0.00326778886181989 	-2.39119289405286e-16
5.99999999999999 	0.0535028767887471 	2.77555756156289e-17 	-0.074695967144758 	-0.00396371040679681 	-2.34665408745264e-16
5.99999999999999 	0.060938425394508 	2.08166817117217e-17 	-0.070665145142705 	-0.00469369616006422 	6.12236564196405e-17
5.99999999999999 	0.0686463599202387 	2.08166817117217e-17 	-0.0665380606876572 	-0.0054562580654508 	6.36498915086378e-17
5.99999999999999 	0.0766366586598531 	2.42861286636753e-17 	-0.0623155983287631 	-0.00625091111491262 	-3.2674105389038e-17
5.99999999999999 	0.0849196654413916 	1.73472347597681e-17 	-0.0579883734008542 	-0.00707765883608955 	-1.46834323058181e-17
5.99999999999999 	0.0935061030176071 	1.38777878078145e-17 	-0.0535426963171041 	-0.0079367570259572 	-1.34944006687142e-22
5.99999999999999 	0.102407086947087 	1.38777878078145e-17 	-0.0489628106542585 	-0.00882861717645268 	5.02647967334875e-17
5.99999999999999 	0.11163413998388 	1.04083408558608e-17 	-0.0442317242445453 	-0.00975375481921381 	1.29208894023107e-16
5.99999999999999 	0.121199206994261 	3.46944695195361e-18 	-0.0393314692756002 	-0.0107127549876667 	-1.14694808374762e-16
5.99999999999999 	0.131114670419936 	-3.46944695195361e-18 	-0.0342431169656113 	-0.0117062473888886 	-4.61440385883372e-17
5.99999999999999 	0.141393366307709 	-6.93889390390723e-18 	-0.0289466812092713 	-0.0127348874157539 	1.82899588627072e-22
5.99999999999999 	0.152048600926373 	-6.93889390390723e-18 	-0.0234209688556199 	-0.0137993403213361 	7.61218399603845e-17
5.99999999999999 	0.163094167992309 	0 	-0.017643401770286 	-0.0149002667931202 	1.42382240578126e-16
5.99999999999999 	0.174544366526125 	6.93889390390723e-18 	-0.0115898220375486 	-0.016038308863934 	-1.34297804376533e-16
5.99999999999999 	0.186414019363427 	1.38777878078145e-17 	-0.00523428687141662 	-0.017214075082782 	-7.26029731626446e-17
5.99999999999999 	0.198718492343699 	1.38777878078145e-17 	0.0014511446477181 	-0.0184281241349877 	-3.45145688587365e-22
5.99999999999999 	0.21147371420212 	1.04083408558608e-17 	0.00849663448926997 	-0.0196809470464892 	-8.66311757864325e-22
5.99999999999999 	0.224696197190089 	2.08166817117217e-17 	0.0159348015321057 	-0.0209729471959118 	-6.86454104122652e-22
5.99999999999999 	0.238403058451124 	2.77555756156289e-17 	0.02380098009011 	-0.0223044192587664 	2.36659341023733e-22
5.99999999999999 	0.25261204217984 	2.08166817117217e-17 	0.0321334941365898 	-0.0236755265740862 	-5.71574475681961e-23
5.99999999999999 	0.267341542592663 	1.73472347597681e-17 	0.0409739348997634 	-0.0250862735328107 	-3.56534748418826e-22
5.99999999999999 	0.282610627740031 	2.42861286636753e-17 	0.0503674424648121 	-0.0265364734816646 	1.13788312243749e-22
5.99999999999999 	0.298439064190912 	3.12250225675825e-17 	0.0603629918867526 	-0.0280257114674802 	2.22122790202761e-22
5.99999999999999 	0.31484734262158 	2.77555756156289e-17 	0.071013679993726 	-0.0295533011591324 	5.89361640417274e-22
5.99999999999999 	0.331856704341783 	2.08166817117217e-17 	0.0823770066397018 	-0.0311182351289058 	4.43409625468539e-22
5.99999999999999 	0.349489168792654 	1.38777878078145e-17 	0.0945151419879207 	-0.032719127452818 	1.112627689803e-21
5.99999999999999 	0.367767562051933 	6.93889390390723e-18 	0.107495168721439 	-0.0343541476348558 	7.8630300865941e-22
5.99999999999999 	0.386715546383436 	1.38777878078145e-17 	0.121389284780462 	-0.0360209455032109 	-1.05885555291645e-21
5.99999999999999 	0.406357650868994 	1.38777878078145e-17 	0.136274948154175 	-0.0377165661184206 	-9.76892137932947e-22
5.99999999999999 	0.426719303162536 	-3.46944695195361e-18 	0.152234939831527 	-0.0394373431326738 	2.07280859538694e-22
5.99999999999999 	0.447826862407422 	-1.38777878078145e-17 	0.169357313455704 	-0.0411787437185667 	-1.62841552468358e-21
5.99999999999999 	0.46970765335962 	-1.73472347597681e-17 	0.187735194514316 	-0.0429352407314874 	-4.51095757765823e-22
5.99999999999999 	0.49239000176093 	-1.73472347597681e-17 	0.207466405342223 	-0.0447006903607735 	-3.42780313541082e-17
5.99999999999999 	0.515903271008024 	-1.38777878078145e-17 	0.228652986453878 	-0.0464692060566966 	-1.49326093198155e-16
5.99999999999999 	0.540277900164782 	-6.93889390390723e-18 	0.251407219660252 	-0.0482300108622984 	1.57079125980542e-16
5.99999999999999 	0.565545443367136 	6.93889390390723e-18 	0.275939059540553 	-0.04995707567279 	3.36747154937201e-17
5.99999999999999 	0.591738610671418 	1.04083408558608e-17 	0.30270918959567 	-0.0516275896678255 	-2.515774823667e-22
5.99999999999999 	0.618891310399115 	1.04083408558608e-17 	0.332205622038932 	-0.0532110385961981 	5.91402290680382e-22
5.99999999999999 	0.647038693032827 	1.38777878078145e-17 	0.364570319531192 	-0.0546736524896664 	-2.84389034431569e-21
5.99999999999999 	0.676217196720268 	1.38777878078145e-17 	0.399667994484502 	-0.0559944214075216 	-2.06124080747805e-21
5.99999999999999 	0.70646459444521 	1.73472347597681e-17 	0.437265162929767 	-0.0571589574351773 	-5.36025902921715e-22
5.99999999999999 	0.737820042926436 	2.08166817117217e-17 	0.477138298172251 	-0.0581505421344166 	-1.82328165926075e-21
5.99999999999999 	0.770324133308008 	1.38777878078145e-17 	0.519096402072443 	-0.0589480679584219 	-4.57224474475669e-23
5.99999999999999 	0.80401894370646 	6.93889390390723e-18 	0.562945229897232 	-0.0595279590124232 	-1.32221361366597e-21
5.99999999999999 	0.838948093682959 	1.04083408558608e-17 	0.608434539725773 	-0.0598676351621201 	6.88916540032936e-22
5.99999999999999 	0.875156800710938 	6.93889390390723e-18 	0.655220094339648 	-0.0599487745592177 	1.43623209808536e-20
5.99999999999999 	0.912691938712295 	3.46944695195361e-18 	0.702854635844853 	-0.0597590544703427 	-2.92677520825319e-21
5.99999999999999 	0.951602098737954 	3.46944695195361e-18 	0.750809055354395 	-0.05929180487911 	-1.99038917496328e-21
5.99999999999999 	0.991937651871331 	6.93889390390723e-18 	0.798523528814757 	-0.0585423681994023 	-1.2942881070724e-20
5.99999999999999 	1.03375081443614 	1.38777878078145e-17 	0.845450473403593 	-0.0574967310810328 	-1.02293579314877e-20
5.99999999999999 	1.07709571559294 	1.38777878078145e-17 	0.890845973633927 	-0.0561261280295773 	1.25424660264733e-20
5.99999999999999 	1.12202846741195 	1.73472347597681e-17 	0.933548478024362 	-0.0544078995783349 	-7.88293489875903e-21
5.99999999999999 	1.16860723751286 	2.42861286636753e-17 	0.97253825693951 	-0.0523615720698917 	1.25412044671433e-20
5.99999999999999 	1.2168923243656 	2.42861286636753e-17 	1.00784427607599 	-0.0500156788016003 	1.0847591299135e-21
5.99999999999999 	1.26694623534961 	1.73472347597681e-17 	1.03965192308211 	-0.0474028653203784 	1.22877359796559e-20
5.99999999999999 	1.31883376767273 	1.04083408558608e-17 	1.06748087668868 	-0.0445871121447271 	1.49676014869169e-20
5.99999999999999 	1.37262209225426 	6.93889390390723e-18 	1.09035057474132 	-0.0416990348582936 	2.59756142640565e-20
5.99999999999999 	1.41220272459524 	6.93889390390723e-18 	1.10417262835931 	-0.0395314114651425 	1.67058130433353e-21
5.99999999999999 	1.43617694926586 	1.04083408558608e-17 	1.11187232043707 	-0.0381300755763566 	0
5.99999999999999 	1.45930396367274 	1.04083408558608e-17 	1.11807207951726 	-0.0368549530217485 	0
5.99999999999999 	1.48161370685419 	6.93889390390723e-18 	1.12338772429673 	-0.0356279202615937 	0
5.99999999999999 	1.50313505985141 	6.93889390390723e-18 	1.12794201766446 	-0.0344447950217705 	0
5.99999999999999 	1.52389588309638 	6.93889390390723e-18 	1.13183120687774 	-0.0333027107228992 	0
5.99999999999999 	1.54392305247857 	3.46944695195361e-18 	1.13513042500761 	-0.0321989948527802 	0
5.99999999999999 	1.56324249413703 	-3.46944695195361e-18 	1.137897984499 	-0.0311310171634172 	0
5.99999999999999 	1.58187921802306 	-6.93889390390723e-18 	1.14017868327203 	-0.0300962801523183 	0
5.99999999999999 	1.59985735027679 	-6.93889390390723e-18 	1.1420063045435 	-0.0290924474175198 	0
5.99999999999999 	1.61720016445966 	-6.93889390390723e-18 	1.14340547746545 	-0.0281173332401181 	0
5.99999999999999 	1.63393011168312 	-6.93889390390723e-18 	1.14439303928953 	-0.027168884778047 	0
5.99999999999999 	1.65006884967273 	-6.93889390390723e-18 	1.1449790115758 	-0.0262451637580343 	0
5.99999999999999 	1.66563727080512 	-6.93889390390723e-18 	1.14516727870509 	-0.0253443288797131 	0
5.99999999999999 	1.68065552915414 	-6.93889390390723e-18 	1.14495603832798 	-0.0244646200363369 	0
5.99999999999999 	1.69514306658136 	-6.93889390390723e-18 	1.14433808041894 	-0.0236043452996802 	0
5.99999999999999 	1.70911863790442 	0 	1.14330094386605 	-0.022761871370398 	0
5.99999999999999 	1.7226003351761 	6.93889390390723e-18 	1.14182699649 	-0.0219356181194943 	0
5.99999999999999 	1.73560561110536 	6.93889390390723e-18 	1.1398934854715 	-0.0211240578943578 	0
5.99999999999999 	1.74815130165068 	0 	1.13747260960788 	-0.0203257203405364 	0
5.99999999999999 	1.76025364781502 	-6.93889390390723e-18 	1.13453167140894 	-0.0195392035219353 	0
5.99999999999999 	1.77192831667064 	-6.93889390390723e-18 	1.13103337381895 	-0.0187631920302223 	0
5.99999999999999 	1.78319042164083 	-1.04083408558608e-17 	1.12693633033132 	-0.0179964824735312 	0
5.99999999999999 	1.79405454206499 	-1.38777878078145e-17 	1.12219585439822 	-0.0172380161448555 	0
5.99999999999999 	1.80453474207227 	-1.04083408558608e-17 	1.11676507968093 	-0.0164869177467774 	0
5.99999999999999 	1.81464458878828 	-6.93889390390723e-18 	1.11059643279792 	-0.0157425378156275 	0
5.99999999999999 	1.8243971698984 	-6.93889390390723e-18 	1.10364343335824 	-0.015004495060221 	0
5.99999999999999 	1.83380511059041 	-6.93889390390723e-18 	1.09586273563434 	-0.0142727135136957 	0
5.99999999999999 	1.84288058989839 	-6.93889390390723e-18 	1.08721626194046 	-0.0135474490870529 	0
5.99999999999999 	1.85163535646909 	-3.46944695195361e-18 	1.07767322477285 	-0.0128293019625353 	0
5.99999999999999 	1.86008074377113 	0 	1.06721180972638 	-0.0121192105086922 	0
5.99999999999999 	1.8682276847667 	0 	1.05582030652414 	-0.0114184003304029 	0
5.99999999999999 	1.8760867260648 	0 	1.0434975325839 	-0.010728243339092 	0
5.99999999999999 	1.88366804157438 	-3.46944695195361e-18 	1.0302524188851 	-0.0100502916747269 	0
5.99999999999999 	1.8909814456749 	-1.04083408558608e-17 	1.01609516856742 	-0.00938704019526303 	0
5.99999999999999 	1.89803640592158 	-1.38777878078145e-17 	1.00098053796912 	-0.00873917548472066 	0
5.99999999999999 	1.90484205530155 	-1.04083408558608e-17 	0.984766931954855 	-0.00810558327110946 	0
5.99999999999999 	1.91140720405698 	-6.93889390390723e-18 	0.967366117605171 	-0.0074860912515913 	0
5.99999999999999 	1.91774035109035 	-3.46944695195361e-18 	0.948852831743747 	-0.00688513638935663 	0
5.99999999999999 	1.9238496949667 	0 	0.929373967511561 	-0.00630622656004641 	0
5.99999999999999 	1.92974314452705 	0 	0.909080658586564 	-0.00575195901854248 	0
5.99999999999999 	1.9354283291268 	0 	0.888096890142708 	-0.00522428550801754 	0
5.99999999999999 	1.9409126085123 	-3.46944695195361e-18 	0.86651015260207 	-0.00472453402537516 	0
5.99999999999999 	1.94620308234835 	-3.46944695195361e-18 	0.844371898646366 	-0.00425346647941375 	0
5.99999999999999 	1.95130659940914 	-3.46944695195361e-18 	0.821700530402985 	-0.00381138505928851 	0
5.99999999999999 	1.95622976644424 	-6.93889390390723e-18 	0.798483673161415 	-0.00339823827318081 	0
5.99999999999999 	1.96097895673142 	-6.93889390390723e-18 	0.774678704408879 	-0.00301370689218764 	0
5.99999999999999 	1.96556031832711 	-6.93889390390723e-18 	0.750211528912575 	-0.00265727088755151 	0
5.99999999999999 	1.96997978202541 	-1.04083408558608e-17 	0.724973791917004 	-0.00232826344837872 	0
5.99999999999999 	1.97424306903575 	-1.38777878078145e-17 	0.698818283019823 	-0.00202591432595311 	0
5.99999999999999 	1.9783556983893 	-1.73472347597681e-17 	0.671551990514309 	-0.00174938491227924 	0
5.99999999999999 	1.98232299408358 	-2.08166817117217e-17 	0.642925300677718 	-0.0014977666665061 	0
5.99999999999999 	1.98615009197469 	-2.08166817117217e-17 	0.612610933448657 	-0.00126992738374613 	0
5.99999999999999 	1.98984194642589 	-2.08166817117217e-17 	0.580161890172217 	-0.00106396158567897 	0
5.99999999999999 	1.99340333672126 	-1.73472347597681e-17 	0.544976894366236 	-0.000878118946790407 	0
5.99999999999999 	1.99683887325273 	-1.38777878078145e-17 	0.506322389891175 	-0.000710574586586504 	0
5.99999999999999 	2.00015300348844 	-1.38777878078145e-17 	0.463373558375276 	-0.000560486911521967 	0
5.99999999999999 	2.00335001773022 	-1.73472347597681e-17 	0.415335744221016 	-0.00042736660866929 	0
5.99999999999999 	2.00643405466757 	-2.08166817117217e-17 	0.361860371455703 	-0.000311302209918477 	0
5.99999999999999 	2.00940910673542 	-2.08166817117217e-17 	0.30375786342053 	-0.000213324938562127 	0
5.99999999999999 	2.01227902528252 	-1.73472347597681e-17 	0.243380585729114 	-0.000134894957627587 	0
5.99999999999999 	2.01504752555717 	-2.08166817117217e-17 	0.183708626200956 	-7.63491258874525e-05 	0
5.99999999999999 	2.01771819151684 	-2.08166817117217e-17 	0.126832279866275 	-3.62272325507335e-05 	0
5.99999999999999 	2.02029448046774 	-2.08166817117217e-17 	0.0735374333246097 	-1.21945326244823e-05 	0
5.99999999999999 	2.02277972754047 	-2.77555756156289e-17 	0.023780138147118 	-1.3990517128112e-06 	0
