# omega  FACE_DATA 2209
#  x  y  z  omega
0.0005 4.59758e-05 4.59758e-05 25285.4
0.0005 0.000133748 4.59758e-05 26406.8
0.0005 0.000213541 4.59758e-05 28412.2
0.0005 0.000286079 4.59758e-05 31153.7
0.0005 0.000352024 4.59758e-05 34560.3
0.0005 0.000411973 4.59758e-05 38621.5
0.0005 0.000466473 4.59758e-05 43371.7
0.0005 0.000516018 4.59758e-05 48878.3
0.0005 0.000561059 4.59758e-05 55233.6
0.0005 0.000602005 4.59758e-05 62549.4
0.0005 0.000639229 4.59758e-05 70955.4
0.0005 0.000673069 4.59758e-05 80600.5
0.0005 0.000703833 4.59758e-05 91655.9
0.0005 0.000731799 4.59758e-05 104322
0.0005 0.000757224 4.59758e-05 118836
0.0005 0.000780337 4.59758e-05 135491
0.0005 0.000801349 4.59758e-05 154679
0.0005 0.000820451 4.59758e-05 176813
0.0005 0.000837816 4.59758e-05 202276
0.0005 0.000853602 4.59758e-05 231522
0.0005 0.000867954 4.59758e-05 265111
0.0005 0.000881001 4.59758e-05 303727
0.0005 0.000892861 4.59758e-05 348200
0.0005 0.000903644 4.59758e-05 399507
0.0005 0.000913446 4.59758e-05 458783
0.0005 0.000922357 4.59758e-05 527354
0.0005 0.000930458 4.59758e-05 606791
0.0005 0.000937823 4.59758e-05 699052
0.0005 0.000944518 4.59758e-05 806777
0.0005 0.000950604 4.59758e-05 933837
0.0005 0.000956137 4.59758e-05 1.08626e+06
0.0005 0.000961167 4.59758e-05 1.2734e+06
0.0005 0.00096574 4.59758e-05 1.50955e+06
0.0005 0.000969897 4.59758e-05 1.81753e+06
0.0005 0.000973676 4.59758e-05 2.23457e+06
0.0005 0.000977112 4.59758e-05 2.8196e+06
0.0005 0.000980235 4.59758e-05 3.66529e+06
0.0005 0.000983075 4.59758e-05 4.92079e+06
0.0005 0.000985656 4.59758e-05 6.83823e+06
0.0005 0.000988002 4.59758e-05 9.87169e+06
0.0005 0.000990136 4.59758e-05 1.49032e+07
0.0005 0.000992075 4.59758e-05 2.38116e+07
0.0005 0.000993838 4.59758e-05 4.1107e+07
0.0005 0.000995441 4.59758e-05 7.95383e+07
0.0005 0.000996898 4.59758e-05 1.84803e+08
0.0005 0.000998222 4.59758e-05 5.94344e+08
0.0005 0.000999427 4.59758e-05 3.64963e+09
0.0005 4.59758e-05 0.000133748 26406.8
0.0005 0.000133748 0.000133748 27538
0.0005 0.000213541 0.000133748 29551.5
0.0005 0.000286079 0.000133748 32292.8
0.0005 0.000352024 0.000133748 35683.8
0.0005 0.000411973 0.000133748 39708.1
0.0005 0.000466473 0.000133748 44396.1
0.0005 0.000516018 0.000133748 49813.6
0.0005 0.000561059 0.000133748 56052.7
0.0005 0.000602005 0.000133748 63227.6
0.0005 0.000639229 0.000133748 71471.8
0.0005 0.000673069 0.000133748 80939.2
0.0005 0.000703833 0.000133748 91806.3
0.0005 0.000731799 0.000133748 104278
0.0005 0.000757224 0.000133748 118594
0.0005 0.000780337 0.000133748 135040
0.0005 0.000801349 0.000133748 154001
0.0005 0.000820451 0.000133748 175914
0.0005 0.000837816 0.000133748 201193
0.0005 0.000853602 0.000133748 230302
0.0005 0.000867954 0.000133748 263793
0.0005 0.000881001 0.000133748 302342
0.0005 0.000892861 0.000133748 346766
0.0005 0.000903644 0.000133748 398029
0.0005 0.000913446 0.000133748 457257
0.0005 0.000922357 0.000133748 525765
0.0005 0.000930458 0.000133748 605116
0.0005 0.000937823 0.000133748 697265
0.0005 0.000944518 0.000133748 804851
0.0005 0.000950604 0.000133748 931752
0.0005 0.000956137 0.000133748 1.08401e+06
0.0005 0.000961167 0.000133748 1.27099e+06
0.0005 0.00096574 0.000133748 1.50699e+06
0.0005 0.000969897 0.000133748 1.81491e+06
0.0005 0.000973676 0.000133748 2.232e+06
0.0005 0.000977112 0.000133748 2.81721e+06
0.0005 0.000980235 0.000133748 3.66319e+06
0.0005 0.000983075 0.000133748 4.91905e+06
0.0005 0.000985656 0.000133748 6.83686e+06
0.0005 0.000988002 0.000133748 9.87067e+06
0.0005 0.000990136 0.000133748 1.49025e+07
0.0005 0.000992075 0.000133748 2.38111e+07
0.0005 0.000993838 0.000133748 4.11067e+07
0.0005 0.000995441 0.000133748 7.95382e+07
0.0005 0.000996898 0.000133748 1.84802e+08
0.0005 0.000998222 0.000133748 5.94344e+08
0.0005 0.000999427 0.000133748 3.64963e+09
0.0005 4.59758e-05 0.000213541 28412.2
0.0005 0.000133748 0.000213541 29551.5
0.0005 0.000213541 0.000213541 31572.1
0.0005 0.000286079 0.000213541 34305.7
0.0005 0.000352024 0.000213541 37664.6
0.0005 0.000411973 0.000213541 41624.2
0.0005 0.000466473 0.000213541 46209
0.0005 0.000516018 0.000213541 51481.2
0.0005 0.000561059 0.000213541 57531.8
0.0005 0.000602005 0.000213541 64476.8
0.0005 0.000639229 0.000213541 72454.2
0.0005 0.000673069 0.000213541 81624.2
0.0005 0.000703833 0.000213541 92171.4
0.0005 0.000731799 0.000213541 104308
0.0005 0.000757224 0.000213541 118280
0.0005 0.000780337 0.000213541 134377
0.0005 0.000801349 0.000213541 152953
0.0005 0.000820451 0.000213541 174460
0.0005 0.000837816 0.000213541 199382
0.0005 0.000853602 0.000213541 228206
0.0005 0.000867954 0.000213541 261484
0.0005 0.000881001 0.000213541 299880
0.0005 0.000892861 0.000213541 344190
0.0005 0.000903644 0.000213541 395357
0.0005 0.000913446 0.000213541 454484
0.0005 0.000922357 0.000213541 522871
0.0005 0.000930458 0.000213541 602067
0.0005 0.000937823 0.000213541 694015
0.0005 0.000944518 0.000213541 801355
0.0005 0.000950604 0.000213541 927976
0.0005 0.000956137 0.000213541 1.07994e+06
0.0005 0.000961167 0.000213541 1.26664e+06
0.0005 0.00096574 0.000213541 1.50241e+06
0.0005 0.000969897 0.000213541 1.81022e+06
0.0005 0.000973676 0.000213541 2.22741e+06
0.0005 0.000977112 0.000213541 2.81296e+06
0.0005 0.000980235 0.000213541 3.65946e+06
0.0005 0.000983075 0.000213541 4.91595e+06
0.0005 0.000985656 0.000213541 6.83443e+06
0.0005 0.000988002 0.000213541 9.86886e+06
0.0005 0.000990136 0.000213541 1.49012e+07
0.0005 0.000992075 0.000213541 2.38103e+07
0.0005 0.000993838 0.000213541 4.11062e+07
0.0005 0.000995441 0.000213541 7.95379e+07
0.0005 0.000996898 0.000213541 1.84802e+08
0.0005 0.000998222 0.000213541 5.94344e+08
0.0005 0.000999427 0.000213541 3.64963e+09
0.0005 4.59758e-05 0.000286079 31153.7
0.0005 0.000133748 0.000286079 32292.8
0.0005 0.000213541 0.000286079 34305.7
0.0005 0.000286079 0.000286079 37015.1
0.0005 0.000352024 0.000286079 40321.7
0.0005 0.000411973 0.000286079 44193.3
0.0005 0.000466473 0.000286079 48648.6
0.0005 0.000516018 0.000286079 53745.1
0.0005 0.000561059 0.000286079 59571.4
0.0005 0.000602005 0.000286079 66242.6
0.0005 0.000639229 0.000286079 73898.2
0.0005 0.000673069 0.000286079 82703.1
0.0005 0.000703833 0.000286079 92848.8
0.0005 0.000731799 0.000286079 104556
0.0005 0.000757224 0.000286079 118080
0.0005 0.000780337 0.000286079 133715
0.0005 0.000801349 0.000286079 151807
0.0005 0.000820451 0.000286079 172789
0.0005 0.000837816 0.000286079 197187
0.0005 0.000853602 0.000286079 225557
0.0005 0.000867954 0.000286079 258473
0.0005 0.000881001 0.000286079 296591
0.0005 0.000892861 0.000286079 340688
0.0005 0.000903644 0.000286079 391679
0.0005 0.000913446 0.000286079 450640
0.0005 0.000922357 0.000286079 518843
0.0005 0.000930458 0.000286079 597815
0.0005 0.000937823 0.000286079 689486
0.0005 0.000944518 0.000286079 796494
0.0005 0.000950604 0.000286079 922740
0.0005 0.000956137 0.000286079 1.07433e+06
0.0005 0.000961167 0.000286079 1.26067e+06
0.0005 0.00096574 0.000286079 1.49613e+06
0.0005 0.000969897 0.000286079 1.80381e+06
0.0005 0.000973676 0.000286079 2.22116e+06
0.0005 0.000977112 0.000286079 2.80718e+06
0.0005 0.000980235 0.000286079 3.65441e+06
0.0005 0.000983075 0.000286079 4.91178e+06
0.0005 0.000985656 0.000286079 6.83115e+06
0.0005 0.000988002 0.000286079 9.86642e+06
0.0005 0.000990136 0.000286079 1.48995e+07
0.0005 0.000992075 0.000286079 2.38092e+07
0.0005 0.000993838 0.000286079 4.11056e+07
0.0005 0.000995441 0.000286079 7.95376e+07
0.0005 0.000996898 0.000286079 1.84802e+08
0.0005 0.000998222 0.000286079 5.94344e+08
0.0005 0.000999427 0.000286079 3.64963e+09
0.0005 4.59758e-05 0.000352024 34560.3
0.0005 0.000133748 0.000352024 35683.8
0.0005 0.000213541 0.000352024 37664.6
0.0005 0.000286079 0.000352024 40321.7
0.0005 0.000352024 0.000352024 43550.7
0.0005 0.000411973 0.000352024 47311.5
0.0005 0.000466473 0.000352024 51617.8
0.0005 0.000516018 0.000352024 56523.3
0.0005 0.000561059 0.000352024 62113.2
0.0005 0.000602005 0.000352024 68498.7
0.0005 0.000639229 0.000352024 75816.3
0.0005 0.000673069 0.000352024 84229.5
0.0005 0.000703833 0.000352024 93932.8
0.0005 0.000731799 0.000352024 105154
0.0005 0.000757224 0.000352024 118158
0.0005 0.000780337 0.000352024 133249
0.0005 0.000801349 0.000352024 150779
0.0005 0.000820451 0.000352024 171159
0.0005 0.000837816 0.000352024 194912
0.0005 0.000853602 0.000352024 222657
0.0005 0.000867954 0.000352024 255032
0.0005 0.000881001 0.000352024 292711
0.0005 0.000892861 0.000352024 336456
0.0005 0.000903644 0.000352024 387158
0.0005 0.000913446 0.000352024 445860
0.0005 0.000922357 0.000352024 513799
0.0005 0.000930458 0.000352024 592473
0.0005 0.000937823 0.000352024 683793
0.0005 0.000944518 0.000352024 790392
0.0005 0.000950604 0.000352024 916188
0.0005 0.000956137 0.000352024 1.06733e+06
0.0005 0.000961167 0.000352024 1.25325e+06
0.0005 0.00096574 0.000352024 1.48837e+06
0.0005 0.000969897 0.000352024 1.79594e+06
0.0005 0.000973676 0.000352024 2.21352e+06
0.0005 0.000977112 0.000352024 2.80015e+06
0.0005 0.000980235 0.000352024 3.64828e+06
0.0005 0.000983075 0.000352024 4.90671e+06
0.0005 0.000985656 0.000352024 6.82718e+06
0.0005 0.000988002 0.000352024 9.86348e+06
0.0005 0.000990136 0.000352024 1.48974e+07
0.0005 0.000992075 0.000352024 2.38078e+07
0.0005 0.000993838 0.000352024 4.11048e+07
0.0005 0.000995441 0.000352024 7.95371e+07
0.0005 0.000996898 0.000352024 1.84802e+08
0.0005 0.000998222 0.000352024 5.94344e+08
0.0005 0.000999427 0.000352024 3.64963e+09
0.0005 4.59758e-05 0.000411973 38621.5
0.0005 0.000133748 0.000411973 39708.1
0.0005 0.000213541 0.000411973 41624.2
0.0005 0.000286079 0.000411973 44193.3
0.0005 0.000352024 0.000411973 47311.5
0.0005 0.000411973 0.000411973 50935.9
0.0005 0.000466473 0.000411973 55074.4
0.0005 0.000516018 0.000411973 59778.2
0.0005 0.000561059 0.000411973 65130.4
0.0005 0.000602005 0.000411973 71237.2
0.0005 0.000639229 0.000411973 78227
0.0005 0.000673069 0.000411973 86252.5
0.0005 0.000703833 0.000411973 95503.6
0.0005 0.000731799 0.000411973 106212
0.0005 0.000757224 0.000411973 118652
0.0005 0.000780337 0.000411973 133138
0.0005 0.000801349 0.000411973 150033
0.0005 0.000820451 0.000411973 169755
0.0005 0.000837816 0.000411973 192795
0.0005 0.000853602 0.000411973 219779
0.0005 0.000867954 0.000411973 251432
0.0005 0.000881001 0.000411973 288481
0.0005 0.000892861 0.000411973 331699
0.0005 0.000903644 0.000411973 381961
0.0005 0.000913446 0.000411973 440278
0.0005 0.000922357 0.000411973 507848
0.0005 0.000930458 0.000411973 586135
0.0005 0.000937823 0.000411973 677024
0.0005 0.000944518 0.000411973 783140
0.0005 0.000950604 0.000411973 908420
0.0005 0.000956137 0.000411973 1.05907e+06
0.0005 0.000961167 0.000411973 1.24453e+06
0.0005 0.00096574 0.000411973 1.47929e+06
0.0005 0.000969897 0.000411973 1.78678e+06
0.0005 0.000973676 0.000411973 2.20468e+06
0.0005 0.000977112 0.000411973 2.79204e+06
0.0005 0.000980235 0.000411973 3.64123e+06
0.0005 0.000983075 0.000411973 4.90091e+06
0.0005 0.000985656 0.000411973 6.82265e+06
0.0005 0.000988002 0.000411973 9.86012e+06
0.0005 0.000990136 0.000411973 1.48951e+07
0.0005 0.000992075 0.000411973 2.38063e+07
0.0005 0.000993838 0.000411973 4.11039e+07
0.0005 0.000995441 0.000411973 7.95367e+07
0.0005 0.000996898 0.000411973 1.84802e+08
0.0005 0.000998222 0.000411973 5.94344e+08
0.0005 0.000999427 0.000411973 3.64963e+09
0.0005 4.59758e-05 0.000466473 43371.7
0.0005 0.000133748 0.000466473 44396.1
0.0005 0.000213541 0.000466473 46209
0.0005 0.000286079 0.000466473 48648.6
0.0005 0.000352024 0.000466473 51617.8
0.0005 0.000411973 0.000466473 55074.4
0.0005 0.000466473 0.000466473 59023.5
0.0005 0.000516018 0.000466473 63512.6
0.0005 0.000561059 0.000466473 68626
0.0005 0.000602005 0.000466473 74468.7
0.0005 0.000639229 0.000466473 81154.6
0.0005 0.000673069 0.000466473 88813.7
0.0005 0.000703833 0.000466473 97622
0.0005 0.000731799 0.000466473 107812
0.0005 0.000757224 0.000466473 119665
0.0005 0.000780337 0.000466473 133507
0.0005 0.000801349 0.000466473 149710
0.0005 0.000820451 0.000466473 168704
0.0005 0.000837816 0.000466473 190986
0.0005 0.000853602 0.000466473 217144
0.0005 0.000867954 0.000466473 247918
0.0005 0.000881001 0.000466473 284144
0.0005 0.000892861 0.000466473 326637
0.0005 0.000903644 0.000466473 376274
0.0005 0.000913446 0.000466473 434046
0.0005 0.000922357 0.000466473 501115
0.0005 0.000930458 0.000466473 578904
0.0005 0.000937823 0.000466473 669268
0.0005 0.000944518 0.000466473 774822
0.0005 0.000950604 0.000466473 899520
0.0005 0.000956137 0.000466473 1.04963e+06
0.0005 0.000961167 0.000466473 1.23461e+06
0.0005 0.00096574 0.000466473 1.46903e+06
0.0005 0.000969897 0.000466473 1.77647e+06
0.0005 0.000973676 0.000466473 2.19477e+06
0.0005 0.000977112 0.000466473 2.78299e+06
0.0005 0.000980235 0.000466473 3.6334e+06
0.0005 0.000983075 0.000466473 4.89448e+06
0.0005 0.000985656 0.000466473 6.81763e+06
0.0005 0.000988002 0.000466473 9.85641e+06
0.0005 0.000990136 0.000466473 1.48925e+07
0.0005 0.000992075 0.000466473 2.38046e+07
0.0005 0.000993838 0.000466473 4.11028e+07
0.0005 0.000995441 0.000466473 7.95361e+07
0.0005 0.000996898 0.000466473 1.84802e+08
0.0005 0.000998222 0.000466473 5.94344e+08
0.0005 0.000999427 0.000466473 3.64963e+09
0.0005 4.59758e-05 0.000516018 48878.3
0.0005 0.000133748 0.000516018 49813.6
0.0005 0.000213541 0.000516018 51481.2
0.0005 0.000286079 0.000516018 53745.1
0.0005 0.000352024 0.000516018 56523.3
0.0005 0.000411973 0.000516018 59778.2
0.0005 0.000466473 0.000516018 63512.6
0.0005 0.000516018 0.000516018 67773
0.0005 0.000561059 0.000516018 72653
0.0005 0.000602005 0.000516018 78239.4
0.0005 0.000639229 0.000516018 84623.1
0.0005 0.000673069 0.000516018 91928.2
0.0005 0.000703833 0.000516018 100320
0.0005 0.000731799 0.000516018 110008
0.0005 0.000757224 0.000516018 121269
0.0005 0.000780337 0.000516018 134444
0.0005 0.000801349 0.000516018 149919
0.0005 0.000820451 0.000516018 168132
0.0005 0.000837816 0.000516018 189589
0.0005 0.000853602 0.000516018 214878
0.0005 0.000867954 0.000516018 244705
0.0005 0.000881001 0.000516018 279935
0.0005 0.000892861 0.000516018 321497
0.0005 0.000903644 0.000516018 370304
0.0005 0.000913446 0.000516018 427343
0.0005 0.000922357 0.000516018 493749
0.0005 0.000930458 0.000516018 570905
0.0005 0.000937823 0.000516018 660635
0.0005 0.000944518 0.000516018 765537
0.0005 0.000950604 0.000516018 889584
0.0005 0.000956137 0.000516018 1.03911e+06
0.0005 0.000961167 0.000516018 1.2236e+06
0.0005 0.00096574 0.000516018 1.45767e+06
0.0005 0.000969897 0.000516018 1.76513e+06
0.0005 0.000973676 0.000516018 2.18393e+06
0.0005 0.000977112 0.000516018 2.77314e+06
0.0005 0.000980235 0.000516018 3.62491e+06
0.0005 0.000983075 0.000516018 4.88753e+06
0.0005 0.000985656 0.000516018 6.81222e+06
0.0005 0.000988002 0.000516018 9.85241e+06
0.0005 0.000990136 0.000516018 1.48897e+07
0.0005 0.000992075 0.000516018 2.38028e+07
0.0005 0.000993838 0.000516018 4.11018e+07
0.0005 0.000995441 0.000516018 7.95356e+07
0.0005 0.000996898 0.000516018 1.84801e+08
0.0005 0.000998222 0.000516018 5.94344e+08
0.0005 0.000999427 0.000516018 3.64963e+09
0.0005 4.59758e-05 0.000561059 55233.6
0.0005 0.000133748 0.000561059 56052.7
0.0005 0.000213541 0.000561059 57531.8
0.0005 0.000286079 0.000561059 59571.4
0.0005 0.000352024 0.000561059 62113.2
0.0005 0.000411973 0.000561059 65130.4
0.0005 0.000466473 0.000561059 68626
0.0005 0.000516018 0.000561059 72653
0.0005 0.000561059 0.000561059 77291.3
0.0005 0.000602005 0.000561059 82600.6
0.0005 0.000639229 0.000561059 88664.7
0.0005 0.000673069 0.000561059 95605
0.0005 0.000703833 0.000561059 103582
0.0005 0.000731799 0.000561059 112798
0.0005 0.000757224 0.000561059 123505
0.0005 0.000780337 0.000561059 136025
0.0005 0.000801349 0.000561059 150755
0.0005 0.000820451 0.000561059 168153
0.0005 0.000837816 0.000561059 188733
0.0005 0.000853602 0.000561059 213088
0.0005 0.000867954 0.000561059 241910
0.0005 0.000881001 0.000561059 276051
0.0005 0.000892861 0.000561059 316505
0.0005 0.000903644 0.000561059 364275
0.0005 0.000913446 0.000561059 420376
0.0005 0.000922357 0.000561059 485933
0.0005 0.000930458 0.000561059 562300
0.0005 0.000937823 0.000561059 651270
0.0005 0.000944518 0.000561059 755426
0.0005 0.000950604 0.000561059 878760
0.0005 0.000956137 0.000561059 1.02765e+06
0.0005 0.000961167 0.000561059 1.21163e+06
0.0005 0.00096574 0.000561059 1.44536e+06
0.0005 0.000969897 0.000561059 1.75289e+06
0.0005 0.000973676 0.000561059 2.17227e+06
0.0005 0.000977112 0.000561059 2.76259e+06
0.0005 0.000980235 0.000561059 3.61585e+06
0.0005 0.000983075 0.000561059 4.88013e+06
0.0005 0.000985656 0.000561059 6.80648e+06
0.0005 0.000988002 0.000561059 9.84817e+06
0.0005 0.000990136 0.000561059 1.48867e+07
0.0005 0.000992075 0.000561059 2.38009e+07
0.0005 0.000993838 0.000561059 4.11006e+07
0.0005 0.000995441 0.000561059 7.95349e+07
0.0005 0.000996898 0.000561059 1.84801e+08
0.0005 0.000998222 0.000561059 5.94344e+08
0.0005 0.000999427 0.000561059 3.64963e+09
0.0005 4.59758e-05 0.000602005 62549.4
0.0005 0.000133748 0.000602005 63227.6
0.0005 0.000213541 0.000602005 64476.8
0.0005 0.000286079 0.000602005 66242.6
0.0005 0.000352024 0.000602005 68498.7
0.0005 0.000411973 0.000602005 71237.2
0.0005 0.000466473 0.000602005 74468.7
0.0005 0.000516018 0.000602005 78239.4
0.0005 0.000561059 0.000602005 82600.6
0.0005 0.000602005 0.000602005 87600.9
0.0005 0.000639229 0.000602005 93325.3
0.0005 0.000673069 0.000602005 99890.7
0.0005 0.000703833 0.000602005 107452
0.0005 0.000731799 0.000602005 116205
0.0005 0.000757224 0.000602005 126387
0.0005 0.000780337 0.000602005 138295
0.0005 0.000801349 0.000602005 152300
0.0005 0.000820451 0.000602005 168866
0.0005 0.000837816 0.000602005 188532
0.0005 0.000853602 0.000602005 211899
0.0005 0.000867954 0.000602005 239665
0.0005 0.000881001 0.000602005 272648
0.0005 0.000892861 0.000602005 311859
0.0005 0.000903644 0.000602005 358407
0.0005 0.000913446 0.000602005 413359
0.0005 0.000922357 0.000602005 477860
0.0005 0.000930458 0.000602005 553258
0.0005 0.000937823 0.000602005 641331
0.0005 0.000944518 0.000602005 744659
0.0005 0.000950604 0.000602005 867265
0.0005 0.000956137 0.000602005 1.01549e+06
0.0005 0.000961167 0.000602005 1.19885e+06
0.0005 0.00096574 0.000602005 1.43222e+06
0.0005 0.000969897 0.000602005 1.73983e+06
0.0005 0.000973676 0.000602005 2.15989e+06
0.0005 0.000977112 0.000602005 2.75143e+06
0.0005 0.000980235 0.000602005 3.60629e+06
0.0005 0.000983075 0.000602005 4.87234e+06
0.0005 0.000985656 0.000602005 6.80044e+06
0.0005 0.000988002 0.000602005 9.84373e+06
0.0005 0.000990136 0.000602005 1.48837e+07
0.0005 0.000992075 0.000602005 2.37989e+07
0.0005 0.000993838 0.000602005 4.10994e+07
0.0005 0.000995441 0.000602005 7.95343e+07
0.0005 0.000996898 0.000602005 1.84801e+08
0.0005 0.000998222 0.000602005 5.94343e+08
0.0005 0.000999427 0.000602005 3.64963e+09
0.0005 4.59758e-05 0.000639229 70955.4
0.0005 0.000133748 0.000639229 71471.8
0.0005 0.000213541 0.000639229 72454.2
0.0005 0.000286079 0.000639229 73898.2
0.0005 0.000352024 0.000639229 75816.3
0.0005 0.000411973 0.000639229 78227
0.0005 0.000466473 0.000639229 81154.6
0.0005 0.000516018 0.000639229 84623.1
0.0005 0.000561059 0.000639229 88664.7
0.0005 0.000602005 0.000639229 93325.3
0.0005 0.000639229 0.000639229 98685.1
0.0005 0.000673069 0.000639229 104863
0.0005 0.000703833 0.000639229 112005
0.0005 0.000731799 0.000639229 120294
0.0005 0.000757224 0.000639229 129960
0.0005 0.000780337 0.000639229 141283
0.0005 0.000801349 0.000639229 154607
0.0005 0.000820451 0.000639229 170364
0.0005 0.000837816 0.000639229 189097
0.0005 0.000853602 0.000639229 211437
0.0005 0.000867954 0.000639229 238087
0.0005 0.000881001 0.000639229 269867
0.0005 0.000892861 0.000639229 307765
0.0005 0.000903644 0.000639229 352928
0.0005 0.000913446 0.000639229 406529
0.0005 0.000922357 0.000639229 469759
0.0005 0.000930458 0.000639229 543983
0.0005 0.000937823 0.000639229 630976
0.0005 0.000944518 0.000639229 733328
0.0005 0.000950604 0.000639229 855099
0.0005 0.000956137 0.000639229 1.00258e+06
0.0005 0.000961167 0.000639229 1.18529e+06
0.0005 0.00096574 0.000639229 1.41831e+06
0.0005 0.000969897 0.000639229 1.72608e+06
0.0005 0.000973676 0.000639229 2.1469e+06
0.0005 0.000977112 0.000639229 2.73977e+06
0.0005 0.000980235 0.000639229 3.59633e+06
0.0005 0.000983075 0.000639229 4.86426e+06
0.0005 0.000985656 0.000639229 6.79419e+06
0.0005 0.000988002 0.000639229 9.83913e+06
0.0005 0.000990136 0.000639229 1.48805e+07
0.0005 0.000992075 0.000639229 2.37968e+07
0.0005 0.000993838 0.000639229 4.10982e+07
0.0005 0.000995441 0.000639229 7.95337e+07
0.0005 0.000996898 0.000639229 1.848e+08
0.0005 0.000998222 0.000639229 5.94343e+08
0.0005 0.000999427 0.000639229 3.64963e+09
0.0005 4.59758e-05 0.000673069 80600.5
0.0005 0.000133748 0.000673069 80939.2
0.0005 0.000213541 0.000673069 81624.2
0.0005 0.000286079 0.000673069 82703.1
0.0005 0.000352024 0.000673069 84229.5
0.0005 0.000411973 0.000673069 86252.5
0.0005 0.000466473 0.000673069 88813.7
0.0005 0.000516018 0.000673069 91928.2
0.0005 0.000561059 0.000673069 95605
0.0005 0.000602005 0.000673069 99890.7
0.0005 0.000639229 0.000673069 104863
0.0005 0.000673069 0.000673069 110630
0.0005 0.000703833 0.000673069 117338
0.0005 0.000731799 0.000673069 125158
0.0005 0.000757224 0.000673069 134306
0.0005 0.000780337 0.000673069 145049
0.0005 0.000801349 0.000673069 157714
0.0005 0.000820451 0.000673069 172707
0.0005 0.000837816 0.000673069 190532
0.0005 0.000853602 0.000673069 211822
0.0005 0.000867954 0.000673069 237315
0.0005 0.000881001 0.000673069 267837
0.0005 0.000892861 0.000673069 304353
0.0005 0.000903644 0.000673069 348023
0.0005 0.000913446 0.000673069 400107
0.0005 0.000922357 0.000673069 461863
0.0005 0.000930458 0.000673069 534695
0.0005 0.000937823 0.000673069 620403
0.0005 0.000944518 0.000673069 721599
0.0005 0.000950604 0.000673069 842397
0.0005 0.000956137 0.000673069 989049
0.0005 0.000961167 0.000673069 1.17106e+06
0.0005 0.00096574 0.000673069 1.40374e+06
0.0005 0.000969897 0.000673069 1.71172e+06
0.0005 0.000973676 0.000673069 2.1334e+06
0.0005 0.000977112 0.000673069 2.72769e+06
0.0005 0.000980235 0.000673069 3.58607e+06
0.0005 0.000983075 0.000673069 4.85594e+06
0.0005 0.000985656 0.000673069 6.78777e+06
0.0005 0.000988002 0.000673069 9.83442e+06
0.0005 0.000990136 0.000673069 1.48772e+07
0.0005 0.000992075 0.000673069 2.37947e+07
0.0005 0.000993838 0.000673069 4.10969e+07
0.0005 0.000995441 0.000673069 7.9533e+07
0.0005 0.000996898 0.000673069 1.848e+08
0.0005 0.000998222 0.000673069 5.94343e+08
0.0005 0.000999427 0.000673069 3.64963e+09
0.0005 4.59758e-05 0.000703833 91655.9
0.0005 0.000133748 0.000703833 91806.3
0.0005 0.000213541 0.000703833 92171.4
0.0005 0.000286079 0.000703833 92848.8
0.0005 0.000352024 0.000703833 93932.8
0.0005 0.000411973 0.000703833 95503.6
0.0005 0.000466473 0.000703833 97622
0.0005 0.000516018 0.000703833 100320
0.0005 0.000561059 0.000703833 103582
0.0005 0.000602005 0.000703833 107452
0.0005 0.000639229 0.000703833 112005
0.0005 0.000673069 0.000703833 117338
0.0005 0.000703833 0.000703833 123583
0.0005 0.000731799 0.000703833 130915
0.0005 0.000757224 0.000703833 139532
0.0005 0.000780337 0.000703833 149688
0.0005 0.000801349 0.000703833 161695
0.0005 0.000820451 0.000703833 175939
0.0005 0.000837816 0.000703833 192900
0.0005 0.000853602 0.000703833 213167
0.0005 0.000867954 0.000703833 237475
0.0005 0.000881001 0.000703833 266687
0.0005 0.000892861 0.000703833 301769
0.0005 0.000903644 0.000703833 343874
0.0005 0.000913446 0.000703833 394301
0.0005 0.000922357 0.000703833 454392
0.0005 0.000930458 0.000703833 525621
0.0005 0.000937823 0.000703833 609834
0.0005 0.000944518 0.000703833 709685
0.0005 0.000950604 0.000703833 829350
0.0005 0.000956137 0.000703833 975049
0.0005 0.000961167 0.000703833 1.15629e+06
0.0005 0.00096574 0.000703833 1.38861e+06
0.0005 0.000969897 0.000703833 1.69685e+06
0.0005 0.000973676 0.000703833 2.11947e+06
0.0005 0.000977112 0.000703833 2.71528e+06
0.0005 0.000980235 0.000703833 3.57554e+06
0.0005 0.000983075 0.000703833 4.84744e+06
0.0005 0.000985656 0.000703833 6.78123e+06
0.0005 0.000988002 0.000703833 9.82962e+06
0.0005 0.000990136 0.000703833 1.48739e+07
0.0005 0.000992075 0.000703833 2.37925e+07
0.0005 0.000993838 0.000703833 4.10956e+07
0.0005 0.000995441 0.000703833 7.95323e+07
0.0005 0.000996898 0.000703833 1.848e+08
0.0005 0.000998222 0.000703833 5.94343e+08
0.0005 0.000999427 0.000703833 3.64963e+09
0.0005 4.59758e-05 0.000731799 104322
0.0005 0.000133748 0.000731799 104278
0.0005 0.000213541 0.000731799 104308
0.0005 0.000286079 0.000731799 104556
0.0005 0.000352024 0.000731799 105154
0.0005 0.000411973 0.000731799 106212
0.0005 0.000466473 0.000731799 107812
0.0005 0.000516018 0.000731799 110008
0.0005 0.000561059 0.000731799 112798
0.0005 0.000602005 0.000731799 116205
0.0005 0.000639229 0.000731799 120294
0.0005 0.000673069 0.000731799 125158
0.0005 0.000703833 0.000731799 130915
0.0005 0.000731799 0.000731799 137718
0.0005 0.000757224 0.000731799 145779
0.0005 0.000780337 0.000731799 155329
0.0005 0.000801349 0.000731799 166664
0.0005 0.000820451 0.000731799 180154
0.0005 0.000837816 0.000731799 196260
0.0005 0.000853602 0.000731799 215545
0.0005 0.000867954 0.000731799 238695
0.0005 0.000881001 0.000731799 266563
0.0005 0.000892861 0.000731799 300155
0.0005 0.000903644 0.000731799 340624
0.0005 0.000913446 0.000731799 389279
0.0005 0.000922357 0.000731799 447538
0.0005 0.000930458 0.000731799 516963
0.0005 0.000937823 0.000731799 599495
0.0005 0.000944518 0.000731799 697884
0.0005 0.000950604 0.000731799 816260
0.0005 0.000956137 0.000731799 960778
0.0005 0.000961167 0.000731799 1.14112e+06
0.0005 0.00096574 0.000731799 1.37304e+06
0.0005 0.000969897 0.000731799 1.68155e+06
0.0005 0.000973676 0.000731799 2.10517e+06
0.0005 0.000977112 0.000731799 2.70259e+06
0.0005 0.000980235 0.000731799 3.56482e+06
0.0005 0.000983075 0.000731799 4.8388e+06
0.0005 0.000985656 0.000731799 6.77458e+06
0.0005 0.000988002 0.000731799 9.82476e+06
0.0005 0.000990136 0.000731799 1.48705e+07
0.0005 0.000992075 0.000731799 2.37903e+07
0.0005 0.000993838 0.000731799 4.10943e+07
0.0005 0.000995441 0.000731799 7.95316e+07
0.0005 0.000996898 0.000731799 1.848e+08
0.0005 0.000998222 0.000731799 5.94343e+08
0.0005 0.000999427 0.000731799 3.64963e+09
0.0005 4.59758e-05 0.000757224 118836
0.0005 0.000133748 0.000757224 118594
0.0005 0.000213541 0.000757224 118280
0.0005 0.000286079 0.000757224 118080
0.0005 0.000352024 0.000757224 118158
0.0005 0.000411973 0.000757224 118652
0.0005 0.000466473 0.000757224 119665
0.0005 0.000516018 0.000757224 121269
0.0005 0.000561059 0.000757224 123505
0.0005 0.000602005 0.000757224 126387
0.0005 0.000639229 0.000757224 129960
0.0005 0.000673069 0.000757224 134306
0.0005 0.000703833 0.000757224 139532
0.0005 0.000731799 0.000757224 145779
0.0005 0.000757224 0.000757224 153228
0.0005 0.000780337 0.000757224 162136
0.0005 0.000801349 0.000757224 172771
0.0005 0.000820451 0.000757224 185488
0.0005 0.000837816 0.000757224 200735
0.0005 0.000853602 0.000757224 219041
0.0005 0.000867954 0.000757224 241056
0.0005 0.000881001 0.000757224 267601
0.0005 0.000892861 0.000757224 299670
0.0005 0.000903644 0.000757224 338433
0.0005 0.000913446 0.000757224 385221
0.0005 0.000922357 0.000757224 441505
0.0005 0.000930458 0.000757224 508947
0.0005 0.000937823 0.000757224 589592
0.0005 0.000944518 0.000757224 686298
0.0005 0.000950604 0.000757224 803168
0.0005 0.000956137 0.000757224 946326
0.0005 0.000961167 0.000757224 1.12565e+06
0.0005 0.00096574 0.000757224 1.35714e+06
0.0005 0.000969897 0.000757224 1.66596e+06
0.0005 0.000973676 0.000757224 2.09064e+06
0.0005 0.000977112 0.000757224 2.68972e+06
0.0005 0.000980235 0.000757224 3.55398e+06
0.0005 0.000983075 0.000757224 4.83008e+06
0.0005 0.000985656 0.000757224 6.76789e+06
0.0005 0.000988002 0.000757224 9.81987e+06
0.0005 0.000990136 0.000757224 1.48671e+07
0.0005 0.000992075 0.000757224 2.37881e+07
0.0005 0.000993838 0.000757224 4.1093e+07
0.0005 0.000995441 0.000757224 7.95309e+07
0.0005 0.000996898 0.000757224 1.84799e+08
0.0005 0.000998222 0.000757224 5.94343e+08
0.0005 0.000999427 0.000757224 3.64963e+09
0.0005 4.59758e-05 0.000780337 135491
0.0005 0.000133748 0.000780337 135040
0.0005 0.000213541 0.000780337 134377
0.0005 0.000286079 0.000780337 133715
0.0005 0.000352024 0.000780337 133249
0.0005 0.000411973 0.000780337 133138
0.0005 0.000466473 0.000780337 133507
0.0005 0.000516018 0.000780337 134444
0.0005 0.000561059 0.000780337 136025
0.0005 0.000602005 0.000780337 138295
0.0005 0.000639229 0.000780337 141283
0.0005 0.000673069 0.000780337 145049
0.0005 0.000703833 0.000780337 149688
0.0005 0.000731799 0.000780337 155329
0.0005 0.000757224 0.000780337 162136
0.0005 0.000780337 0.000780337 170325
0.0005 0.000801349 0.000780337 180214
0.0005 0.000820451 0.000780337 192117
0.0005 0.000837816 0.000780337 206488
0.0005 0.000853602 0.000780337 223812
0.0005 0.000867954 0.000780337 244686
0.0005 0.000881001 0.000780337 269903
0.0005 0.000892861 0.000780337 300436
0.0005 0.000903644 0.000780337 337443
0.0005 0.000913446 0.000780337 382268
0.0005 0.000922357 0.000780337 436446
0.0005 0.000930458 0.000780337 501743
0.0005 0.000937823 0.000780337 580349
0.0005 0.000944518 0.000780337 675152
0.0005 0.000950604 0.000780337 790223
0.0005 0.000956137 0.000780337 931812
0.0005 0.000961167 0.000780337 1.11001e+06
0.0005 0.00096574 0.000780337 1.34102e+06
0.0005 0.000969897 0.000780337 1.65018e+06
0.0005 0.000973676 0.000780337 2.07598e+06
0.0005 0.000977112 0.000780337 2.67678e+06
0.0005 0.000980235 0.000780337 3.5431e+06
0.0005 0.000983075 0.000780337 4.82136e+06
0.0005 0.000985656 0.000780337 6.76121e+06
0.0005 0.000988002 0.000780337 9.81499e+06
0.0005 0.000990136 0.000780337 1.48637e+07
0.0005 0.000992075 0.000780337 2.37859e+07
0.0005 0.000993838 0.000780337 4.10917e+07
0.0005 0.000995441 0.000780337 7.95302e+07
0.0005 0.000996898 0.000780337 1.84799e+08
0.0005 0.000998222 0.000780337 5.94343e+08