# p  FACE_DATA 2209
#  x  y  z  p
0.0005 4.59758e-05 4.59758e-05 -2.86792e-14
0.0005 0.000133748 4.59758e-05 -4.79075e-14
0.0005 0.000213541 4.59758e-05 -4.1051e-14
0.0005 0.000286079 4.59758e-05 -4.17584e-14
0.0005 0.000352024 4.59758e-05 -4.20814e-14
0.0005 0.000411973 4.59758e-05 -4.23064e-14
0.0005 0.000466473 4.59758e-05 -4.27005e-14
0.0005 0.000516018 4.59758e-05 -4.37376e-14
0.0005 0.000561059 4.59758e-05 -4.39333e-14
0.0005 0.000602005 4.59758e-05 -4.39438e-14
0.0005 0.000639229 4.59758e-05 -4.41144e-14
0.0005 0.000673069 4.59758e-05 -4.45167e-14
0.0005 0.000703833 4.59758e-05 -4.52006e-14
0.0005 0.000731799 4.59758e-05 -4.57786e-14
0.0005 0.000757224 4.59758e-05 -4.62838e-14
0.0005 0.000780337 4.59758e-05 -4.67154e-14
0.0005 0.000801349 4.59758e-05 -4.72518e-14
0.0005 0.000820451 4.59758e-05 -4.78667e-14
0.0005 0.000837816 4.59758e-05 -4.72354e-14
0.0005 0.000853602 4.59758e-05 -4.71856e-14
0.0005 0.000867954 4.59758e-05 -4.75817e-14
0.0005 0.000881001 4.59758e-05 -4.80753e-14
0.0005 0.000892861 4.59758e-05 -4.84888e-14
0.0005 0.000903644 4.59758e-05 -4.88363e-14
0.0005 0.000913446 4.59758e-05 -4.91344e-14
0.0005 0.000922357 4.59758e-05 -4.93832e-14
0.0005 0.000930458 4.59758e-05 -4.95942e-14
0.0005 0.000937823 4.59758e-05 -4.97657e-14
0.0005 0.000944518 4.59758e-05 -4.99089e-14
0.0005 0.000950604 4.59758e-05 -5.00655e-14
0.0005 0.000956137 4.59758e-05 -5.02455e-14
0.0005 0.000961167 4.59758e-05 -5.01975e-14
0.0005 0.00096574 4.59758e-05 -5.01778e-14
0.0005 0.000969897 4.59758e-05 -5.02e-14
0.0005 0.000973676 4.59758e-05 -5.02429e-14
0.0005 0.000977112 4.59758e-05 -5.02081e-14
0.0005 0.000980235 4.59758e-05 -5.01863e-14
0.0005 0.000983075 4.59758e-05 -5.01788e-14
0.0005 0.000985656 4.59758e-05 -5.01725e-14
0.0005 0.000988002 4.59758e-05 -5.01632e-14
0.0005 0.000990136 4.59758e-05 -5.01529e-14
0.0005 0.000992075 4.59758e-05 -5.01409e-14
0.0005 0.000993838 4.59758e-05 -5.01511e-14
0.0005 0.000995441 4.59758e-05 -5.01674e-14
0.0005 0.000996898 4.59758e-05 -5.0164e-14
0.0005 0.000998222 4.59758e-05 -5.01632e-14
0.0005 0.000999427 4.59758e-05 -5.01652e-14
0.0005 4.59758e-05 0.000133748 -3.46966e-14
0.0005 0.000133748 0.000133748 -4.29581e-14
0.0005 0.000213541 0.000133748 -4.23571e-14
0.0005 0.000286079 0.000133748 -4.23245e-14
0.0005 0.000352024 0.000133748 -4.22574e-14
0.0005 0.000411973 0.000133748 -4.18907e-14
0.0005 0.000466473 0.000133748 -4.08076e-14
0.0005 0.000516018 0.000133748 -4.65415e-14
0.0005 0.000561059 0.000133748 -4.47553e-14
0.0005 0.000602005 0.000133748 -4.31415e-14
0.0005 0.000639229 0.000133748 -4.09806e-14
0.0005 0.000673069 0.000133748 -4.22785e-14
0.0005 0.000703833 0.000133748 -4.521e-14
0.0005 0.000731799 0.000133748 -4.6408e-14
0.0005 0.000757224 0.000133748 -4.70199e-14
0.0005 0.000780337 0.000133748 -4.77351e-14
0.0005 0.000801349 0.000133748 -4.86206e-14
0.0005 0.000820451 0.000133748 -4.96461e-14
0.0005 0.000837816 0.000133748 -4.95712e-14
0.0005 0.000853602 0.000133748 -5.05645e-14
0.0005 0.000867954 0.000133748 -5.13535e-14
0.0005 0.000881001 0.000133748 -5.16678e-14
0.0005 0.000892861 0.000133748 -5.16339e-14
0.0005 0.000903644 0.000133748 -5.2033e-14
0.0005 0.000913446 0.000133748 -5.25197e-14
0.0005 0.000922357 0.000133748 -5.30882e-14
0.0005 0.000930458 0.000133748 -5.37428e-14
0.0005 0.000937823 0.000133748 -5.41377e-14
0.0005 0.000944518 0.000133748 -5.42073e-14
0.0005 0.000950604 0.000133748 -5.44622e-14
0.0005 0.000956137 0.000133748 -5.47848e-14
0.0005 0.000961167 0.000133748 -5.51393e-14
0.0005 0.00096574 0.000133748 -5.52837e-14
0.0005 0.000969897 0.000133748 -5.55358e-14
0.0005 0.000973676 0.000133748 -5.58623e-14
0.0005 0.000977112 0.000133748 -5.61592e-14
0.0005 0.000980235 0.000133748 -5.64542e-14
0.0005 0.000983075 0.000133748 -5.67713e-14
0.0005 0.000985656 0.000133748 -5.71216e-14
0.0005 0.000988002 0.000133748 -5.74649e-14
0.0005 0.000990136 0.000133748 -5.78238e-14
0.0005 0.000992075 0.000133748 -5.82009e-14
0.0005 0.000993838 0.000133748 -5.85646e-14
0.0005 0.000995441 0.000133748 -5.88615e-14
0.0005 0.000996898 0.000133748 -5.91257e-14
0.0005 0.000998222 0.000133748 -5.93359e-14
0.0005 0.000999427 0.000133748 -5.94824e-14
0.0005 4.59758e-05 0.000213541 -4.18846e-14
0.0005 0.000133748 0.000213541 -4.27925e-14
0.0005 0.000213541 0.000213541 -4.28408e-14
0.0005 0.000286079 0.000213541 -4.28791e-14
0.0005 0.000352024 0.000213541 -4.29516e-14
0.0005 0.000411973 0.000213541 -4.30852e-14
0.0005 0.000466473 0.000213541 -4.34638e-14
0.0005 0.000516018 0.000213541 -4.46645e-14
0.0005 0.000561059 0.000213541 -4.49805e-14
0.0005 0.000602005 0.000213541 -4.50772e-14
0.0005 0.000639229 0.000213541 -4.52727e-14
0.0005 0.000673069 0.000213541 -4.60503e-14
0.0005 0.000703833 0.000213541 -4.63084e-14
0.0005 0.000731799 0.000213541 -4.64584e-14
0.0005 0.000757224 0.000213541 -4.63672e-14
0.0005 0.000780337 0.000213541 -4.59682e-14
0.0005 0.000801349 0.000213541 -4.71213e-14
0.0005 0.000820451 0.000213541 -4.80506e-14
0.0005 0.000837816 0.000213541 -4.88107e-14
0.0005 0.000853602 0.000213541 -4.95543e-14
0.0005 0.000867954 0.000213541 -5.03012e-14
0.0005 0.000881001 0.000213541 -5.10125e-14
0.0005 0.000892861 0.000213541 -5.1721e-14
0.0005 0.000903644 0.000213541 -5.22338e-14
0.0005 0.000913446 0.000213541 -5.2571e-14
0.0005 0.000922357 0.000213541 -5.30761e-14
0.0005 0.000930458 0.000213541 -5.33991e-14
0.0005 0.000937823 0.000213541 -5.35493e-14
0.0005 0.000944518 0.000213541 -5.36621e-14
0.0005 0.000950604 0.000213541 -5.37831e-14
0.0005 0.000956137 0.000213541 -5.39427e-14
0.0005 0.000961167 0.000213541 -5.4094e-14
0.0005 0.00096574 0.000213541 -5.42537e-14
0.0005 0.000969897 0.000213541 -5.44331e-14
0.0005 0.000973676 0.000213541 -5.46651e-14
0.0005 0.000977112 0.000213541 -5.48035e-14
0.0005 0.000980235 0.000213541 -5.49912e-14
0.0005 0.000983075 0.000213541 -5.51866e-14
0.0005 0.000985656 0.000213541 -5.53847e-14
0.0005 0.000988002 0.000213541 -5.55385e-14
0.0005 0.000990136 0.000213541 -5.57102e-14
0.0005 0.000992075 0.000213541 -5.58284e-14
0.0005 0.000993838 0.000213541 -5.58764e-14
0.0005 0.000995441 0.000213541 -5.59234e-14
0.0005 0.000996898 0.000213541 -5.5913e-14
0.0005 0.000998222 0.000213541 -5.59559e-14
0.0005 0.000999427 0.000213541 -5.60558e-14
0.0005 4.59758e-05 0.000286079 -4.28702e-14
0.0005 0.000133748 0.000286079 -4.32637e-14
0.0005 0.000213541 0.000286079 -4.33139e-14
0.0005 0.000286079 0.000286079 -4.33884e-14
0.0005 0.000352024 0.000286079 -4.3541e-14
0.0005 0.000411973 0.000286079 -4.38002e-14
0.0005 0.000466473 0.000286079 -4.42501e-14
0.0005 0.000516018 0.000286079 -4.50675e-14
0.0005 0.000561059 0.000286079 -4.58705e-14
0.0005 0.000602005 0.000286079 -4.65289e-14
0.0005 0.000639229 0.000286079 -4.66839e-14
0.0005 0.000673069 0.000286079 -4.69564e-14
0.0005 0.000703833 0.000286079 -4.73445e-14
0.0005 0.000731799 0.000286079 -4.74258e-14
0.0005 0.000757224 0.000286079 -4.7558e-14
0.0005 0.000780337 0.000286079 -4.78159e-14
0.0005 0.000801349 0.000286079 -4.80717e-14
0.0005 0.000820451 0.000286079 -4.84081e-14
0.0005 0.000837816 0.000286079 -4.87974e-14
0.0005 0.000853602 0.000286079 -4.91654e-14
0.0005 0.000867954 0.000286079 -4.95061e-14
0.0005 0.000881001 0.000286079 -4.9835e-14
0.0005 0.000892861 0.000286079 -5.0514e-14
0.0005 0.000903644 0.000286079 -5.09506e-14
0.0005 0.000913446 0.000286079 -5.11852e-14
0.0005 0.000922357 0.000286079 -5.1205e-14
0.0005 0.000930458 0.000286079 -5.1168e-14
0.0005 0.000937823 0.000286079 -5.1372e-14
0.0005 0.000944518 0.000286079 -5.14433e-14
0.0005 0.000950604 0.000286079 -5.14664e-14
0.0005 0.000956137 0.000286079 -5.14534e-14
0.0005 0.000961167 0.000286079 -5.15982e-14
0.0005 0.00096574 0.000286079 -5.16618e-14
0.0005 0.000969897 0.000286079 -5.16846e-14
0.0005 0.000973676 0.000286079 -5.17051e-14
0.0005 0.000977112 0.000286079 -5.17216e-14
0.0005 0.000980235 0.000286079 -5.17205e-14
0.0005 0.000983075 0.000286079 -5.16857e-14
0.0005 0.000985656 0.000286079 -5.1607e-14
0.0005 0.000988002 0.000286079 -5.154e-14
0.0005 0.000990136 0.000286079 -5.14289e-14
0.0005 0.000992075 0.000286079 -5.12716e-14
0.0005 0.000993838 0.000286079 -5.11515e-14
0.0005 0.000995441 0.000286079 -5.09862e-14
0.0005 0.000996898 0.000286079 -5.09265e-14
0.0005 0.000998222 0.000286079 -5.08787e-14
0.0005 0.000999427 0.000286079 -5.08348e-14
0.0005 4.59758e-05 0.000352024 -4.35828e-14
0.0005 0.000133748 0.000352024 -4.39109e-14
0.0005 0.000213541 0.000352024 -4.37701e-14
0.0005 0.000286079 0.000352024 -4.37984e-14
0.0005 0.000352024 0.000352024 -4.39916e-14
0.0005 0.000411973 0.000352024 -4.42127e-14
0.0005 0.000466473 0.000352024 -4.43395e-14
0.0005 0.000516018 0.000352024 -4.5453e-14
0.0005 0.000561059 0.000352024 -4.70301e-14
0.0005 0.000602005 0.000352024 -4.94323e-14
0.0005 0.000639229 0.000352024 -4.82462e-14
0.0005 0.000673069 0.000352024 -4.80779e-14
0.0005 0.000703833 0.000352024 -4.95507e-14
0.0005 0.000731799 0.000352024 -5.00488e-14
0.0005 0.000757224 0.000352024 -4.96385e-14
0.0005 0.000780337 0.000352024 -4.88488e-14
0.0005 0.000801349 0.000352024 -4.89008e-14
0.0005 0.000820451 0.000352024 -4.73656e-14
0.0005 0.000837816 0.000352024 -4.78529e-14
0.0005 0.000853602 0.000352024 -4.83087e-14
0.0005 0.000867954 0.000352024 -4.87635e-14
0.0005 0.000881001 0.000352024 -4.92395e-14
0.0005 0.000892861 0.000352024 -4.90976e-14
0.0005 0.000903644 0.000352024 -4.91474e-14
0.0005 0.000913446 0.000352024 -4.92324e-14
0.0005 0.000922357 0.000352024 -4.93232e-14
0.0005 0.000930458 0.000352024 -4.94132e-14
0.0005 0.000937823 0.000352024 -4.93306e-14
0.0005 0.000944518 0.000352024 -4.93924e-14
0.0005 0.000950604 0.000352024 -4.95658e-14
0.0005 0.000956137 0.000352024 -4.95941e-14
0.0005 0.000961167 0.000352024 -4.95632e-14
0.0005 0.00096574 0.000352024 -4.94747e-14
0.0005 0.000969897 0.000352024 -4.94618e-14
0.0005 0.000973676 0.000352024 -4.93875e-14
0.0005 0.000977112 0.000352024 -4.92621e-14
0.0005 0.000980235 0.000352024 -4.91568e-14
0.0005 0.000983075 0.000352024 -4.896e-14
0.0005 0.000985656 0.000352024 -4.8725e-14
0.0005 0.000988002 0.000352024 -4.84707e-14
0.0005 0.000990136 0.000352024 -4.8181e-14
0.0005 0.000992075 0.000352024 -4.79217e-14
0.0005 0.000993838 0.000352024 -4.76492e-14
0.0005 0.000995441 0.000352024 -4.7484e-14
0.0005 0.000996898 0.000352024 -4.72956e-14
0.0005 0.000998222 0.000352024 -4.71596e-14
0.0005 0.000999427 0.000352024 -4.70726e-14
0.0005 4.59758e-05 0.000411973 -4.40836e-14
0.0005 0.000133748 0.000411973 -4.47969e-14
0.0005 0.000213541 0.000411973 -4.41477e-14
0.0005 0.000286079 0.000411973 -4.40765e-14
0.0005 0.000352024 0.000411973 -4.43919e-14
0.0005 0.000411973 0.000411973 -4.47313e-14
0.0005 0.000466473 0.000411973 -4.29976e-14
0.0005 0.000516018 0.000411973 -4.49468e-14
0.0005 0.000561059 0.000411973 -4.62961e-14
0.0005 0.000602005 0.000411973 -4.75364e-14
0.0005 0.000639229 0.000411973 -4.9453e-14
0.0005 0.000673069 0.000411973 -4.78573e-14
0.0005 0.000703833 0.000411973 -4.76717e-14
0.0005 0.000731799 0.000411973 -4.75617e-14
0.0005 0.000757224 0.000411973 -4.72716e-14
0.0005 0.000780337 0.000411973 -4.71001e-14
0.0005 0.000801349 0.000411973 -4.70433e-14
0.0005 0.000820451 0.000411973 -4.70492e-14
0.0005 0.000837816 0.000411973 -4.71664e-14
0.0005 0.000853602 0.000411973 -4.7221e-14
0.0005 0.000867954 0.000411973 -4.72504e-14
0.0005 0.000881001 0.000411973 -4.7253e-14
0.0005 0.000892861 0.000411973 -4.72202e-14
0.0005 0.000903644 0.000411973 -4.71506e-14
0.0005 0.000913446 0.000411973 -4.7007e-14
0.0005 0.000922357 0.000411973 -4.74587e-14
0.0005 0.000930458 0.000411973 -4.77608e-14
0.0005 0.000937823 0.000411973 -4.79362e-14
0.0005 0.000944518 0.000411973 -4.78098e-14
0.0005 0.000950604 0.000411973 -4.76854e-14
0.0005 0.000956137 0.000411973 -4.75969e-14
0.0005 0.000961167 0.000411973 -4.74802e-14
0.0005 0.00096574 0.000411973 -4.73581e-14
0.0005 0.000969897 0.000411973 -4.71933e-14
0.0005 0.000973676 0.000411973 -4.69805e-14
0.0005 0.000977112 0.000411973 -4.67325e-14
0.0005 0.000980235 0.000411973 -4.65021e-14
0.0005 0.000983075 0.000411973 -4.62163e-14
0.0005 0.000985656 0.000411973 -4.58837e-14
0.0005 0.000988002 0.000411973 -4.55847e-14
0.0005 0.000990136 0.000411973 -4.53162e-14
0.0005 0.000992075 0.000411973 -4.50565e-14
0.0005 0.000993838 0.000411973 -4.49073e-14
0.0005 0.000995441 0.000411973 -4.47404e-14
0.0005 0.000996898 0.000411973 -4.46541e-14
0.0005 0.000998222 0.000411973 -4.45597e-14
0.0005 0.000999427 0.000411973 -4.44507e-14
0.0005 4.59758e-05 0.000466473 -4.42716e-14
0.0005 0.000133748 0.000466473 -4.62479e-14
0.0005 0.000213541 0.000466473 -4.42138e-14
0.0005 0.000286079 0.000466473 -4.40707e-14
0.0005 0.000352024 0.000466473 -4.47667e-14
0.0005 0.000411973 0.000466473 -4.72928e-14
0.0005 0.000466473 0.000466473 -4.50976e-14
0.0005 0.000516018 0.000466473 -4.52548e-14
0.0005 0.000561059 0.000466473 -4.58585e-14
0.0005 0.000602005 0.000466473 -4.64621e-14
0.0005 0.000639229 0.000466473 -4.70604e-14
0.0005 0.000673069 0.000466473 -4.69181e-14
0.0005 0.000703833 0.000466473 -4.73474e-14
0.0005 0.000731799 0.000466473 -4.80085e-14
0.0005 0.000757224 0.000466473 -4.68159e-14
0.0005 0.000780337 0.000466473 -4.59762e-14
0.0005 0.000801349 0.000466473 -4.51319e-14
0.0005 0.000820451 0.000466473 -4.62268e-14
0.0005 0.000837816 0.000466473 -4.7182e-14
0.0005 0.000853602 0.000466473 -4.6556e-14
0.0005 0.000867954 0.000466473 -4.62529e-14
0.0005 0.000881001 0.000466473 -4.61745e-14
0.0005 0.000892861 0.000466473 -4.61904e-14
0.0005 0.000903644 0.000466473 -4.62642e-14
0.0005 0.000913446 0.000466473 -4.63834e-14
0.0005 0.000922357 0.000466473 -4.63971e-14
0.0005 0.000930458 0.000466473 -4.62707e-14
0.0005 0.000937823 0.000466473 -4.62136e-14
0.0005 0.000944518 0.000466473 -4.61331e-14
0.0005 0.000950604 0.000466473 -4.60993e-14
0.0005 0.000956137 0.000466473 -4.59164e-14
0.0005 0.000961167 0.000466473 -4.58482e-14
0.0005 0.00096574 0.000466473 -4.57394e-14
0.0005 0.000969897 0.000466473 -4.55749e-14
0.0005 0.000973676 0.000466473 -4.53431e-14
0.0005 0.000977112 0.000466473 -4.51434e-14
0.0005 0.000980235 0.000466473 -4.49592e-14
0.0005 0.000983075 0.000466473 -4.47444e-14
0.0005 0.000985656 0.000466473 -4.45081e-14
0.0005 0.000988002 0.000466473 -4.42893e-14
0.0005 0.000990136 0.000466473 -4.40931e-14
0.0005 0.000992075 0.000466473 -4.39547e-14
0.0005 0.000993838 0.000466473 -4.383e-14
0.0005 0.000995441 0.000466473 -4.37603e-14
0.0005 0.000996898 0.000466473 -4.36713e-14
0.0005 0.000998222 0.000466473 -4.35881e-14
0.0005 0.000999427 0.000466473 -4.35116e-14
0.0005 4.59758e-05 0.000516018 -4.37826e-14
0.0005 0.000133748 0.000516018 -4.07847e-14
0.0005 0.000213541 0.000516018 -4.34192e-14
0.0005 0.000286079 0.000516018 -4.36033e-14
0.0005 0.000352024 0.000516018 -4.3843e-14
0.0005 0.000411973 0.000516018 -4.50688e-14
0.0005 0.000466473 0.000516018 -4.48524e-14
0.0005 0.000516018 0.000516018 -4.5016e-14
0.0005 0.000561059 0.000516018 -4.54295e-14
0.0005 0.000602005 0.000516018 -4.5953e-14
0.0005 0.000639229 0.000516018 -4.61965e-14
0.0005 0.000673069 0.000516018 -4.62568e-14
0.0005 0.000703833 0.000516018 -4.60072e-14
0.0005 0.000731799 0.000516018 -4.60188e-14
0.0005 0.000757224 0.000516018 -4.57435e-14
0.0005 0.000780337 0.000516018 -4.53503e-14
0.0005 0.000801349 0.000516018 -4.50677e-14
0.0005 0.000820451 0.000516018 -4.49382e-14
0.0005 0.000837816 0.000516018 -4.47548e-14
0.0005 0.000853602 0.000516018 -4.43579e-14
0.0005 0.000867954 0.000516018 -4.36651e-14
0.0005 0.000881001 0.000516018 -4.35869e-14
0.0005 0.000892861 0.000516018 -4.40837e-14
0.0005 0.000903644 0.000516018 -4.41919e-14
0.0005 0.000913446 0.000516018 -4.42565e-14
0.0005 0.000922357 0.000516018 -4.43529e-14
0.0005 0.000930458 0.000516018 -4.43623e-14
0.0005 0.000937823 0.000516018 -4.4294e-14
0.0005 0.000944518 0.000516018 -4.43008e-14
0.0005 0.000950604 0.000516018 -4.4404e-14
0.0005 0.000956137 0.000516018 -4.44066e-14
0.0005 0.000961167 0.000516018 -4.43216e-14
0.0005 0.00096574 0.000516018 -4.41935e-14
0.0005 0.000969897 0.000516018 -4.4054e-14
0.0005 0.000973676 0.000516018 -4.39075e-14
0.0005 0.000977112 0.000516018 -4.37326e-14
0.0005 0.000980235 0.000516018 -4.35549e-14
0.0005 0.000983075 0.000516018 -4.33761e-14
0.0005 0.000985656 0.000516018 -4.32256e-14
0.0005 0.000988002 0.000516018 -4.30936e-14
0.0005 0.000990136 0.000516018 -4.30237e-14
0.0005 0.000992075 0.000516018 -4.29756e-14
0.0005 0.000993838 0.000516018 -4.29838e-14
0.0005 0.000995441 0.000516018 -4.29882e-14
0.0005 0.000996898 0.000516018 -4.30229e-14
0.0005 0.000998222 0.000516018 -4.30265e-14
0.0005 0.000999427 0.000516018 -4.29966e-14
0.0005 4.59758e-05 0.000561059 -4.41757e-14
0.0005 0.000133748 0.000561059 -4.31479e-14
0.0005 0.000213541 0.000561059 -4.35576e-14
0.0005 0.000286079 0.000561059 -4.31073e-14
0.0005 0.000352024 0.000561059 -4.23938e-14
0.0005 0.000411973 0.000561059 -4.38664e-14
0.0005 0.000466473 0.000561059 -4.43246e-14
0.0005 0.000516018 0.000561059 -4.45355e-14
0.0005 0.000561059 0.000561059 -4.48779e-14
0.0005 0.000602005 0.000561059 -4.63238e-14
0.0005 0.000639229 0.000561059 -4.62123e-14
0.0005 0.000673069 0.000561059 -4.63164e-14
0.0005 0.000703833 0.000561059 -4.39809e-14
0.0005 0.000731799 0.000561059 -4.44863e-14
0.0005 0.000757224 0.000561059 -4.45127e-14
0.0005 0.000780337 0.000561059 -4.43608e-14
0.0005 0.000801349 0.000561059 -4.41975e-14
0.0005 0.000820451 0.000561059 -4.41605e-14
0.0005 0.000837816 0.000561059 -4.3861e-14
0.0005 0.000853602 0.000561059 -4.32699e-14
0.0005 0.000867954 0.000561059 -4.35612e-14
0.0005 0.000881001 0.000561059 -4.36388e-14
0.0005 0.000892861 0.000561059 -4.3553e-14
0.0005 0.000903644 0.000561059 -4.35083e-14
0.0005 0.000913446 0.000561059 -4.35469e-14
0.0005 0.000922357 0.000561059 -4.35768e-14
0.0005 0.000930458 0.000561059 -4.35929e-14
0.0005 0.000937823 0.000561059 -4.36049e-14
0.0005 0.000944518 0.000561059 -4.35796e-14
0.0005 0.000950604 0.000561059 -4.34652e-14
0.0005 0.000956137 0.000561059 -4.35222e-14
0.0005 0.000961167 0.000561059 -4.34844e-14
0.0005 0.00096574 0.000561059 -4.33626e-14
0.0005 0.000969897 0.000561059 -4.3308e-14
0.0005 0.000973676 0.000561059 -4.32004e-14
0.0005 0.000977112 0.000561059 -4.30463e-14
0.0005 0.000980235 0.000561059 -4.29706e-14
0.0005 0.000983075 0.000561059 -4.29191e-14
0.0005 0.000985656 0.000561059 -4.28272e-14
0.0005 0.000988002 0.000561059 -4.27721e-14
0.0005 0.000990136 0.000561059 -4.27492e-14
0.0005 0.000992075 0.000561059 -4.27821e-14
0.0005 0.000993838 0.000561059 -4.27881e-14
0.0005 0.000995441 0.000561059 -4.28107e-14
0.0005 0.000996898 0.000561059 -4.28136e-14
0.0005 0.000998222 0.000561059 -4.28034e-14
0.0005 0.000999427 0.000561059 -4.27798e-14
0.0005 4.59758e-05 0.000602005 -4.47887e-14
0.0005 0.000133748 0.000602005 -4.51273e-14
0.0005 0.000213541 0.000602005 -4.39531e-14
0.0005 0.000286079 0.000602005 -4.27412e-14
0.0005 0.000352024 0.000602005 -3.99667e-14
0.0005 0.000411973 0.000602005 -4.2542e-14
0.0005 0.000466473 0.000602005 -4.39624e-14
0.0005 0.000516018 0.000602005 -4.39712e-14
0.0005 0.000561059 0.000602005 -4.32401e-14
0.0005 0.000602005 0.000602005 -4.47158e-14
0.0005 0.000639229 0.000602005 -4.64417e-14
0.0005 0.000673069 0.000602005 -4.49331e-14
0.0005 0.000703833 0.000602005 -4.44023e-14
0.0005 0.000731799 0.000602005 -4.42126e-14
0.0005 0.000757224 0.000602005 -4.39268e-14
0.0005 0.000780337 0.000602005 -4.34739e-14
0.0005 0.000801349 0.000602005 -4.28724e-14
0.0005 0.000820451 0.000602005 -4.33556e-14
0.0005 0.000837816 0.000602005 -4.33609e-14
0.0005 0.000853602 0.000602005 -4.33056e-14
0.0005 0.000867954 0.000602005 -4.32288e-14
0.0005 0.000881001 0.000602005 -4.31738e-14
0.0005 0.000892861 0.000602005 -4.31441e-14
0.0005 0.000903644 0.000602005 -4.31062e-14
0.0005 0.000913446 0.000602005 -4.30948e-14
0.0005 0.000922357 0.000602005 -4.30841e-14
0.0005 0.000930458 0.000602005 -4.30696e-14
0.0005 0.000937823 0.000602005 -4.30383e-14
0.0005 0.000944518 0.000602005 -4.3001e-14
0.0005 0.000950604 0.000602005 -4.29525e-14
0.0005 0.000956137 0.000602005 -4.29016e-14
0.0005 0.000961167 0.000602005 -4.284e-14
0.0005 0.00096574 0.000602005 -4.2785e-14
0.0005 0.000969897 0.000602005 -4.27389e-14
0.0005 0.000973676 0.000602005 -4.27159e-14
0.0005 0.000977112 0.000602005 -4.2617e-14
0.0005 0.000980235 0.000602005 -4.25711e-14
0.0005 0.000983075 0.000602005 -4.2545e-14
0.0005 0.000985656 0.000602005 -4.25575e-14
0.0005 0.000988002 0.000602005 -4.25835e-14
0.0005 0.000990136 0.000602005 -4.26453e-14
0.0005 0.000992075 0.000602005 -4.27127e-14
0.0005 0.000993838 0.000602005 -4.27988e-14
0.0005 0.000995441 0.000602005 -4.28708e-14
0.0005 0.000996898 0.000602005 -4.29459e-14
0.0005 0.000998222 0.000602005 -4.29896e-14
0.0005 0.000999427 0.000602005 -4.30022e-14
0.0005 4.59758e-05 0.000639229 -4.53189e-14
0.0005 0.000133748 0.000639229 -4.74053e-14
0.0005 0.000213541 0.000639229 -4.43681e-14
0.0005 0.000286079 0.000639229 -4.29e-14
0.0005 0.000352024 0.000639229 -4.15388e-14
0.0005 0.000411973 0.000639229 -4.0837e-14
0.0005 0.000466473 0.000639229 -4.35911e-14
0.0005 0.000516018 0.000639229 -4.38806e-14
0.0005 0.000561059 0.000639229 -4.31552e-14
0.0005 0.000602005 0.000639229 -4.28723e-14
0.0005 0.000639229 0.000639229 -4.43071e-14
0.0005 0.000673069 0.000639229 -4.42896e-14
0.0005 0.000703833 0.000639229 -4.42263e-14
0.0005 0.000731799 0.000639229 -4.42025e-14
0.0005 0.000757224 0.000639229 -4.38112e-14
0.0005 0.000780337 0.000639229 -4.31739e-14
0.0005 0.000801349 0.000639229 -4.23429e-14
0.0005 0.000820451 0.000639229 -4.2817e-14
0.0005 0.000837816 0.000639229 -4.313e-14
0.0005 0.000853602 0.000639229 -4.35265e-14
0.0005 0.000867954 0.000639229 -4.27273e-14
0.0005 0.000881001 0.000639229 -4.26452e-14
0.0005 0.000892861 0.000639229 -4.28223e-14
0.0005 0.000903644 0.000639229 -4.24296e-14
0.0005 0.000913446 0.000639229 -4.26034e-14
0.0005 0.000922357 0.000639229 -4.27699e-14
0.0005 0.000930458 0.000639229 -4.29415e-14
0.0005 0.000937823 0.000639229 -4.28039e-14
0.0005 0.000944518 0.000639229 -4.27957e-14
0.0005 0.000950604 0.000639229 -4.27526e-14
0.0005 0.000956137 0.000639229 -4.27832e-14
0.0005 0.000961167 0.000639229 -4.27114e-14
0.0005 0.00096574 0.000639229 -4.26349e-14
0.0005 0.000969897 0.000639229 -4.26236e-14
0.0005 0.000973676 0.000639229 -4.25712e-14
0.0005 0.000977112 0.000639229 -4.25027e-14
0.0005 0.000980235 0.000639229 -4.24787e-14
0.0005 0.000983075 0.000639229 -4.24667e-14
0.0005 0.000985656 0.000639229 -4.24438e-14
0.0005 0.000988002 0.000639229 -4.24776e-14
0.0005 0.000990136 0.000639229 -4.25e-14
0.0005 0.000992075 0.000639229 -4.25288e-14
0.0005 0.000993838 0.000639229 -4.25581e-14
0.0005 0.000995441 0.000639229 -4.25832e-14
0.0005 0.000996898 0.000639229 -4.2582e-14
0.0005 0.000998222 0.000639229 -4.25726e-14
0.0005 0.000999427 0.000639229 -4.25582e-14
0.0005 4.59758e-05 0.000673069 -4.5495e-14
0.0005 0.000133748 0.000673069 -4.67506e-14
0.0005 0.000213541 0.000673069 -4.44573e-14
0.0005 0.000286079 0.000673069 -4.30461e-14
0.0005 0.000352024 0.000673069 -4.20119e-14
0.0005 0.000411973 0.000673069 -4.23626e-14
0.0005 0.000466473 0.000673069 -4.33684e-14
0.0005 0.000516018 0.000673069 -4.34541e-14
0.0005 0.000561059 0.000673069 -4.27344e-14
0.0005 0.000602005 0.000673069 -4.33581e-14
0.0005 0.000639229 0.000673069 -4.36683e-14
0.0005 0.000673069 0.000673069 -4.37399e-14
0.0005 0.000703833 0.000673069 -4.40338e-14
0.0005 0.000731799 0.000673069 -4.48254e-14
0.0005 0.000757224 0.000673069 -4.42839e-14
0.0005 0.000780337 0.000673069 -4.27421e-14
0.0005 0.000801349 0.000673069 -4.33111e-14
0.0005 0.000820451 0.000673069 -4.27879e-14
0.0005 0.000837816 0.000673069 -4.25136e-14
0.0005 0.000853602 0.000673069 -4.22236e-14
0.0005 0.000867954 0.000673069 -4.2012e-14
0.0005 0.000881001 0.000673069 -4.19666e-14
0.0005 0.000892861 0.000673069 -4.20728e-14
0.0005 0.000903644 0.000673069 -4.21127e-14
0.0005 0.000913446 0.000673069 -4.21525e-14
0.0005 0.000922357 0.000673069 -4.2177e-14
0.0005 0.000930458 0.000673069 -4.22369e-14
0.0005 0.000937823 0.000673069 -4.2321e-14
0.0005 0.000944518 0.000673069 -4.23687e-14
0.0005 0.000950604 0.000673069 -4.24135e-14
0.0005 0.000956137 0.000673069 -4.2474e-14
0.0005 0.000961167 0.000673069 -4.2416e-14
0.0005 0.00096574 0.000673069 -4.23656e-14
0.0005 0.000969897 0.000673069 -4.23129e-14
0.0005 0.000973676 0.000673069 -4.22739e-14
0.0005 0.000977112 0.000673069 -4.22459e-14
0.0005 0.000980235 0.000673069 -4.22283e-14
0.0005 0.000983075 0.000673069 -4.21792e-14
0.0005 0.000985656 0.000673069 -4.21644e-14
0.0005 0.000988002 0.000673069 -4.21981e-14
0.0005 0.000990136 0.000673069 -4.22521e-14
0.0005 0.000992075 0.000673069 -4.23027e-14
0.0005 0.000993838 0.000673069 -4.23481e-14
0.0005 0.000995441 0.000673069 -4.23843e-14
0.0005 0.000996898 0.000673069 -4.24275e-14
0.0005 0.000998222 0.000673069 -4.24533e-14
0.0005 0.000999427 0.000673069 -4.24579e-14
0.0005 4.59758e-05 0.000703833 -4.55038e-14
0.0005 0.000133748 0.000703833 -4.49206e-14
0.0005 0.000213541 0.000703833 -4.44094e-14
0.0005 0.000286079 0.000703833 -4.31151e-14
0.0005 0.000352024 0.000703833 -4.12891e-14
0.0005 0.000411973 0.000703833 -4.27553e-14
0.0005 0.000466473 0.000703833 -4.25805e-14
0.0005 0.000516018 0.000703833 -4.34119e-14
0.0005 0.000561059 0.000703833 -4.48599e-14
0.0005 0.000602005 0.000703833 -4.35811e-14
0.0005 0.000639229 0.000703833 -4.32509e-14
0.0005 0.000673069 0.000703833 -4.30028e-14
0.0005 0.000703833 0.000703833 -4.32388e-14
0.0005 0.000731799 0.000703833 -4.33651e-14
0.0005 0.000757224 0.000703833 -4.29213e-14
0.0005 0.000780337 0.000703833 -4.22279e-14
0.0005 0.000801349 0.000703833 -4.20855e-14
0.0005 0.000820451 0.000703833 -4.20899e-14
0.0005 0.000837816 0.000703833 -4.20183e-14
0.0005 0.000853602 0.000703833 -4.19165e-14
0.0005 0.000867954 0.000703833 -4.17823e-14
0.0005 0.000881001 0.000703833 -4.18122e-14
0.0005 0.000892861 0.000703833 -4.18192e-14
0.0005 0.000903644 0.000703833 -4.18252e-14
0.0005 0.000913446 0.000703833 -4.1832e-14
0.0005 0.000922357 0.000703833 -4.18651e-14
0.0005 0.000930458 0.000703833 -4.18856e-14
0.0005 0.000937823 0.000703833 -4.19683e-14
0.0005 0.000944518 0.000703833 -4.21039e-14
0.0005 0.000950604 0.000703833 -4.20646e-14
0.0005 0.000956137 0.000703833 -4.20456e-14
0.0005 0.000961167 0.000703833 -4.2038e-14
0.0005 0.00096574 0.000703833 -4.20069e-14
0.0005 0.000969897 0.000703833 -4.1984e-14
0.0005 0.000973676 0.000703833 -4.19717e-14
0.0005 0.000977112 0.000703833 -4.19762e-14
0.0005 0.000980235 0.000703833 -4.19895e-14
0.0005 0.000983075 0.000703833 -4.20156e-14
0.0005 0.000985656 0.000703833 -4.20325e-14
0.0005 0.000988002 0.000703833 -4.20928e-14
0.0005 0.000990136 0.000703833 -4.21418e-14
0.0005 0.000992075 0.000703833 -4.21868e-14
0.0005 0.000993838 0.000703833 -4.22157e-14
0.0005 0.000995441 0.000703833 -4.22437e-14
0.0005 0.000996898 0.000703833 -4.22531e-14
0.0005 0.000998222 0.000703833 -4.22521e-14
0.0005 0.000999427 0.000703833 -4.22447e-14
0.0005 4.59758e-05 0.000731799 -4.58284e-14
0.0005 0.000133748 0.000731799 -4.48978e-14
0.0005 0.000213541 0.000731799 -4.44825e-14
0.0005 0.000286079 0.000731799 -4.32935e-14
0.0005 0.000352024 0.000731799 -4.13476e-14
0.0005 0.000411973 0.000731799 -4.27213e-14
0.0005 0.000466473 0.000731799 -4.14829e-14
0.0005 0.000516018 0.000731799 -4.30841e-14
0.0005 0.000561059 0.000731799 -4.36913e-14
0.0005 0.000602005 0.000731799 -4.33013e-14
0.0005 0.000639229 0.000731799 -4.28022e-14
0.0005 0.000673069 0.000731799 -4.19204e-14
0.0005 0.000703833 0.000731799 -4.25955e-14
0.0005 0.000731799 0.000731799 -4.26746e-14
0.0005 0.000757224 0.000731799 -4.20683e-14
0.0005 0.000780337 0.000731799 -4.07986e-14
0.0005 0.000801349 0.000731799 -4.06534e-14
0.0005 0.000820451 0.000731799 -4.16112e-14
0.0005 0.000837816 0.000731799 -4.16897e-14
0.0005 0.000853602 0.000731799 -4.17812e-14
0.0005 0.000867954 0.000731799 -4.20415e-14
0.0005 0.000881001 0.000731799 -4.17465e-14
0.0005 0.000892861 0.000731799 -4.16109e-14
0.0005 0.000903644 0.000731799 -4.15077e-14
0.0005 0.000913446 0.000731799 -4.14911e-14
0.0005 0.000922357 0.000731799 -4.14912e-14
0.0005 0.000930458 0.000731799 -4.1495e-14
0.0005 0.000937823 0.000731799 -4.14836e-14
0.0005 0.000944518 0.000731799 -4.14671e-14
0.0005 0.000950604 0.000731799 -4.14687e-14
0.0005 0.000956137 0.000731799 -4.14689e-14
0.0005 0.000961167 0.000731799 -4.14373e-14
0.0005 0.00096574 0.000731799 -4.14227e-14
0.0005 0.000969897 0.000731799 -4.14746e-14
0.0005 0.000973676 0.000731799 -4.15593e-14
0.0005 0.000977112 0.000731799 -4.16236e-14
0.0005 0.000980235 0.000731799 -4.16669e-14
0.0005 0.000983075 0.000731799 -4.17132e-14
0.0005 0.000985656 0.000731799 -4.17824e-14
0.0005 0.000988002 0.000731799 -4.18722e-14
0.0005 0.000990136 0.000731799 -4.19323e-14
0.0005 0.000992075 0.000731799 -4.19749e-14
0.0005 0.000993838 0.000731799 -4.20307e-14
0.0005 0.000995441 0.000731799 -4.20654e-14
0.0005 0.000996898 0.000731799 -4.21057e-14
0.0005 0.000998222 0.000731799 -4.21298e-14
0.0005 0.000999427 0.000731799 -4.2134e-14
0.0005 4.59758e-05 0.000757224 -4.62295e-14
0.0005 0.000133748 0.000757224 -4.50498e-14
0.0005 0.000213541 0.000757224 -4.46551e-14
0.0005 0.000286079 0.000757224 -4.3589e-14
0.0005 0.000352024 0.000757224 -4.15762e-14
0.0005 0.000411973 0.000757224 -4.30982e-14
0.0005 0.000466473 0.000757224 -4.26057e-14
0.0005 0.000516018 0.000757224 -4.30494e-14
0.0005 0.000561059 0.000757224 -4.294e-14
0.0005 0.000602005 0.000757224 -4.30866e-14
0.0005 0.000639229 0.000757224 -4.26119e-14
0.0005 0.000673069 0.000757224 -4.17046e-14
0.0005 0.000703833 0.000757224 -4.24569e-14
0.0005 0.000731799 0.000757224 -4.2717e-14
0.0005 0.000757224 0.000757224 -4.21112e-14
0.0005 0.000780337 0.000757224 -4.1539e-14
0.0005 0.000801349 0.000757224 -4.15187e-14
0.0005 0.000820451 0.000757224 -4.1477e-14
0.0005 0.000837816 0.000757224 -4.13157e-14
0.0005 0.000853602 0.000757224 -4.1142e-14
0.0005 0.000867954 0.000757224 -4.08092e-14
0.0005 0.000881001 0.000757224 -4.11129e-14
0.0005 0.000892861 0.000757224 -4.13056e-14
0.0005 0.000903644 0.000757224 -4.08796e-14
0.0005 0.000913446 0.000757224 -4.10131e-14