7 	0.175477169696616 	1.04083408558608e-17 	0.288587316352877 	1.68750452984167e-05 	1426.94485971325 	1.30402044621259e-07 	2.46324090095435e-38
7 	0.183479805616048 	1.38777878078145e-17 	0.288756043422321 	0.000206211738177074 	364.364563255261 	9.54597419677449e-07 	0
7 	0.191768329657843 	1.21430643318376e-17 	0.288933096330152 	0.0011118670340005 	96.6429653811032 	3.21818387908094e-06 	0
7 	0.200352690849211 	8.67361737988404e-18 	0.289092535163365 	0.00326367664325537 	40.6199801819461 	4.51895392286276e-05 	0
7 	0.209243165650844 	1.04083408558608e-17 	0.289222016649917 	0.00611907721714953 	21.7709257468202 	0.000219301604513411 	0
7 	0.218450367413594 	1.30104260698261e-17 	0.289308594419968 	0.00882606629454638 	13.9156254634915 	0.000435112874065658 	0
7 	0.227985256016299 	9.54097911787244e-18 	0.289351312057484 	0.0111652870323278 	10.0379117302011 	0.000628383764566855 	0
7 	0.237859147681583 	1.25767452008319e-17 	0.289357381605349 	0.0131980824617187 	7.8260810413873 	0.000813285569623053 	0
7 	0.248083724965845 	1.77809156287623e-17 	0.289332662339856 	0.0150106497570305 	6.4207747898254 	0.00100391862853949 	0
7 	0.258671046919076 	1.66967134562768e-17 	0.289279867126865 	0.016667166828509 	5.45655763614671 	0.00120634026537916 	0
7 	0.269633559409454 	1.7130394325271e-17 	0.289200233763057 	0.0182111007882843 	4.7573212955196 	0.00142314007406552 	0
7 	0.280984105606939 	1.60461921527855e-17 	0.289094503593258 	0.019672274056037 	4.22908670826572 	0.0016555356926126 	0
7 	0.292735936619475 	1.73472347597681e-17 	0.28895998225497 	0.021071796309438 	3.81950899963728 	0.0019061247980405 	0
7 	0.304902722274549 	1.38777878078145e-17 	0.288798625799966 	0.0224254246698756 	3.49220456661222 	0.00217386173344379 	0
7 	0.31749856203814 	1.04083408558608e-17 	0.288610675873046 	0.0237443797787741 	3.22587143399555 	0.00245883736337622 	0
7 	0.330537996062243 	1.04083408558608e-17 	0.288396338833001 	0.0250372567827014 	3.00607257542702 	0.00276098859143776 	0
7 	0.344036016351372 	0 	0.28815591513817 	0.0263107363673612 	2.82267699773503 	0.00308002717133778 	0
7 	0.358008078037565 	-1.04083408558608e-17 	0.287889846884025 	0.0275700655092384 	2.66837787840693 	0.00341539621621857 	0
7 	0.372470110752509 	-1.04083408558608e-17 	0.28759875826301 	0.0288193848590929 	2.53778231375804 	0.00376620763347524 	0
7 	0.387438530084601 	-1.04083408558608e-17 	0.287283490514616 	0.0300619573632692 	2.42683206851067 	0.00413115794569902 	0
7 	0.402930249107806 	-1.04083408558608e-17 	0.286945132431234 	0.0313003328921513 	2.3324236472739 	0.00450841668094475 	0
7 	0.418962689968293 	-6.93889390390723e-18 	0.286585052987114 	0.0325364724840516 	2.25215267499631 	0.00489547624788871 	0
7 	0.435553795513961 	-3.46944695195361e-18 	0.286204951124355 	0.033771849991012 	2.18413837224485 	0.00528892724034796 	0
7 	0.452722040951046 	6.93889390390723e-18 	0.285806924627711 	0.0350075472129299 	2.12690132576557 	0.00568418335022232 	0
7 	0.470486445511199 	1.04083408558608e-17 	0.285393237193194 	0.0362443616648087 	2.07927770727554 	0.00607586900341149 	0
7 	0.488866584111516 	1.38777878078145e-17 	0.284964321548523 	0.0374829613752554 	2.04035753943435 	0.0064601947953309 	0
7 	0.507882598989293 	2.42861286636753e-17 	0.28451613951567 	0.0387240940692007 	2.00944080693292 	0.00684041537637487 	0
7 	0.527555211292512 	3.46944695195361e-17 	0.284043291363132 	0.0399692247447829 	1.98599512074969 	0.00722952585936389 	0
7 	0.54244403095239 	4.16333634234434e-17 	0.283677377326384 	0.0408900379890832 	1.97301929644395 	0.00752964588582461 	0
7 	0.552823946998482 	4.5102810375397e-17 	0.283418750031173 	0.0415195975190878 	1.96649612141869 	0.00774390034762595 	0
7 	0.569082665743196 	4.5102810375397e-17 	0.283001235952055 	0.0424910144175578 	1.95976669754906 	0.00810072510209222 	0
7 	0.590977979586464 	4.16333634234434e-17 	0.282405032882723 	0.0437825139146806 	1.95650622491842 	0.00862757369037898 	0
7 	0.61361731762149 	3.81639164714898e-17 	0.281727917364876 	0.0451038056869936 	1.95980456077413 	0.00923403633715345 	0
7 	0.637024103108103 	3.98986399474666e-17 	0.280953907155081 	0.046457547312213 	1.96971559121901 	0.00992835684873267 	0
7 	0.661222382337652 	4.85722573273506e-17 	0.280078255722621 	0.0478397172512591 	1.98623674889607 	0.0107063886257672 	0
7 	0.686236834884958 	5.3776427755281e-17 	0.279106978950006 	0.0492403088440752 	2.00918964498556 	0.0115565664623919 	0
7 	0.712092783750835 	5.72458747072346e-17 	0.278040434631132 	0.0506440697613665 	2.03813182154726 	0.0124654771767312 	0
7 	0.738816205392112 	6.07153216591882e-17 	0.276870571827854 	0.0520304893668177 	2.07228738651302 	0.0134143646965471 	0
7 	0.766433739638512 	5.68121938382404e-17 	0.275584578092589 	0.0533738585383117 	2.11048777439398 	0.0143761702759674 	0
7 	0.794972699498517 	5.56195714485064e-17 	0.274166601287218 	0.0546437377447072 	2.15115098559335 	0.0153163099808656 	0
7 	0.82446108085951 	6.1257422745431e-17 	0.272574615727902 	0.0558026688881329 	2.19234215068789 	0.0161963353685206 	0
7 	0.854927572091144 	6.24500451351651e-17 	0.27077806884543 	0.0568102485313579 	2.23161111581089 	0.0169770445036033 	0
7 	0.886401563564908 	6.24500451351651e-17 	0.268794584233233 	0.0576357400658348 	2.26655564452841 	0.0176297597388175 	0
7 	0.918913157107335 	5.20417042793042e-17 	0.266614498247293 	0.0582476208484214 	2.29497023721762 	0.0181326631265036 	0
7 	0.952493175409364 	4.5102810375397e-17 	0.264233037106967 	0.0586180057650232 	2.31483812441284 	0.0184693650642809 	0
7 	0.987173171419818 	4.5102810375397e-17 	0.261650470287046 	0.0587232966400931 	2.32439614706713 	0.018627168608081 	0
7 	1.02298543775705 	4.5102810375397e-17 	0.258871918291803 	0.0585447197254209 	2.32217351005521 	0.0185957571779702 	0
7 	1.05996301617935 	4.5102810375397e-17 	0.255907010966674 	0.0580690538717465 	2.30702958162224 	0.0183671052692883 	0
7 	1.08337286333309 	3.46944695195361e-17 	0.253993542952265 	0.0576434797452531 	2.29178642195048 	0.0181382060808188 	0
7 	1.10279491468902 	2.77555756156289e-17 	0.252386870984649 	0.0571864653672203 	2.27430655134225 	0.0178787951754839 	0
7 	1.13764544566304 	2.42861286636753e-17 	0.249478168066182 	0.0562328921398363 	2.23658893193313 	0.0173228559041241 	0
7 	1.17839328092009 	1.90819582357449e-17 	0.246050460327551 	0.0548779777276752 	2.18097711113371 	0.0165142555476113 	0
7 	1.2204386814122 	2.42861286636753e-17 	0.242511430015119 	0.0532497775071971 	2.11240123636874 	0.0155337682716516 	0
7 	1.26381809942668 	3.38271077815477e-17 	0.238888380358283 	0.0513787805744025 	2.0322989551346 	0.0144113438987769 	0
7 	1.30856880549572 	4.0766001685455e-17 	0.235210600409307 	0.0493058312358474 	1.94272926390379 	0.0131860300222553 	0
7 	1.35472890449142 	4.33680868994202e-17 	0.231508196259648 	0.0470802555881619 	1.84626349809249 	0.0119026571473896 	0
7 	1.40233735289359 	3.81639164714898e-17 	0.227773221447775 	0.04475339862591 	1.74570043208688 	0.0106077656302002 	0
7 	1.45143397738117 	3.81639164714898e-17 	0.224063633252855 	0.0423897196086182 	1.64438440521296 	0.00935048513372753 	0
7 	1.50205949490893 	3.46944695195361e-17 	0.220422821014032 	0.0400419234090044 	1.54488898479979 	0.0081669760475193 	0
7 	1.55425553444232 	3.12250225675825e-17 	0.21687298975768 	0.0377493985881134 	1.44888184522154 	0.00708131456412484 	0
7 	1.60806466053431 	3.81639164714898e-17 	0.213433290852785 	0.0355379297558395 	1.35715058637791 	0.00610529843846582 	0
7 	1.6509492227427 	4.20670442924376e-17 	0.210844578093615 	0.03388209458905 	1.28887790003541 	0.00542099695869085 	0
7 	1.67910579322798 	4.20670442924376e-17 	0.209217861596672 	0.0328445336876662 	1.24626347360562 	0.00501303668854571 	0
7 	1.72071188620233 	4.16333634234434e-17 	0.206926866046607 	0.0313857351044201 	1.18668302900446 	0.00446883729717515 	0
7 	1.77963482025102 	4.16333634234434e-17 	0.203874057039587 	0.0294373629171626 	1.10797718431574 	0.00379041082487882 	0
7 	1.84034366966232 	4.33680868994202e-17 	0.200964369060378 	0.0275596773182658 	1.03405182414873 	0.00318905351841283 	0
7 	1.90288607063176 	4.5102810375397e-17 	0.198212151954832 	0.0257349180482491 	0.965761159488495 	0.00264902677037266 	0
7 	1.96731084301856 	3.98986399474666e-17 	0.195610910332618 	0.0239959163861807 	0.906003356885543 	0.00217847211305306 	0
7 	2.02025965173185 	3.46944695195361e-17 	0.193708384906784 	0.022749994292272 	0.867452601644082 	0.00181676466247231 	0
7 	2.06006301192217 	3.46944695195361e-17 	0.192285350659362 	0.0218204201841635 	0.841994199130989 	0.00160081900333401 	0
7 	2.09845978584128 	4.16333634234434e-17 	0.191068348330112 	0.0209427000979286 	0.820519072603068 	0.00142683141904982 	0
7 	2.13549967996945 	4.85722573273506e-17 	0.189975889427156 	0.0201080319565822 	0.802445411352141 	0.00126446207263201 	0
7 	2.17123064424048 	4.85722573273506e-17 	0.188983836973288 	0.0193135362204083 	0.787470257979993 	0.00111552275345028 	0
7 	2.20569893411515 	4.85722573273506e-17 	0.188084650933764 	0.0185570485279703 	0.775376743938751 	0.000979124778406424 	0
7 	2.23894917046122 	4.85722573273506e-17 	0.187270013316747 	0.0178367950198638 	0.766010004491802 	0.000854411334185706 	0
7 	2.27102439731726 	4.85722573273506e-17 	0.186531652121115 	0.0171512212305003 	0.759262609682056 	0.000740737427354228 	0
7 	2.30196613761521 	4.85722573273506e-17 	0.185862224473427 	0.0164989009624929 	0.755065716528049 	0.000637501347934255 	0
7 	2.33181444693391 	5.55111512312578e-17 	0.185255200520033 	0.0158784952277484 	0.75338404320957 	0.000544108766197627 	0
7 	2.3606079653529 	6.24500451351651e-17 	0.184704714900244 	0.0152887396089416 	0.754213335982536 	0.000459985473293941 	0
7 	2.3883839674739 	6.24500451351651e-17 	0.184205485307169 	0.0147284461484355 	0.757579488093681 	0.000384593534453706 	0
7 	2.41517841067461 	6.24500451351651e-17 	0.183752747499034 	0.0141965119337883 	0.763538835347968 	0.000317446932588194 	0
7 	2.44102598165722 	6.93889390390723e-17 	0.183342196746755 	0.0136919301615497 	0.772179377852687 	0.000258126122520478 	0
7 	2.46596014135207 	7.63278329429795e-17 	0.182969936744025 	0.0132138015103741 	0.783622810194362 	0.000206290901369031 	0
7 	2.49001316823443 	7.63278329429795e-17 	0.182632435507392 	0.0127613447974442 	0.798027319643678 	0.000161691767184188 	0
7 	2.51321620011054 	6.93889390390723e-17 	0.182326487198301 	0.0123339064889872 	0.815591154776746 	0.000124180367368851 	0
7 	2.535599274427 	6.24500451351651e-17 	0.182049178978055 	0.011930968899387 	0.836556986571859 	9.37197075812191e-05 	0
7 	2.55719136715571 	6.24500451351651e-17 	0.18179786217152 	0.0115521569718303 	0.861217085841316 	7.03947032072321e-05 	0
7 	2.57802043030465 	6.24500451351651e-17 	0.181570127120045 	0.0111972434597388 	0.889919325660294 	5.44234918830236e-05 	0
7 	2.59811342810315 	6.24500451351651e-17 	0.181363781193101 	0.010866152162833 	0.923073983029209 	4.61697059838818e-05 	0
7 	2.61749637190832 	5.55111512312578e-17 	0.181176829508275 	0.0105589586374952 	0.961161256035613 	4.61556261710984e-05 	0
7 	2.63619435387806 	5.55111512312578e-17 	0.181007457977744 	0.0102758875150239 	1.00473932594315 	5.50757904633788e-05 	0
7 	2.65423157945406 	6.24500451351651e-17 	0.18085401835521 	0.0100173052434668 	1.05445267315497 	7.38102084835453e-05 	0
7 	2.67163139869691 	6.24500451351651e-17 	0.180715015000235 	0.00978370675119155 	1.11104020012338 	0.000103435830463462 	0
7 	2.68841633651388 	5.55111512312578e-17 	0.18058909310687 	0.00957569426571356 	1.1753425279958 	0.000145234373659073 	0
7 	2.7046081218185 	4.85722573273506e-17 	0.180475028161401 	0.00939394638863183 	1.24830763385208 	0.000200694082608079 	0
7 	2.72022771565972 	4.85722573273506e-17 	0.180371716401969 	0.00923917563303556 	1.33099381598336 	0.000271502611306386 	0
7 	2.73529533835694 	4.16333634234434e-17 	0.180278166054787 	0.00911207309670262 	1.42456887189782 	0.000359528130866132 	0
7 	2.74983049567626 	3.81639164714898e-17 	0.180193489123908 	0.00901323988671713 	1.53030442571725 	0.000466786178990852 	0
7 	2.76385200408157 	3.81639164714898e-17 	0.180116893521647 	0.00894310638823298 	1.64956463976439 	0.000595390849357025 	0
7 	2.77737801509344 	3.46944695195361e-17 	0.180047675353461 	0.00890184242894851 	1.78378917313117 	0.000747490746214664 	0
7 	2.79042603878708 	3.12250225675825e-17 	0.179985211220715 	0.00888926361343002 	1.93447125084429 	0.000925192606935664 	0
7 	2.80301296646003 	2.42861286636753e-17 	0.179928950476976 	0.00890474118840961 	2.10313304619339 	0.0011304783149676 	0
7 	2.81515509249873 	2.08166817117217e-17 	0.179878407451565 	0.00894712422182248 	2.29130211912457 	0.00136512370207722 	0
7 	2.82686813547238 	2.08166817117217e-17 	0.179833153729494 	0.00901468310355978 	2.50049416497577 	0.00163062953009985 	0
7 	2.83816725848143 	2.08166817117217e-17 	0.179792810771007 	0.00910508205029535 	2.73220853910739 	0.00192817592858497 	0
7 	2.84906708878692 	2.08166817117217e-17 	0.179757043567043 	0.00921538539918025 	2.98794371054631 	0.00225861126081488 	0
7 	2.85958173674617 	2.42861286636753e-17 	0.179725554934727 	0.00934209836960152 	3.26923987722022 	0.00262248533927297 	0
7 	2.86972481407933 	3.46944695195361e-17 	0.17969807341112 	0.00948123830581586 	3.57775555644286 	0.00302013533680606 	0
7 	2.87950945149043 	4.5102810375397e-17 	0.179674333148456 	0.00962842791755813 	3.91538435725041 	0.00345182876157966 	0
7 	2.88894831566567 	4.85722573273506e-17 	0.179654134839823 	0.00977899838856604 	4.28441785985126 	0.00391821378047082 	0
7 	2.89805362567107 	4.85722573273506e-17 	0.179637683072029 	0.00992808539739105 	4.68778043858321 	0.00443544053200166 	0
7 	2.90683716877067 	4.85722573273506e-17 	0.179624799170432 	0.0100705337490747 	5.13040667018978 	0.00500172189462669 	0
7 	2.9153103156857 	4.85722573273506e-17 	0.179614710638459 	0.0102008064090985 	5.61885593915942 	0.00561618819614936 	0
7 	2.92348403531449 	4.5102810375397e-17 	0.179606757520336 	0.0103120429359657 	6.15844273216188 	0.00627279164417345 	0
7 	2.9313689089323 	4.16333634234434e-17 	0.179600634984465 	0.0103966566892927 	6.7540295158206 	0.00695106173641877 	0
7 	2.93897514388925 	3.46944695195361e-17 	0.179596491970268 	0.0104479636184367 	7.413480642427 	0.00764735191571207 	0
7 	2.94631258682425 	2.42861286636753e-17 	0.179594587533526 	0.010460603135401 	8.1502577835197 	0.00837129825062911 	0
7 	2.95339073641193 	2.08166817117217e-17 	0.179595133607554 	0.0104301526376252 	8.98558615800587 	0.00914243150531787 	0
7 	2.96021875565916 	2.42861286636753e-17 	0.179598260976189 	0.010352319113124 	9.95093986241467 	0.00998838284375721 	0
7 	2.96680548376697 	2.42861286636753e-17 	0.179604005814935 	0.0102218938486856 	11.0916330554157 	0.0109443962127663 	0
7 	2.97315944757337 	2.08166817117217e-17 	0.179612285547386 	0.0100314633896087 	12.4724969211458 	0.0120530144847288 	0
7 	2.97928887259171 	2.08166817117217e-17 	0.179622865690001 	0.00976973529155694 	14.1869731386362 	0.0133618682348243 	0
7 	2.98520169365903 	2.08166817117217e-17 	0.179635330579706 	0.00941927409533859 	16.3716246805259 	0.0149156908197251 	0
7 	2.99090556520807 	1.73472347597681e-17 	0.179649073107196 	0.0089534809473933 	19.2296972759221 	0.0167348896532033 	0
7 	2.99640787117633 	1.73472347597681e-17 	0.179663325183098 	0.00833298537181595 	23.0710909202015 	0.0187645466478276 	0
7 	3.00171573456492 	2.08166817117217e-17 	0.179677272286849 	0.00750290170984141 	28.3867009713767 	0.0207754212504957 	0
7 	3.00683602665963 	2.77555756156289e-17 	0.179690209704989 	0.00639495180819912 	36.0113053203475 	0.0222104057488098 	0
7 	3.01177537592613 	3.12250225675825e-17 	0.179701253573337 	0.00493893717083677 	47.5558754524523 	0.0212639857568619 	0
7 	3.01654017659085 	3.46944695195361e-17 	0.179709567653614 	0.00317656883747989 	66.7582588972372 	0.0155755853245265 	0
7 	3.02113659691864 	4.5102810375397e-17 	0.17971506805352 	0.00149068117170487 	105.098056361722 	0.00674661100137668 	0
7 	3.02557058719784 	4.16333634234434e-17 	0.179718661345256 	0.000440289076398383 	208.689338579168 	0.00130416604822438 	0
7 	3.02984788744324 	3.46944695195361e-17 	0.179721678041324 	6.50844321276412e-05 	636.80028856146 	8.55726045257217e-05 	0
