3 	0.0039111296779626 	0 	0.100468507714481 	9.93678894770946e-06 	848.307426957501 	2.5683572736694e-06 	2.67408882351045e-38
3 	0.0118766651674914 	1.73472347597681e-18 	0.100471009890226 	0.000120537850939546 	234.510319806068 	4.85400154297571e-05 	0
3 	0.0201340015485761 	5.20417042793042e-18 	0.100473507214925 	0.000628019546052468 	62.3893353665516 	0.000295981873296231 	0
3 	0.0286938283423949 	5.20417042793042e-18 	0.100472522456342 	0.00179099992887838 	27.0666178246815 	0.000614259252685952 	0
3 	0.0375672266585909 	5.20417042793042e-18 	0.100468775727497 	0.0033532587321762 	14.8082230630995 	0.00046178886387822 	0
3 	0.0467656835403032 	3.46944695195361e-18 	0.100463158481465 	0.00492071932165684 	9.52272888063582 	0.000160288557584358 	0
3 	0.0563011068347006 	0 	0.100455204424316 	0.00634202940895128 	6.90467769742931 	2.47227792125749e-05 	0
3 	0.0661858406082647 	0 	0.100444228020603 	0.0076129982402462 	5.43154200910008 	2.08052922687614e-05 	0
3 	0.0764326811267815 	3.46944695195361e-18 	0.100430032335308 	0.00876439063422758 	4.51033375096754 	7.57660123376028e-05 	0
3 	0.0870548934207257 	6.93889390390723e-18 	0.10041268290748 	0.00982555352513 	3.88703898876056 	0.000155236526634459 	0
3 	0.0980662284574838 	3.46944695195361e-18 	0.100392266819263 	0.010818753762623 	3.44043867720724 	0.000246107510751691 	0
3 	0.109480940942647 	-5.20417042793042e-18 	0.100368843441136 	0.0117602746390217 	3.10673809894366 	0.000343479161154233 	0
3 	0.121313807773416 	-1.73472347597681e-18 	0.100342456830918 	0.0126621423223066 	2.84954250764031 	0.00044561850414114 	0
3 	0.13358014716801 	3.46944695195361e-18 	0.100313145208787 	0.0135334417344333 	2.64669618658257 	0.000552108491315793 	0
3 	0.146295838495838 	-3.46944695195361e-18 	0.100280944460991 	0.0143812108285672 	2.48398849569611 	0.000663132366271453 	0
3 	0.159477342834115 	-1.38777878078145e-17 	0.100245890394439 	0.0152110419197426 	2.35191136035699 	0.000779180125590687 	0
3 	0.173141724277517 	-2.42861286636753e-17 	0.100208023733389 	0.0160274947370322 	2.24388099731987 	0.000900924012258987 	0
3 	0.18730667202848 	-2.42861286636753e-17 	0.100167397345749 	0.0168343713594362 	2.15520999070645 	0.00102916698557368 	0
3 	0.201990523296728 	-1.38777878078145e-17 	0.100124082941537 	0.0176349101459834 	2.08248617353385 	0.00116482558618257 	0
3 	0.217212287037676 	-1.04083408558608e-17 	0.10007817866294 	0.0184319276930576 	2.02318308947558 	0.00130893063898671 	0
3 	0.232991668560441 	-2.08166817117217e-17 	0.100029818390881 	0.0192279081016782 	1.97540797615515 	0.00146264026888949 	0
3 	0.249349095037321 	-2.08166817117217e-17 	0.0999791824227478 	0.0200250097906188 	1.93773450349633 	0.00162725443888313 	0
3 	0.266305741947753 	-1.38777878078145e-17 	0.0999265096750898 	0.0208252422917058 	1.90908981132437 	0.00180424044745334 	0
3 	0.283883560490998 	-1.38777878078145e-17 	0.0998721134544654 	0.0216305689761147 	1.88867745507785 	0.00199526215354858 	0
3 	0.30210530600303 	-1.73472347597681e-17 	0.0998164018624844 	0.0224429005289026 	1.87592477737328 	0.00220221581762165 	0
3 	0.320994567414413 	-2.42861286636753e-17 	0.0997599020915364 	0.0232641381937469 	1.87044771529069 	0.00242727833622992 	0
3 	0.34057579778732 	-3.12250225675825e-17 	0.0997032895133142 	0.0240962335915888 	1.87202872759152 	0.00267296745046618 	0
3 	0.3608743459712 	-3.46944695195361e-17 	0.0996474259358839 	0.0249412006091332 	1.88060517994302 	0.00294221391769933 	0
3 	0.38191648941809 	-3.81639164714898e-17 	0.0995934109285608 	0.0258011539116923 	1.89626668124685 	0.00323844685770297 	0
3 	0.403729468200046 	-4.5102810375397e-17 	0.0995426389324923 	0.0266784841373403 	1.91926063812693 	0.00356570080196133 	0
3 	0.426341520272733 	-5.20417042793042e-17 	0.0994968626773663 	0.0275760006256727 	1.95000584927396 	0.00392874236907942 	0
3 	0.449781918030828 	-5.89805981832114e-17 	0.0994582662709803 	0.0284970123525336 	1.98911437254857 	0.00433322150548536 	0
3 	0.474081006202548 	-6.24500451351651e-17 	0.0994295178591838 	0.0294454610919166 	2.03742202275378 	0.00478584014908504 	0
3 	0.496091159820835 	-6.59194920871187e-17 	0.0994148499790314 	0.0303023843854292 	2.08808495849139 	0.00522771954863081 	0
3 	0.508912316744007 	-7.28583859910259e-17 	0.0994106715567147 	0.0308012900572483 	2.12009648712673 	0.00549698136334077 	0
3 	0.525382231502762 	-6.93889390390723e-17 	0.0994151907737147 	0.031443905135301 	2.16619274151155 	0.00586758991895039 	0
3 	0.552450780547767 	-6.24500451351651e-17 	0.0994408080741319 	0.0325051021437769 	2.24972548482349 	0.00653306386839295 	0
3 	0.580510929812849 	-5.55111512312578e-17 	0.0994972490197108 	0.0336189489252403 	2.34898779222382 	0.00736443972445631 	0
3 	0.60959900451791 	-3.81639164714898e-17 	0.0995853243145215 	0.0348031435672415 	2.46731324637427 	0.00844918314374272 	0
3 	0.639752660582032 	-3.46944695195361e-17 	0.0997128662179489 	0.0360812074150037 	2.60813131166148 	0.00982669219713841 	0
3 	0.671010933370886 	-4.16333634234434e-17 	0.09989836296835 	0.0374554736345134 	2.77017568082292 	0.0115007339593617 	0
3 	0.7034142882299 	-3.81639164714898e-17 	0.100153193223314 	0.0388751127180536 	2.9426990828614 	0.0133341799654506 	0
3 	0.737004672868605 	-2.42861286636753e-17 	0.100481717842592 	0.0402448834214291 	3.10892934014148 	0.0151353887507039 	0
3 	0.771825571663975 	-2.08166817117217e-17 	0.100881546969084 	0.0414527939470371 	3.25421868777406 	0.0167287138235633 	0
3 	0.807922061953053 	-2.08166817117217e-17 	0.101342137200065 	0.0423897761052168 	3.36950777266829 	0.0179684906620244 	0
3 	0.845340872387742 	-1.04083408558608e-17 	0.101849475537759 	0.0429598663453174 	3.44969285371074 	0.0187546219903138 	0
3 	0.884130443427308 	-3.46944695195361e-18 	0.102393313351529 	0.0430865156521386 	3.49143979835724 	0.0190396493800162 	0
3 	0.924340990046896 	0 	0.102971863244757 	0.042716340169121 	3.49172412024371 	0.0188147839946307 	0
3 	0.966024566743241 	0 	0.103591992637771 	0.0418221692885525 	3.44680007956254 	0.0180812258543697 	0
3 	1.00923513492173 	0 	0.104266228992898 	0.0404112780078689 	3.35200089294419 	0.0168337085875863 	0
3 	1.05402863275205 	0 	0.105008157189417 	0.0385428480436244 	3.20321346884539 	0.0150831888055366 	0
3 	1.10046304758287 	0 	0.105826694807652 	0.0363483508094877 	3.00069966203394 	0.0129226792301881 	0
3 	1.14859849100923 	0 	0.106732295614666 	0.0340355544034836 	2.75584928649675 	0.0105954672350435 	0
3 	1.19849727668994 	1.04083408558608e-17 	0.107763747813486 	0.0318185680494609 	2.48879490550916 	0.00828115403456699 	0
3 	1.25022400101563 	1.73472347597681e-17 	0.108868923695156 	0.0298649936513154 	2.21882618300624 	0.00621903367810845 	0
3 	1.30384562673185 	1.73472347597681e-17 	0.109958071966746 	0.0282716881528006 	1.96561867396709 	0.00461049959277907 	0
3 	1.35943156962565 	1.98408997564847e-17 	0.111032004583023 	0.0270304444290128 	1.74146921077212 	0.00346760042026136 	0
3 	1.41705378838762 	1.76724954115137e-17 	0.11209732642097 	0.0260614543169593 	1.55383535150692 	0.00272297182849752 	0
3 	1.47678687776592 	1.34441069388203e-17 	0.113159111528291 	0.0252476668985093 	1.40472578244943 	0.00224352704636139 	0
3 	1.53870816513277 	1.12757025938492e-17 	0.114219055746025 	0.0244787307943226 	1.28535970595228 	0.00192126637281909 	0
3 	1.60289781058851 	1.30104260698261e-17 	0.115277362816476 	0.0236644003426422 	1.18341087313413 	0.00168378990931671 	0
3 	1.66943891073266 	1.21430643318376e-17 	0.116333273488827 	0.0227450018109111 	1.09154401385259 	0.00148565773479108 	0
3 	1.73841760623657 	1.21430643318376e-17 	0.117382353563945 	0.0216953326921094 	1.00802331579674 	0.00130147559723621 	0
3 	1.80992319335659 	1.56125112837913e-17 	0.118417711127492 	0.0205154177610033 	0.932368649708697 	0.00111981920655571 	0
3 	1.88404823953248 	1.21430643318376e-17 	0.119432392235208 	0.0192217388568635 	0.863841412267902 	0.000938239543982715 	0
3 	1.96088870322037 	6.93889390390723e-18 	0.120373629091086 	0.017897193469798 	0.804396012623537 	0.000766419036360907 	0
3 	2.02025965173184 	6.93889390390723e-18 	0.121086342663074 	0.016817935474697 	0.762888644715207 	0.000633871670316239 	0
3 	2.06006301192217 	6.93889390390723e-18 	0.121579116415253 	0.0160315853309328 	0.735974352954171 	0.000544977158747133 	0
3 	2.09845978584128 	6.93889390390723e-18 	0.121994264940491 	0.015338787635528 	0.714631670373676 	0.000469980610081783 	0
3 	2.13549967996945 	6.93889390390723e-18 	0.122380247673413 	0.0146825580350029 	0.696537736780272 	0.00040182895955592 	0
3 	2.17123064424048 	6.93889390390723e-18 	0.122736126658865 	0.0140631752441508 	0.681548598992303 	0.000340677530885505 	0
3 	2.20569893411515 	6.93889390390723e-18 	0.123063468115599 	0.0134802280066171 	0.669538526910387 	0.000286094778251055 	0
3 	2.23894917046122 	6.93889390390723e-18 	0.123364376877468 	0.0129328101513695 	0.660402454182827 	0.000237678607388644 	0
3 	2.27102439731725 	3.46944695195361e-18 	0.12364076450459 	0.0124196798050486 	0.65405859053665 	0.000195024298985706 	0
3 	2.30196613761521 	3.46944695195361e-18 	0.123894403186645 	0.0119393891749047 	0.650450751664361 	0.000157744194592306 	0
3 	2.33181444693391 	6.93889390390723e-18 	0.124126973073558 	0.011490387531954 	0.649550251000999 	0.00012548709022655 	0
3 	2.3606079653529 	6.93889390390723e-18 	0.12434006455958 	0.0110711003516798 	0.651357402390539 	9.79499092250402e-05 	0
3 	2.3883839674739 	6.93889390390723e-18 	0.124535178034666 	0.0106799881049907 	0.655902761563922 	7.48850103408524e-05 	0
3 	2.41517841067461 	1.04083408558608e-17 	0.124713726135258 	0.0103155882130824 	0.663248235638636 	5.6105138814421e-05 	0
3 	2.44102598165722 	1.38777878078145e-17 	0.124877036389443 	0.00997654337971368 	0.673488160295303 	4.14868344141955e-05 	0
3 	2.46596014135207 	1.38777878078145e-17 	0.125026353744517 	0.00966161906028516 	0.686750406371475 	3.09727831047785e-05 	0
3 	2.49001316823443 	1.73472347597681e-17 	0.125162843010503 	0.00936971231259433 	0.703197539956941 	2.45733898609053e-05 	0
3 	2.51321620011054 	2.08166817117217e-17 	0.125287591217035 	0.00909985376437858 	0.72302802639778 	2.23676551256619e-05 	0
3 	2.535599274427 	2.42861286636753e-17 	0.125401609865116 	0.00885120397286553 	0.746477441434189 	2.45032788438801e-05 	0
3 	2.55719136715571 	2.42861286636753e-17 	0.125505837079623 	0.00862304507151712 	0.773819635047572 	3.11957994938715e-05 	0
3 	2.57802043030465 	2.08166817117217e-17 	0.125601139695765 	0.00841476831993351 	0.80536778997859 	4.27265082563275e-05 	0
3 	2.59811342810315 	2.08166817117217e-17 	0.125688315335318 	0.00822585801047827 	0.841475333631091 	5.94388779727366e-05 	0
3 	2.61749637190832 	2.08166817117217e-17 	0.125768094545341 	0.0080558721514362 	0.882536707068052 	8.17333374491528e-05 	0
3 	2.63619435387806 	1.73472347597681e-17 	0.125841143081234 	0.00790442044640077 	0.928988076314925 	0.000110060428805746 	0
3 	2.65423157945406 	1.04083408558608e-17 	0.125908064415533 	0.00777114031550636 	0.981308195741293 	0.000144912724354387 	0
3 	2.67163139869691 	6.93889390390723e-18 	0.125969402542622 	0.00765567202850889 	1.0400198025178 	0.000186816343434398 	0
3 	2.68841633651388 	1.04083408558608e-17 	0.126025645127271 	0.00755763438873137 	1.10569212810855 	0.000236323458211268 	0
3 	2.7046081218185 	1.38777878078145e-17 	0.126077227013059 	0.0074766027389826 	1.1789453389558 	0.000294007729421575 	0
3 	2.72022771565972 	1.38777878078145e-17 	0.126124534068141 	0.00741209125406101 	1.26045793318668 	0.000360465051959177 	0
3 	2.73529533835694 	1.38777878078145e-17 	0.12616790730534 	0.00736354143639659 	1.35097828370319 	0.000436322186061019 	0
3 	2.74983049567625 	1.38777878078145e-17 	0.126207647176962 	0.00733031836560484 	1.45134159021227 	0.000522255695466811 	0
3 	2.76385200408156 	1.38777878078145e-17 	0.126244017918287 	0.00731171554987249 	1.56249345490974 	0.000619023065281597 	0
3 	2.77737801509343 	1.04083408558608e-17 	0.126277251802133 	0.00730696824484339 	1.68552112380572 	0.000727506975932271 	0
3 	2.79042603878708 	6.93889390390723e-18 	0.126307553173047 	0.00731527397807038 	1.82169316487766 	0.000848772600479337 	0
3 	2.80301296646003 	1.04083408558608e-17 	0.126335102152778 	0.00733581792853014 	1.97250804308995 	0.000984136655381234 	0
3 	2.81515509249872 	1.38777878078145e-17 	0.126360057945857 	0.00736779995095797 	2.13975178003326 	0.00113524594027954 	0
3 	2.82686813547237 	1.38777878078145e-17 	0.126382561722011 	0.00741045955159631 	2.32556474015403 	0.00130416234377215 	0
3 	2.83816725848142 	1.04083408558608e-17 	0.126402739104496 	0.00746309509055395 	2.53251765478845 	0.00149345075398978 	0
3 	2.84906708878691 	6.93889390390723e-18 	0.12642070232044 	0.00752507390885497 	2.76369737564625 	0.00170626589075659 	0
3 	2.85958173674616 	6.93889390390723e-18 	0.126436552035601 	0.00759583091649196 	3.02280366830361 	0.00194643364529347 	0
3 	2.86972481407933 	3.46944695195361e-18 	0.126450379043888 	0.00767485440123142 	3.31425980380696 	0.0022185220271348 	0
3 	2.87950945149043 	0 	0.126462266917668 	0.00776165945267326 	3.64334205823582 	0.00252789634471282 	0
3 	2.88894831566566 	0 	0.126472295973053 	0.00785575154745221 	4.01633685379543 	0.0028807524548359 	0
3 	2.89805362567106 	3.46944695195361e-18 	0.126480536358454 	0.00795658569909605 	4.44073968050063 	0.0032841437788885 	0
3 	2.90683716877067 	1.04083408558608e-17 	0.126487009447528 	0.00806352930577474 	4.92551743391734 	0.00375060147792163 	0
3 	2.91531031568569 	1.38777878078145e-17 	0.126491792093398 	0.00817573447983473 	5.48193400665945 	0.00430317161676714 	0
3 	2.92348403531448 	1.38777878078145e-17 	0.126495222321914 	0.0082917964060492 	6.12550064654678 	0.00495214349359612 	0
3 	2.93136890893229 	1.38777878078145e-17 	0.12649748890735 	0.00840938032536296 	6.87490363481093 	0.00572587414757997 	0
3 	2.93897514388925 	1.38777878078145e-17 	0.126498396527977 	0.00852365011004528 	7.74847297316835 	0.00663348447192065 	0
3 	2.94631258682425 	1.38777878078145e-17 	0.12649780353544 	0.00862705228471306 	8.76423294849829 	0.00767684007448976 	0
3 	2.95339073641193 	1.73472347597681e-17 	0.126495745658376 	0.00870954373864526 	9.94244619203747 	0.00885689170557628 	0
3 	2.96021875565915 	2.08166817117217e-17 	0.126492329551496 	0.0087586901454505 	11.3081019906834 	0.0101729415926941 	0
3 	2.96680548376697 	1.73472347597681e-17 	0.126487693951461 	0.00875954863663273 	12.8927618690568 	0.0116203710921808 	0
3 	2.97315944757337 	1.38777878078145e-17 	0.126482010957068 	0.00869431161511626 	14.7397675846107 	0.013187380815049 	0
3 	2.97928887259171 	1.38777878078145e-17 	0.126475489194726 	0.00854159915611514 	16.9129676382834 	0.0148492465997803 	0
3 	2.98520169365902 	1.73472347597681e-17 	0.126468367297165 	0.00827538459860319 	19.5086649975252 	0.0165582793026871 	0
3 	2.99090556520806 	2.08166817117217e-17 	0.126460907944401 	0.00786353976218765 	22.6755002174887 	0.0182150874155787 	0
3 	2.99640787117633 	2.42861286636753e-17 	0.126453413280546 	0.00726700948805886 	26.6514598773399 	0.0196136120508958 	0
3 	3.00171573456492 	2.77555756156289e-17 	0.126446208807528 	0.00644300116784524 	31.8436941213872 	0.020417489470759 	0
3 	3.00683602665962 	2.77555756156289e-17 	0.126439614531575 	0.00535293453744503 	39.035970186619 	0.0199592285440034 	0
3 	3.01177537592612 	2.77555756156289e-17 	0.126434019845457 	0.00399269877693516 	49.989380763683 	0.016991087064327 	0
3 	3.01654017659085 	2.77555756156289e-17 	0.126429749199688 	0.00249357202991574 	69.5029589300053 	0.0110353150693377 	0
3 	3.02113659691864 	2.42861286636753e-17 	0.12642678266988 	0.00119460107246889 	113.858504675238 	0.00470054423331753 	0
3 	3.02557058719784 	2.08166817117217e-17 	0.126424699782861 	0.000400780608576721 	255.259110761525 	0.00114188318314143 	0
3 	3.02984788744324 	2.42861286636753e-17 	0.126422989421117 	8.32389485895259e-05 	1055.45833176465 	0.000134765435144751 	0
