4 	0.00273779077457397 	1.04083408558608e-17 	-0.0444225589856013 	-9.52873082078327e-05 	2.1865480979686e-21
4 	0.00831366561724407 	1.73472347597681e-17 	-0.122727450513493 	-0.000250837181104545 	6.21737540721922e-21
4 	0.0140938010840032 	1.73472347597681e-17 	-0.184096623270417 	-0.000770027838510953 	1.39028194102122e-20
4 	0.0200856798396764 	6.93889390390723e-18 	-0.225002688030849 	-0.00161954109481298 	9.39561570622382e-22
4 	0.0262970586610136 	8.67361737988404e-18 	-0.246116708753091 	-0.00256873113821796 	-1.17281188257782e-21
4 	0.0327359784782121 	1.21430643318376e-17 	-0.254657789675947 	-0.00351061256128434 	3.03675694764602e-17
4 	0.0394107747842902 	8.67361737988404e-18 	-0.257118439230774 	-0.00442919009574231 	3.6936805488884e-17
4 	0.0463300884257853 	8.67361737988404e-18 	-0.256733493841052 	-0.00532426143001176 	-1.44727711904764e-17
4 	0.0535028767887471 	8.67361737988404e-18 	-0.254852360724705 	-0.00619615163896396 	-2.09824220417439e-17
4 	0.060938425394508 	0 	-0.252063397293043 	-0.00704750860374114 	4.67444841980656e-21
4 	0.0686463599202389 	-6.93889390390723e-18 	-0.248650531012516 	-0.00788242955622248 	-1.52824973653816e-21
4 	0.0766366586598532 	-1.56125112837913e-17 	-0.244763818487997 	-0.00870500682913815 	-2.0713984947155e-21
4 	0.0849196654413917 	-2.08166817117217e-17 	-0.240487919067679 	-0.00951877704688368 	-3.91979974564703e-22
4 	0.0935061030176071 	-2.25514051876985e-17 	-0.235872408860995 	-0.0103266974120271 	-1.83345356914771e-22
4 	0.102407086947087 	-2.60208521396521e-17 	-0.230946452146197 	-0.0111312480127033 	1.49829460769173e-21
4 	0.11163413998388 	-2.42861286636753e-17 	-0.225726449855771 	-0.0119345339520368 	1.55720435832536e-21
4 	0.121199206994262 	-2.60208521396521e-17 	-0.220220273184699 	-0.012738369916036 	1.13775720408442e-22
4 	0.131114670419936 	-3.12250225675825e-17 	-0.214429718518187 	-0.0135443485102173 	-1.58219128860704e-21
4 	0.141393366307709 	-3.64291929955129e-17 	-0.208351978515326 	-0.014353894663766 	-3.51542430311031e-22
4 	0.152048600926373 	-4.0766001685455e-17 	-0.201980538750241 	-0.0151683084831331 	-3.85918578764942e-22
4 	0.163094167992309 	-4.0766001685455e-17 	-0.195305721477344 	-0.0159887988896886 	-3.0478141063417e-21
4 	0.174544366526125 	-4.5102810375397e-17 	-0.188315001466601 	-0.016816510049179 	-2.44006096142571e-22
4 	0.186414019363427 	-4.5102810375397e-17 	-0.180993166731778 	-0.017652542204075 	-5.69787395379656e-21
4 	0.198718492343699 	-4.16333634234434e-17 	-0.173322367627563 	-0.018497968177872 	-3.48754447268322e-22
4 	0.211473714202121 	-4.42354486374086e-17 	-0.165282080605725 	-0.0193538465492269 	-3.00271145308697e-21
4 	0.224696197190089 	-4.38017677684144e-17 	-0.156849002474126 	-0.0202212322778348 	2.72917443969592e-21
4 	0.238403058451124 	-4.16333634234434e-17 	-0.147996884409702 	-0.0211011853881766 	4.29456920532925e-23
4 	0.25261204217984 	-4.0766001685455e-17 	-0.138696310653473 	-0.0219947781669928 	1.61889568044188e-22
4 	0.267341542592663 	-3.69170839731314e-17 	-0.128914423866947 	-0.0229031011925286 	6.17190909077471e-21
4 	0.282610627740031 	-4.16875735320676e-17 	-0.11861446732914 	-0.0238282032510861 	5.57412305845363e-24
4 	0.298439064190913 	-5.20417042793042e-17 	-0.107752749836989 	-0.0247888038983102 	1.01725982769771e-24
4 	0.31484734262158 	-5.55111512312578e-17 	-0.0962859588043314 	-0.0257667499753723 	-5.83169825180255e-21
4 	0.331856704341783 	-5.20417042793042e-17 	-0.0841630746817089 	-0.0267632178537705 	-1.95876828016001e-22
4 	0.349489168792654 	-4.5102810375397e-17 	-0.0713273506086113 	-0.027779400919196 	3.18681027728209e-22
4 	0.367767562051934 	-4.5102810375397e-17 	-0.0577156591667409 	-0.0288165028134579 	8.49226902912377e-22
4 	0.386715546383437 	-4.5102810375397e-17 	-0.0432577659137064 	-0.0298757239496386 	-4.07183419621288e-21
4 	0.406357650868994 	-3.81639164714898e-17 	-0.0278755303495201 	-0.0309582381382565 	5.38326495276827e-21
4 	0.426719303162537 	-3.12250225675825e-17 	-0.0114820419910316 	-0.0320651581688121 	-2.37377732696801e-21
4 	0.447826862407422 	-2.77555756156289e-17 	0.0060193236210712 	-0.0331974892545698 	1.01363485406655e-21
4 	0.46970765335962 	-3.12250225675825e-17 	0.0247362880126387 	-0.0343560254971271 	-1.48988245360602e-22
4 	0.49239000176093 	-3.12250225675825e-17 	0.0447896445475103 	-0.0355410042332183 	4.34600855806678e-22
4 	0.515903271008024 	-2.77555756156289e-17 	0.066313417444379 	-0.0367520900448853 	-1.69739329351891e-17
4 	0.540277900164783 	-2.77555756156289e-17 	0.0894564678667728 	-0.0379901151973883 	-1.96372934587374e-17
4 	0.565545443367137 	-3.12250225675825e-17 	0.114385002820811 	-0.0392569694934557 	1.85918657485405e-17
4 	0.591738610671419 	-3.12250225675825e-17 	0.141342863946391 	-0.0405293865294287 	4.4034400998392e-17
4 	0.618891310399116 	-3.12250225675825e-17 	0.170862965599051 	-0.0417515959964832 	5.48251729114539e-17
4 	0.647038693032827 	-3.81639164714898e-17 	0.203669648632673 	-0.0428741066462468 	-5.26513861327733e-17
4 	0.667782273879591 	-4.16333634234434e-17 	0.229315594106849 	-0.0435956417493572 	-5.10230371121828e-17
4 	0.682636887929426 	-4.5102810375397e-17 	0.248556831795008 	-0.044045347756187 	-1.79585633089406e-17
4 	0.706475516221205 	-4.85722573273506e-17 	0.280597198515393 	-0.0446756460418289 	-3.30565939589833e-22
4 	0.737840739113098 	-5.20417042793042e-17 	0.324642929467328 	-0.0453458678039666 	2.00792377635895e-21
4 	0.770353978425192 	-4.85722573273506e-17 	0.372087085100352 	-0.0458390630294452 	1.45614369154548e-21
4 	0.804057208816433 	-4.5102810375397e-17 	0.422605607516127 	-0.0461101237210526 	-1.55484611031466e-21
4 	0.838993935700995 	-5.89805981832114e-17 	0.475855688733822 	-0.0461098495181976 	2.54509094292276e-20
4 	0.875209250695702 	-7.11236625150491e-17 	0.531426664641278 	-0.0458021224259702 	1.97961861648251e-21
4 	0.912749889036649 	-6.93889390390723e-17 	0.588823916062692 	-0.0451750980448346 	-3.23650815195295e-21
4 	0.951664289030416 	-7.02563007770607e-17 	0.647533170151548 	-0.0442459996513308 	-2.38741616343024e-20
4 	0.992002653606879 	-7.32920668600201e-17 	0.707181427346957 	-0.0430559585567413 	1.47986799253404e-21
4 	1.03381701404215 	-6.72205346941013e-17 	0.767814295017665 	-0.0416325232733983 	1.41302765568075e-19
4 	1.07716129592165 	-5.55111512312578e-17 	0.829634765479751 	-0.0399349921634619 	1.57365792249474e-21
4 	1.12209138741467 	-5.20417042793042e-17 	0.891515419911564 	-0.0379259100494135 	-5.28966532487378e-20
4 	1.16866520993309 	-5.55111512312578e-17 	0.951012424545556 	-0.0356253654587015 	3.95943201537286e-21
4 	1.21694279124799 	-5.89805981832114e-17 	1.00559795470833 	-0.0331373107221583 	4.28060416771987e-20
4 	1.26698634113888 	-5.89805981832114e-17 	1.05395029845503 	-0.0306088709411181 	3.17600321683959e-20
4 	1.31886032965083 	-5.55111512312578e-17 	1.09642930878793 	-0.0280425112173544 	9.87878476760624e-21
4 	1.37263156803559 	-5.89805981832114e-17 	1.13176485192151 	-0.0255991862949613 	6.28569963410004e-21
4 	1.41220272459524 	-6.24500451351651e-17 	1.15593484127925 	-0.023714982635621 	1.51559781330156e-22
4 	1.43617694926586 	-6.24500451351651e-17 	1.17127716745246 	-0.0224254790801644 	0
4 	1.45930396367274 	-6.24500451351651e-17 	1.18308184521758 	-0.0213732448999131 	0
4 	1.48161370685419 	-6.24500451351651e-17 	1.19364458791784 	-0.020379039461419 	0
4 	1.50313505985141 	-6.24500451351651e-17 	1.20311068583925 	-0.0194422203486264 	0
4 	1.52389588309638 	-5.89805981832114e-17 	1.21160363991594 	-0.0185590726600328 	0
4 	1.54392305247857 	-5.55111512312578e-17 	1.21922759593405 	-0.0177250901692787 	0
4 	1.56324249413703 	-5.55111512312578e-17 	1.22606999377092 	-0.0169360541989498 	0
4 	1.58187921802306 	-5.55111512312578e-17 	1.2322040607639 	-0.0161880921992074 	0
4 	1.59985735027679 	-5.89805981832114e-17 	1.23769099469662 	-0.0154776732746514 	0
4 	1.61720016445966 	-5.89805981832114e-17 	1.24258179051983 	-0.0148016106421527 	0
4 	1.63393011168312 	-5.20417042793042e-17 	1.24691872350022 	-0.0141570454604471 	0
4 	1.65006884967273 	-4.85722573273506e-17 	1.25073652648582 	-0.0135414178567116 	0
4 	1.66563727080512 	-5.20417042793042e-17 	1.25406330555085 	-0.0129524339748556 	0
4 	1.68065552915414 	-5.55111512312578e-17 	1.25692123619299 	-0.0123880332672072 	0
4 	1.69514306658136 	-5.55111512312578e-17 	1.25932707671761 	-0.0118463578314743 	0
4 	1.70911863790442 	-5.89805981832114e-17 	1.2612925291541 	-0.0113257245764292 	0
4 	1.7226003351761 	-6.24500451351651e-17 	1.26282447236607 	-0.0108246004585273 	0
4 	1.73560561110536 	-6.59194920871187e-17 	1.2639250875921 	-0.010341580740935 	0
4 	1.74815130165068 	-6.93889390390723e-17 	1.26459189380552 	-0.00987537010408321 	0
4 	1.76025364781502 	-6.93889390390723e-17 	1.26481770919863 	-0.00942476641854279 	0
4 	1.77192831667064 	-6.59194920871187e-17 	1.26459055593235 	-0.00898864703370086 	0
4 	1.78319042164083 	-6.24500451351651e-17 	1.26389352818123 	-0.00856595751425723 	0
4 	1.79405454206499 	-5.89805981832114e-17 	1.26270464851217 	-0.00815570285514539 	0
4 	1.80453474207227 	-5.20417042793042e-17 	1.26099674463269 	-0.00775694131102753 	0
4 	1.81464458878828 	-4.85722573273506e-17 	1.25873738700219 	-0.00736878107383817 	0
4 	1.8243971698984 	-4.85722573273506e-17 	1.25588893652747 	-0.00699038009990791 	0
4 	1.83380511059041 	-4.85722573273506e-17 	1.25240875844137 	-0.00662094939794747 	0
4 	1.84288058989839 	-4.85722573273506e-17 	1.2482496603176 	-0.00625976000465831 	0
4 	1.85163535646909 	-4.5102810375397e-17 	1.24336060500565 	-0.00590615365998179 	0
4 	1.86008074377113 	-4.16333634234434e-17 	1.23768772909605 	-0.00555955682740397 	0
4 	1.8682276847667 	-4.5102810375397e-17 	1.23117566195526 	-0.00521949719597148 	0
4 	1.8760867260648 	-5.20417042793042e-17 	1.22376909064041 	-0.00488562119740508 	0
4 	1.88366804157438 	-5.89805981832114e-17 	1.21541445866997 	-0.0045577104905321 	0
4 	1.89098144567491 	-6.24500451351651e-17 	1.20606163361022 	-0.00423569519299106 	0
4 	1.89803640592158 	-6.24500451351651e-17 	1.19566534443441 	-0.00391966250182623 	0
4 	1.90484205530155 	-6.24500451351651e-17 	1.18418618704168 	-0.00360985896616825 	0
4 	1.91140720405698 	-6.59194920871187e-17 	1.17159102980745 	-0.00330667352658029 	0
4 	1.91774035109035 	-7.28583859910259e-17 	1.15785271434174 	-0.00301057711750623 	0
4 	1.9238496949667 	-7.63278329429795e-17 	1.14294898541924 	-0.00272220925224887 	0
4 	1.92974314452705 	-7.28583859910259e-17 	1.12684319219456 	-0.00244249367754253 	0
4 	1.9354283291268 	-7.28583859910259e-17 	1.10943518718087 	-0.00217222262479051 	0
4 	1.9409126085123 	-7.63278329429795e-17 	1.09056514061594 	-0.00191192926245863 	0
4 	1.94620308234835 	-7.63278329429795e-17 	1.0701202459096 	-0.00166268734646608 	0
4 	1.95130659940914 	-7.63278329429795e-17 	1.04810046161757 	-0.00142618610804263 	0
4 	1.95622976644424 	-7.28583859910259e-17 	1.02456328764788 	-0.00120394880029294 	0
4 	1.96097895673142 	-6.93889390390723e-17 	0.999552152687222 	-0.000997171723851003 	0
4 	1.96556031832711 	-7.28583859910259e-17 	0.973064936446237 	-0.000806897805772177 	0
4 	1.96997978202541 	-7.63278329429795e-17 	0.945042863461731 	-0.000634004793881268 	0
4 	1.97424306903575 	-7.63278329429795e-17 	0.915366029860685 	-0.00047918503188086 	0
4 	1.9783556983893 	-7.97972798949331e-17 	0.883848211210969 	-0.000342940070532819 	0
4 	1.98232299408358 	-8.67361737988404e-17 	0.850227946749849 	-0.000225572605497867 	0
4 	1.98615009197469 	-9.0205620750794e-17 	0.814154889590696 	-0.000127169198208209 	0
4 	1.98984194642589 	-8.67361737988404e-17 	0.775172569452751 	-4.75791709687067e-05 	0
4 	1.99340333672126 	-8.32667268468867e-17 	0.732702264715245 	1.36041938969509e-05 	0
4 	1.99683887325273 	-7.97972798949331e-17 	0.686026552100365 	5.70850007959814e-05 	0
4 	2.00015300348844 	-7.63278329429795e-17 	0.634215581965276 	8.41249051874205e-05 	0
4 	2.00335001773022 	-7.63278329429795e-17 	0.576046210848951 	9.66421404435958e-05 	0
4 	2.00643405466757 	-7.63278329429795e-17 	0.51031587561323 	9.6930865513148e-05 	0
4 	2.00940910673542 	-7.63278329429795e-17 	0.436794625951452 	8.74568383580964e-05 	0
4 	2.01227902528252 	-7.63278329429795e-17 	0.357173113043877 	7.08959201163293e-05 	0
4 	2.01504752555717 	-7.63278329429795e-17 	0.274796890098082 	5.04815866573778e-05 	0
4 	2.01771819151684 	-7.63278329429795e-17 	0.193022502033682 	3.00576866237986e-05 	0
4 	2.02029448046774 	-7.63278329429795e-17 	0.113824935239079 	1.33836550605441e-05 	0
4 	2.02277972754047 	-7.63278329429795e-17 	0.0375047918097183 	3.20904483243703e-06 	0
