0.999999999999999 	0.45934591278652 	-7.63278329429795e-17 	-0.0299536392514051 	0.0173005065341355 	1.96885120289994 	0.00061503381005279 	0
0.999999999999999 	0.482961456847958 	-6.76542155630955e-17 	-0.0302361009555438 	0.0176609858025745 	1.93081571962587 	0.000668699094722559 	0
0.999999999999999 	0.507340596788655 	-7.28583859910259e-17 	-0.0304977688316814 	0.0180156166579045 	1.8996928433366 	0.000737849401834215 	0
0.999999999999999 	0.532503907976318 	-7.63278329429795e-17 	-0.0307339551173101 	0.018373257773534 	1.87724920812366 	0.000825089321914828 	0
0.999999999999999 	0.558472187253039 	-7.41594285980085e-17 	-0.0309405907027573 	0.0187474574515977 	1.86669415699974 	0.000934681445011118 	0
0.999999999999999 	0.5852664235111 	-7.58941520739853e-17 	-0.0311142397319075 	0.0191591540534451 	1.87380581728276 	0.00107464184828406 	0
0.999999999999999 	0.612907764628182 	-7.97972798949331e-17 	-0.0311782015285637 	0.0196898797306093 	1.91530766325811 	0.00128233644065297 	0
0.999999999999999 	0.641417480463068 	-8.67361737988404e-17 	-0.0311436323907049 	0.0203952203482182 	2.0185768374 	0.00159629897733098 	0
0.999999999999999 	0.670816921592327 	-8.84708972748172e-17 	-0.0310096415332436 	0.0213482899763315 	2.20583998365841 	0.00207912733501821 	0
0.999999999999999 	0.701127473446676 	-8.15320033709099e-17 	-0.0307447459305405 	0.0226761311918774 	2.47689560685504 	0.00286340033141053 	0
0.999999999999999 	0.732370505482658 	-6.67868538251071e-17 	-0.0303180167342852 	0.024637842994228 	2.85886609985258 	0.00419532335311666 	0
0.999999999999999 	0.7530382470053 	-5.8113236445223e-17 	-0.0299544959417895 	0.0263712041085111 	3.18129381401652 	0.00548758551985671 	0
0.999999999999999 	0.769733793157991 	-5.72458747072346e-17 	-0.0296063325393948 	0.0281614757504224 	3.49818013057857 	0.00695005359299442 	0
0.999999999999999 	0.798919143604205 	-5.20417042793042e-17 	-0.0289136316640119 	0.0321008961384179 	4.14948110889631 	0.0105358919115815 	0
0.999999999999999 	0.833973273249739 	-4.5102810375397e-17 	-0.0279284628939456 	0.0387132633447476 	5.11631382002606 	0.0176832462222946 	0
0.999999999999999 	0.869940495526082 	-3.98986399474666e-17 	-0.0267556001927225 	0.0479101024012903 	6.26908552492515 	0.0300643671764256 	0
0.999999999999999 	0.90683205719743 	-3.29597460435593e-17 	-0.0253517757924909 	0.0595705496123846 	7.52827114412669 	0.0501976477396357 	0
0.999999999999999 	0.944658471732194 	-2.08166817117217e-17 	-0.0236035965935377 	0.0728513026536852 	8.80352596783472 	0.0812763587329006 	0
0.999999999999999 	0.983429450781787 	-1.38777878078145e-17 	-0.0212560509358841 	0.084979291432323 	9.89683320157164 	0.117609403594239 	0
0.999999999999999 	1.02315383329415 	-8.67361737988404e-18 	-0.0182362805804856 	0.0933411423857365 	10.5435738952569 	0.145451379550302 	0
0.999999999999999 	1.05553668410567 	-3.46944695195361e-18 	-0.0154780693072464 	0.0963589935593945 	10.5690826665852 	0.151295896476575 	0
0.999999999999999 	1.07619557829799 	-5.20417042793042e-18 	-0.0136684077462666 	0.096671189742397 	10.3411672704757 	0.146127693606289 	0
0.999999999999999 	1.10579352755353 	-3.46944695195361e-18 	-0.0111462873994026 	0.0952216864382861 	9.66536288750711 	0.127193297006812 	0
0.999999999999999 	1.14866974742099 	-1.04083408558608e-17 	-0.00771084757393328 	0.0910283932740198 	8.2121880805713 	0.087978258053319 	0
0.999999999999999 	1.19241815352635 	-1.55040910665427e-17 	-0.00460342808390005 	0.0862760182657329 	6.55067765327882 	0.0506655766695144 	0
1 	1.23704043473638 	-1.55040910665427e-17 	-0.00188222993252882 	0.0825072455591169 	5.12609555387834 	0.0273563107161119 	0
1 	1.28253762191881 	-1.73472347597681e-17 	0.000507956640794396 	0.0797117842635501 	4.04723228358571 	0.0165228308551692 	0
1 	1.32891009221053 	-1.77809156287623e-17 	0.00284341347482264 	0.0771906662097649 	3.32430203216455 	0.0115097528218828 	0
1 	1.36302484712642 	-2.12503625807159e-17 	0.00456865544468219 	0.0753492057305676 	2.98802504997441 	0.00951167090417745 	0
1 	1.38686726982032 	-2.42861286636753e-17 	0.00576584158031747 	0.0741148773871599 	2.83649864116471 	0.00864893493801962 	0
1 	1.41220272459524 	-2.77555756156289e-17 	0.00738185696417509 	0.0723872975331722 	2.68397660589645 	0.00775531494833691 	0
1 	1.43617694926586 	-2.77555756156289e-17 	0.00893202415854017 	0.0705208048355201 	2.5700680768105 	0.00702453009935703 	0
1 	1.45930396367274 	-2.42861286636753e-17 	0.0103011329577292 	0.0687495534121394 	2.48791344074479 	0.00643933696459916 	0
1 	1.48161370685419 	-2.08166817117217e-17 	0.0116524256795293 	0.0669325792121344 	2.41908107717878 	0.00588771550232516 	0
1 	1.50313505985141 	-2.08166817117217e-17 	0.0129618921883082 	0.0650871593769246 	2.35967283433035 	0.0053550383098755 	0
1 	1.52389588309638 	-1.38777878078145e-17 	0.0142202576016269 	0.0632301466773512 	2.30749918979836 	0.00484261924420937 	0
1 	1.54392305247858 	-6.93889390390723e-18 	0.0154244793738867 	0.0613765094956538 	2.26136950454182 	0.00435412463254631 	0
1 	1.56324249413704 	-6.93889390390723e-18 	0.0165731308995769 	0.0595387336282348 	2.22066178443561 	0.00389329813635091 	0
1 	1.58187921802306 	-6.93889390390723e-18 	0.0176657815790038 	0.0577267366191644 	2.18506535825145 	0.00346287910169011 	0
1 	1.59985735027679 	-6.93889390390723e-18 	0.0187028760966975 	0.0559480613262272 	2.1544319259919 	0.00306429219499048 	0
1 	1.61720016445966 	-3.46944695195361e-18 	0.0196854815886331 	0.0542081963360572 	2.12869367804052 	0.00269775495608776 	0
1 	1.63393011168312 	0 	0.0206150657356961 	0.0525109301715696 	2.10782172294317 	0.00236255438537745 	0
1 	1.65006884967273 	0 	0.0214933500855165 	0.0508586881335716 	2.09180776148484 	0.00205735015993746 	0
1 	1.66563727080512 	6.93889390390723e-18 	0.0223222142578791 	0.0492528280565378 	2.08065848065768 	0.00178043960577635 	0
1 	1.68065552915415 	1.38777878078145e-17 	0.0231036306027603 	0.0476938876824471 	2.07439645079483 	0.00152996333982588 	0
1 	1.69514306658136 	1.38777878078145e-17 	0.0238396185565042 	0.0461817851770025 	2.07306405326937 	0.00130405223632738 	0
1 	1.70911863790442 	1.38777878078145e-17 	0.0245322121713815 	0.0447159783399578 	2.07672864534432 	0.00110092544021557 	0
1 	1.72260033517611 	1.73472347597681e-17 	0.0251834364524526 	0.0432955893267137 	2.08548815458835 	0.000918951417031663 	0
1 	1.73560561110537 	2.08166817117217e-17 	0.0257952896787544 	0.0419195015327206 	2.09947685045845 	0.00075668309280801 	0
1 	1.74815130165068 	2.08166817117217e-17 	0.0263697299729341 	0.0405864344975068 	2.11887134177724 	0.000612876056735864 	0
1 	1.76025364781503 	2.08166817117217e-17 	0.0269086651067933 	0.0392950017058079 	2.14389700940981 	0.000486496619563418 	0
1 	1.77192831667064 	2.42861286636753e-17 	0.0274139447954372 	0.0380437549136519 	2.17483517326002 	0.000376724682126036 	0
1 	1.78319042164083 	3.12250225675825e-17 	0.0278873547986453 	0.036831218049707 	2.21203135444685 	0.000282954972911533 	0
1 	1.79405454206499 	3.12250225675825e-17 	0.0283306125573212 	0.0356559136051943 	2.25590505491935 	0.000204799249960795 	0
1 	1.80453474207227 	2.77555756156289e-17 	0.028745364338434 	0.0345163833042635 	2.3069615544773 	0.000142091463158218 	0
1 	1.81464458878829 	2.42861286636753e-17 	0.029133183645103 	0.0334112041955993 	2.36580633076961 	9.48976226612477e-05 	0
1 	1.8243971698984 	2.08166817117217e-17 	0.0294955705752893 	0.0323390013057092 	2.43316285496066 	6.35321208117616e-05 	0
1 	1.83380511059041 	2.08166817117217e-17 	0.0298339518433623 	0.031298457732727 	2.50989472018511 	4.85824771190338e-05 	0
1 	1.84288058989839 	2.42861286636753e-17 	0.0301496813016767 	0.0302883422025896 	2.59703330955815 	5.09449730007625e-05 	0
1 	1.8516353564691 	2.77555756156289e-17 	0.0304440410469905 	0.0293075211514469 	2.69581259095451 	7.18743627068115e-05 	0
1 	1.86008074377113 	2.77555756156289e-17 	0.0307182430466854 	0.0283549336725871 	2.80771322280278 	0.00011305198115174 	0
1 	1.8682276847667 	2.08166817117217e-17 	0.0309734307973351 	0.0274296000818258 	2.9345188397696 	0.000176678277859583 	0
1 	1.8760867260648 	1.04083408558608e-17 	0.0312106806177064 	0.0265306517608481 	3.078388284815 	0.000265597986866142 	0
1 	1.88366804157438 	3.46944695195361e-18 	0.0314310026811972 	0.0256573596771788 	3.24194890278647 	0.000383469180376415 	0
1 	1.89098144567491 	0 	0.0316353422668241 	0.0248091889348825 	3.42841779698597 	0.000534992273060675 	0
1 	1.89803640592158 	3.46944695195361e-18 	0.031824581572772 	0.0239857845051114 	3.64176074250381 	0.000726220964707588 	0
1 	1.90484205530155 	6.93889390390723e-18 	0.031999541051426 	0.0231869593930549 	3.88690234282711 	0.000964986754417074 	0
1 	1.91140720405698 	3.46944695195361e-18 	0.0321609795210852 	0.0224127743626633 	4.17000561570061 	0.00126148122323926 	0
1 	1.91774035109036 	0 	0.0323095941132024 	0.0216636111211144 	4.49884599016679 	0.00162905495320832 	0
1 	1.9238496949667 	0 	0.0324460206829302 	0.0209402426323832 	4.88331461119251 	0.00208531767105151 	0
1 	1.92974314452705 	0 	0.0325708339088507 	0.0202439163442297 	5.33609871165651 	0.0026536517185214 	0
1 	1.9354283291268 	3.46944695195361e-18 	0.0326845470574953 	0.0195764668703878 	5.87360302391081 	0.00336528208243577 	0
1 	1.9409126085123 	1.04083408558608e-17 	0.0327876125560311 	0.0189404476278134 	6.51719552471903 	0.00426207243685534 	0
1 	1.94620308234835 	1.04083408558608e-17 	0.0328804239002588 	0.01833926557023 	7.29488095130696 	0.00540021965112101 	0
1 	1.95130659940914 	6.93889390390723e-18 	0.032963319741068 	0.0177772922419943 	8.2435191393936 	0.00685495390346671 	0
1 	1.95622976644424 	3.46944695195361e-18 	0.0330365923463773 	0.0172598920008618 	9.41169795019788 	0.00872614262217646 	0
1 	1.96097895673142 	0 	0.0331005019978304 	0.016793258998684 	10.8633192907636 	0.0111442349922546 	0
1 	1.96556031832711 	0 	0.0331552892098063 	0.0163838911468027 	12.6818363051398 	0.0142751565298337 	0
1 	1.96997978202541 	0 	0.033201167105401 	0.0160374701198073 	14.9748946444547 	0.018321610593515 	0
1 	1.97424306903576 	0 	0.0332383587961891 	0.0157569164963119 	17.8789916304911 	0.0235403771878425 	0
1 	1.9783556983893 	0 	0.0332675504681229 	0.0155389456555136 	21.5660780246956 	0.0303187338429683 	0
1 	1.98232299408358 	0 	0.03329006329903 	0.0153666892319385 	26.2609554014845 	0.0390251096499264 	0
1 	1.9861500919747 	3.46944695195361e-18 	0.0333063247296648 	0.0152012904605626 	32.2518911805106 	0.0495886079356516 	0
1 	1.98984194642589 	6.93889390390723e-18 	0.0333156355392008 	0.0149832433850365 	39.8198471426433 	0.0621374061614411 	0
1 	1.99340333672126 	6.93889390390723e-18 	0.0333180890954591 	0.014626785682103 	49.168039668585 	0.0760027203831685 	0
1 	1.99683887325273 	6.93889390390723e-18 	0.0333149495625867 	0.0140247909557273 	60.5043619990781 	0.0899143874477233 	0
1 	2.00015300348845 	6.93889390390723e-18 	0.0333077890193165 	0.0130602432546807 	74.1926829973721 	0.101976104145265 	0
1 	2.00335001773022 	6.93889390390723e-18 	0.0332981134930219 	0.0116231051255123 	91.0014433339674 	0.109271908339572 	0
1 	2.00643405466757 	6.93889390390723e-18 	0.0332873529689406 	0.00964528681744817 	112.721251715257 	0.107945431753196 	0
1 	2.00940910673542 	6.93889390390723e-18 	0.0332769118632605 	0.00715861781443491 	143.991621821786 	0.0922886872771905 	0
1 	2.01227902528252 	6.93889390390723e-18 	0.0332681710437891 	0.00443940915680138 	198.397669169258 	0.0595685936576481 	0
1 	2.01504752555717 	3.46944695195361e-18 	0.0332617724803181 	0.00212503541871472 	322.580281782184 	0.0256752019900844 	0
1 	2.01771819151684 	0 	0.0332569382431498 	0.000721448268840992 	724.6966053158 	0.00654790265706066 	0
1 	2.02029448046774 	0 	0.0332524630208734 	0.000154054733597774 	3061.71588305306 	0.000832544051691168 	0
1 	2.02277972754047 	0 	0.0332489571741402 	1.61124872314543e-05 	7940.81913308113 	3.71774827351259e-05 	5.0186052151962e-38
