1 	0.445956526297466 	3.46944695195361e-18 	-0.077587070755752 	0.0816984224245641 	-4.72106002562807e-18
1 	0.46234732385845 	1.04083408558608e-17 	-0.0753032389230144 	0.0816147867208265 	-4.33687997601498e-18
1 	0.479305393851692 	1.38777878078145e-17 	-0.0726942770470218 	0.0813522644567169 	2.61118450642493e-18
1 	0.496849260750541 	1.12757025938492e-17 	-0.0697614924372127 	0.080908906191066 	4.87489104764433e-19
1 	0.514997982162077 	1.73472347597681e-18 	-0.0665178108715976 	0.0802423925614842 	-5.70407370670587e-21
1 	0.533771159822634 	-3.03576608295941e-18 	-0.0629590295300763 	0.0793686387784956 	9.38463539166959e-21
1 	0.553188950583503 	4.33680868994202e-19 	-0.0590812703620945 	0.0782990009357685 	-2.71521000027253e-20
1 	0.573272077375821 	1.73472347597681e-18 	-0.0548841060766644 	0.0770244137026524 	-4.6492684958507e-19
1 	0.594041840144006 	4.33680868994202e-18 	-0.0503605469820848 	0.0755315092178243 	7.84203984120169e-19
1 	0.615520126737709 	1.04083408558608e-17 	-0.0454855735411855 	0.0738001534771992 	2.89136776461088e-20
1 	0.637729423752996 	1.21430643318376e-17 	-0.040192725742861 	0.0717994690488088 	-3.81138944258643e-19
1 	0.660692827314455 	1.56125112837913e-17 	-0.0343353205511412 	0.069481691935498 	-8.25287600333341e-20
1 	0.684434053791114 	2.08166817117217e-17 	-0.0276424815031967 	0.0667769468648814 	1.0985130846434e-19
1 	0.708977450440528 	2.42861286636753e-17 	-0.0196995631202135 	0.0636002325850425 	2.65609241528385e-19
1 	0.734348005977129 	3.12250225675825e-17 	-0.00994473350562196 	0.0598687949855688 	-2.51313699450988e-19
1 	0.76011352763456 	3.46944695195361e-17 	0.00213412212189275 	0.0555885202418356 	-1.31865413487176e-19
1 	0.77344312796117 	3.46944695195361e-17 	0.0090822456900494 	0.0532326759654708 	-1.98727950405655e-19
1 	0.787719739601384 	3.46944695195361e-17 	0.0181430010693532 	0.0504667343872838 	-2.25515306859069e-17
1 	0.815812717738129 	3.12250225675825e-17 	0.0385527347637483 	0.0447098222488603 	-1.71351023010231e-17
1 	0.844836267939995 	2.77555756156289e-17 	0.065200935359831 	0.0382433517493878 	2.12922380878223e-17
1 	0.87481837580106 	2.42861286636753e-17 	0.1001344569381 	0.031177450132647 	1.58182131327213e-17
1 	0.905787716867529 	2.42861286636753e-17 	0.146548139838736 	0.0236490940891121 	-3.71444636804308e-20
1 	0.937773667679239 	2.77555756156289e-17 	0.208088366293311 	0.0160357809524066 	1.88222242295453e-20
1 	0.97080631701754 	2.08166817117217e-17 	0.285523157024852 	0.00916176308688983 	-5.24287040474897e-18
1 	1.00491647740833 	2.08166817117217e-17 	0.375051021257575 	0.00398998604238009 	-5.30305629483584e-17
1 	1.04013569693589 	3.68628738645072e-17 	0.469602012956378 	0.00115120401283068 	-1.18628645183852e-15
1 	1.07649627143038 	3.59955121265187e-17 	0.560393065526517 	0.000756302229503606 	1.10676572054978e-15
1 	1.11403125709967 	1.99493199737333e-17 	0.639872270529401 	0.00191389910864064 	3.54531372149006e-17
1 	1.15277448368433 	1.90819582357449e-17 	0.704896172635824 	0.00362744957765554 	1.15828039754337e-19
1 	1.19276056822325 	2.77555756156289e-17 	0.75576228499932 	0.00516103868844326 	2.08898467142125e-20
1 	1.23402492952644 	2.94902990916057e-17 	0.795259099529035 	0.00614087785764381 	2.13785858692801e-20
1 	1.27660380346088 	2.08166817117217e-17 	0.827082712884845 	0.00654133755406344 	-3.06162974504976e-21
1 	1.31740766006914 	2.08166817117217e-17 	0.852684809378295 	0.00653430281493051 	-3.26906437730662e-20
1 	1.33971801747106 	2.77555756156289e-17 	0.86564978793919 	0.0064489613865549 	-2.50066749285247e-20
1 	1.36587618431243 	3.46944695195361e-17 	0.879800739569962 	0.00629751370209336 	-4.36685204354524e-20
1 	1.41265536205008 	4.16333634234434e-17 	0.9041502352385 	0.00603365514470713 	-3.62123062577836e-20
1 	1.46089676124087 	4.16333634234434e-17 	0.928092367459728 	0.00585194463595918 	7.15859950923947e-20
1 	1.51064074346823 	4.5102810375397e-17 	0.951724963778482 	0.00580637055100866 	1.00981543265214e-20
1 	1.56192862535948 	4.85722573273506e-17 	0.974910898724856 	0.00589537549120722 	-3.3473094470862e-17
1 	1.61480270751014 	6.11490025281825e-17 	0.997447716832386 	0.00608902253711449 	-4.79906024124248e-16
1 	1.66930630575571 	7.32920668600201e-17 	1.01910434648913 	0.00635671267630631 	5.40146426631733e-16
1 	1.72548378499528 	7.80625564189563e-17 	1.03972195841031 	0.0066590479701589 	2.1297971239422e-17
1 	1.78338059577956 	7.97972798949331e-17 	1.05920683572108 	0.0069628833515189 	-5.64024556408463e-20
1 	1.84304331388337 	7.28583859910259e-17 	1.07746776527846 	0.00724102077679737 	7.25989216466801e-21
1 	1.90451968308932 	6.59194920871187e-17 	1.09443862531871 	0.00746013428729277 	1.14107062120233e-20
1 	1.9460342271533 	6.41847686111419e-17 	1.10480136880539 	0.00756245679338593 	4.00362662832892e-21
1 	1.97817556573826 	6.76542155630955e-17 	1.11168035122969 	0.00762503297650299 	9.10785932857367e-22
1 	2.02025965173185 	6.93889390390723e-17 	1.12122908087507 	0.00766646998159308 	-1.24458884175053e-21
1 	2.06006301192217 	6.93889390390723e-17 	1.12983537885711 	0.00766474822286377 	0
1 	2.09845978584128 	6.93889390390723e-17 	1.13706181601144 	0.00762719137055471 	0
1 	2.13549967996946 	7.28583859910259e-17 	1.14350379217109 	0.00754837862897414 	0
1 	2.17123064424048 	7.97972798949331e-17 	1.1492470924665 	0.00743713132656039 	1.53039170132358e-16
1 	2.20569893411515 	8.32667268468867e-17 	1.15436663452796 	0.00729794292623956 	2.45067944688726e-16
1 	2.23894917046122 	8.32667268468867e-17 	1.15892727039717 	0.00713532982357594 	-2.50785359083235e-16
1 	2.27102439731726 	8.32667268468867e-17 	1.16298466637675 	0.00695363960289715 	-1.5445048424844e-16
1 	2.30196613761522 	8.32667268468867e-17 	1.16658621437651 	0.00675682937830911 	0
1 	2.33181444693392 	7.97972798949331e-17 	1.16977193351569 	0.00654840957443743 	0
1 	2.3606079653529 	6.93889390390723e-17 	1.17257532265016 	0.00633144260327211 	0
1 	2.38838396747391 	6.24500451351651e-17 	1.1750241352238 	0.00610855957263091 	0
1 	2.41517841067461 	6.24500451351651e-17 	1.17714106080787 	0.00588199042354355 	0
1 	2.44102598165722 	6.24500451351651e-17 	1.17894430805142 	0.0056536020681713 	0
1 	2.46596014135208 	6.24500451351651e-17 	1.18044809092493 	0.00542493942183771 	0
1 	2.49001316823444 	6.24500451351651e-17 	1.18166302460047 	0.00519726596533391 	0
1 	2.51321620011054 	6.24500451351651e-17 	1.18259643980963 	0.0049716018582917 	0
1 	2.535599274427 	5.89805981832114e-17 	1.18325262576886 	0.00474875853946695 	0
1 	2.55719136715571 	5.89805981832114e-17 	1.18363301235626 	0.0045293693562845 	0
1 	2.57802043030466 	6.59194920871187e-17 	1.18373630261667 	0.00431391615573857 	0
1 	2.59811342810315 	6.93889390390723e-17 	1.18355856717716 	0.00410275200369374 	0
1 	2.61749637190832 	6.24500451351651e-17 	1.18309331296994 	0.00389612033060386 	0
1 	2.63619435387806 	5.55111512312578e-17 	1.1823315398637 	0.00369417086794485 	0
1 	2.65423157945406 	5.55111512312578e-17 	1.18126180034778 	0.00349697276984223 	0
1 	2.67163139869691 	5.55111512312578e-17 	1.17987027908855 	0.00330452532865414 	0
1 	2.68841633651388 	5.89805981832114e-17 	1.17814091057868 	0.00311676670534743 	0
1 	2.70460812181851 	5.89805981832114e-17 	1.17605555359297 	0.00293358111370486 	0
1 	2.72022771565972 	5.55111512312578e-17 	1.17359423989181 	0.00275480492505235 	0
1 	2.73529533835695 	5.55111512312578e-17 	1.17073551057538 	0.00258023219544093 	0
1 	2.74983049567626 	5.55111512312578e-17 	1.16745684574039 	0.00240962015273965 	0
1 	2.76385200408157 	5.55111512312578e-17 	1.16373518105485 	0.00224269520447264 	0
1 	2.77737801509344 	5.55111512312578e-17 	1.15954748876012 	0.00207916002247854 	0
1 	2.79042603878708 	5.55111512312578e-17 	1.1548713818013 	0.00191870221112884 	0
1 	2.80301296646003 	5.55111512312578e-17 	1.1496856809248 	0.00176100495971071 	0
1 	2.81515509249873 	5.55111512312578e-17 	1.14397086926006 	0.00160575991388142 	0
1 	2.82686813547238 	5.55111512312578e-17 	1.13770935080311 	0.00145268228597823 	0
1 	2.83816725848143 	5.55111512312578e-17 	1.13088543089349 	0.00130152798242308 	0
1 	2.84906708878692 	5.55111512312578e-17 	1.12348494850999 	0.00115211228988151 	0
1 	2.85958173674617 	5.20417042793042e-17 	1.11549450950559 	0.00100432946016793 	0
1 	2.86972481407933 	4.85722573273506e-17 	1.10690029189618 	0.000858172389730751 	0
1 	2.87950945149043 	5.20417042793042e-17 	1.09768641300035 	0.000713751513152452 	0
1 	2.88894831566567 	5.20417042793042e-17 	1.087832857954 	0.00057131204451095 	0
1 	2.89805362567107 	4.85722573273506e-17 	1.07731296578083 	0.000431248834207637 	0
1 	2.90683716877067 	4.85722573273506e-17 	1.06609045047589 	0.000294118126286257 	0
1 	2.9153103156857 	4.85722573273506e-17 	1.0541158978538 	0.000160645645890316 	0
1 	2.92348403531449 	5.20417042793042e-17 	1.04132262757538 	3.17307605204072e-05 	0
1 	2.9313689089323 	5.55111512312578e-17 	1.02762174173216 	-9.15533849947901e-05 	0
1 	2.93897514388925 	5.55111512312578e-17 	1.01289608380192 	-0.000207962336116136 	0
1 	2.94631258682425 	5.55111512312578e-17 	0.996992718209734 	-0.000316089314745206 	0
1 	2.95339073641193 	5.55111512312578e-17 	0.979713383757619 	-0.000414414095548742 	0
1 	2.96021875565916 	5.55111512312578e-17 	0.960802122215052 	-0.000501413471961284 	0
1 	2.96680548376697 	5.55111512312578e-17 	0.939912205671297 	-0.00057513673008867 	0
1 	2.97315944757337 	5.55111512312578e-17 	0.916534116370739 	-0.000632552538542207 	0
1 	2.97928887259171 	5.55111512312578e-17 	0.889952766465175 	-0.000670257971479383 	0
1 	2.98520169365903 	5.89805981832114e-17 	0.859276705858624 	-0.000684807801734004 	0
1 	2.99090556520807 	6.24500451351651e-17 	0.823440510884824 	-0.000674372123424692 	0
1 	2.99640787117633 	6.24500451351651e-17 	0.78114085549387 	-0.000638995568447975 	0
1 	3.00171573456492 	6.24500451351651e-17 	0.730769226613639 	-0.000580267419039652 	0
1 	3.00683602665963 	6.24500451351651e-17 	0.670380850153473 	-0.000501595974131102 	0
1 	3.01177537592613 	6.59194920871187e-17 	0.59762820024128 	-0.000408338993725407 	0
1 	3.01654017659085 	6.93889390390723e-17 	0.51005711564937 	-0.000307056051487811 	0
1 	3.02113659691864 	6.93889390390723e-17 	0.407355312865239 	-0.000205965000003226 	0
1 	3.02557058719784 	6.93889390390723e-17 	0.293900532216056 	-0.000116170255421304 	0
1 	3.02984788744324 	6.93889390390723e-17 	0.176379263650501 	-4.88303582874427e-05 	0
