1 	0.445956526297466 	3.46944695195361e-18 	0.0682362399798648 	0.00438077565444801 	1.57409643087466 	3.13267412560543e-05 	0
1 	0.46234732385845 	1.04083408558608e-17 	0.0681839131455536 	0.00457890763767882 	1.51761553337187 	4.38721074366554e-05 	0
1 	0.479305393851692 	1.38777878078145e-17 	0.0681423899316856 	0.00477882578719376 	1.46772450607735 	6.12499304003723e-05 	0
1 	0.496849260750541 	1.12757025938492e-17 	0.0681126948735194 	0.00498199818173755 	1.42374025238984 	8.36408532946296e-05 	0
1 	0.514997982162077 	1.73472347597681e-18 	0.0680964328517701 	0.00519220109734281 	1.38573429549499 	0.00011147054398103 	0
1 	0.533771159822634 	-3.03576608295941e-18 	0.0680936391196756 	0.00541178866489647 	1.35342202244432 	0.000144754027590629 	0
1 	0.553188950583503 	4.33680868994202e-19 	0.0681043941254956 	0.00564381813511094 	1.32715088032697 	0.000183636441470991 	0
1 	0.573272077375821 	1.73472347597681e-18 	0.0681290610206912 	0.00589358540861242 	1.30832777092176 	0.000228681979207288 	0
1 	0.594041840144006 	4.33680868994202e-18 	0.0681682835762178 	0.00616878054823154 	1.29987122311214 	0.000281193201836604 	0
1 	0.615520126737709 	1.04083408558608e-17 	0.0682239558949876 	0.00648105097220345 	1.3074754201551 	0.000344056423672172 	0
1 	0.637729423752996 	1.21430643318376e-17 	0.0683005885738089 	0.00684867413324305 	1.34161318447636 	0.000423051855637131 	0
1 	0.660692827314455 	1.56125112837913e-17 	0.0684056534896814 	0.00729928553131692 	1.41824869186494 	0.000528468571287202 	0
1 	0.684434053791114 	2.08166817117217e-17 	0.0685469676327939 	0.00787058580175307 	1.55343018659967 	0.00067680331549335 	0
1 	0.708977450440528 	2.42861286636753e-17 	0.0687284022048711 	0.00860922629844716 	1.75045960072834 	0.00089616767460023 	0
1 	0.734348005977129 	3.12250225675825e-17 	0.0689486814776645 	0.00959380781792979 	2.00917447027549 	0.00123473082204774 	0
1 	0.76011352763456 	3.46944695195361e-17 	0.069198384206377 	0.0109200805514246 	2.33609552103796 	0.00176058345503396 	0
1 	0.77344312796117 	3.46944695195361e-17 	0.0693334788019385 	0.011713859759479 	2.52459011948866 	0.00209644726204658 	0
1 	0.787719739601384 	3.46944695195361e-17 	0.0694843086341226 	0.0127944743375034 	2.75941313464013 	0.00263126907363557 	0
1 	0.815812717738129 	3.12250225675825e-17 	0.0697875561697522 	0.0152475844266951 	3.26109616012847 	0.00401076463895826 	0
1 	0.844836267939995 	2.77555756156289e-17 	0.0701187643404604 	0.0183818948135979 	3.84180898140042 	0.00626940851227812 	0
1 	0.87481837580106 	2.42861286636753e-17 	0.0705149478769034 	0.0221769809551445 	4.49025530859312 	0.00999217449811176 	0
1 	0.905787716867529 	2.42861286636753e-17 	0.0710305348789797 	0.0265071613209239 	5.19427511432833 	0.0155191882852374 	0
1 	0.937773667679239 	2.77555756156289e-17 	0.0716925363155391 	0.0310640999385699 	5.91330600928877 	0.0230780803924036 	0
1 	0.97080631701754 	2.08166817117217e-17 	0.0725204859990639 	0.0352497980328137 	6.53177232826137 	0.031402075724917 	0
1 	1.00491647740833 	2.08166817117217e-17 	0.0735134049829543 	0.0384494406402398 	6.88377043136703 	0.0375979868380463 	0
1 	1.04013569693589 	3.68628738645072e-17 	0.0746020574164747 	0.0403984724139585 	6.85623500266115 	0.0386694812226406 	0
1 	1.07649627143038 	3.59955121265187e-17 	0.0756500322572859 	0.0412327253023775 	6.40509024485997 	0.0340584503636059 	0
1 	1.11403125709967 	1.99493199737333e-17 	0.0765636589752586 	0.0414711670993226 	5.66142118674422 	0.0265207619027774 	0
1 	1.15277448368433 	1.90819582357449e-17 	0.077296167845418 	0.0415225472051991 	4.79713793627688 	0.0188881520490938 	0
1 	1.19276056822325 	2.77555756156289e-17 	0.0778637452904637 	0.0416134176316495 	3.96158644498045 	0.012963027239322 	0
1 	1.23402492952644 	2.94902990916057e-17 	0.0783002410399689 	0.0417948458425578 	3.25193826053299 	0.00912839226212058 	0
1 	1.27660380346088 	2.08166817117217e-17 	0.0786645289003493 	0.0420073483446472 	2.71460152115996 	0.00699529683574916 	0
1 	1.31740766006914 	2.08166817117217e-17 	0.0790323953886959 	0.0421474591926553 	2.3672125288157 	0.00598974349411829 	0
1 	1.33971801747106 	2.77555756156289e-17 	0.0792569054463431 	0.0421910407076192 	2.22157061020405 	0.00565663315238614 	0
1 	1.36587618431243 	3.46944695195361e-17 	0.0795859093431263 	0.0421545860106243 	2.10146699799293 	0.00544911083736322 	0
1 	1.41265536205008 	4.16333634234434e-17 	0.0802759505497997 	0.0419440625858521 	1.93275571354375 	0.00519616785726201 	0
1 	1.46089676124087 	4.16333634234434e-17 	0.0811398519932595 	0.0414691135943211 	1.80368071699281 	0.00497835628874529 	0
1 	1.51064074346823 	4.5102810375397e-17 	0.0821589859109951 	0.0407045006906073 	1.69142285079228 	0.00469368696702504 	0
1 	1.56192862535948 	4.85722573273506e-17 	0.083314883594656 	0.0396476691255479 	1.58570685596186 	0.00431951293161237 	0
1 	1.61480270751014 	6.11490025281825e-17 	0.0845949552641832 	0.0383154734275593 	1.48333976772383 	0.00387484570267005 	0
1 	1.66930630575571 	7.32920668600201e-17 	0.0859986681938695 	0.0367269868785958 	1.38439586001057 	0.00338944130827284 	0
1 	1.72548378499528 	7.80625564189563e-17 	0.0875149512869582 	0.0349328088823052 	1.28965427106767 	0.00289575236608986 	0
1 	1.78338059577956 	7.97972798949331e-17 	0.0891261905140025 	0.0329898220013461 	1.19989929291987 	0.0024171481938852 	0
1 	1.84304331388337 	7.28583859910259e-17 	0.0908148849922179 	0.0309506171267215 	1.11673946369306 	0.00196929932953636 	0
1 	1.90451968308932 	6.59194920871187e-17 	0.0925549305411518 	0.028855152510882 	1.04040389328528 	0.00156528204981929 	0
1 	1.9460342271533 	6.41847686111419e-17 	0.0936976892647407 	0.0274833897363682 	0.994111872873865 	0.00132691721327476 	0
1 	1.97817556573826 	6.76542155630955e-17 	0.0945287744675901 	0.0265134327021753 	0.963651419309941 	0.00117359152054291 	0
1 	2.02025965173185 	6.93889390390723e-17 	0.0957502405211223 	0.0251141780610536 	0.921869535626681 	0.000967296469955181 	0
1 	2.06006301192217 	6.93889390390723e-17 	0.0969063258001969 	0.0237943010960476 	0.885315399690391 	0.000793044231788257 	0
1 	2.09845978584128 	6.93889390390723e-17 	0.097933138397144 	0.0226500786191384 	0.855892496165686 	0.000656814415949203 	0
1 	2.13549967996946 	7.28583859910259e-17 	0.098908864250482 	0.021598987154041 	0.830920384555957 	0.000543014769846373 	0
1 	2.17123064424048 	7.97972798949331e-17 	0.099829618872766 	0.0206311998534499 	0.809962857937986 	0.000447999717725547 	0
1 	2.20569893411515 	8.32667268468867e-17 	0.100696814467197 	0.0197373736221537 	0.792654506006928 	0.000368568822572677 	0
1 	2.23894917046122 	8.32667268468867e-17 	0.101512777315701 	0.0189090210377634 	0.778694960731712 	0.000301990396849639 	0
1 	2.27102439731726 	8.32667268468867e-17 	0.102279820095785 	0.0181386660140703 	0.767843391781599 	0.000245990791681948 	0
1 	2.30196613761522 	8.32667268468867e-17 	0.103000289487384 	0.0174198620801946 	0.759913489060472 	0.000198717371651018 	0
1 	2.33181444693392 	7.97972798949331e-17 	0.103676555119286 	0.0167471321002995 	0.754768969187264 	0.000158690231658733 	0
1 	2.3606079653529 	6.93889390390723e-17 	0.104310960189065 	0.0161158700261869 	0.752319716742114 	0.000124751303126486 	0
1 	2.38838396747391 	6.24500451351651e-17 	0.104905788345872 	0.0155222304044001 	0.752518688366966 	9.60159816313112e-05 	0
1 	2.41517841067461 	6.24500451351651e-17 	0.105463244212892 	0.0149630205259967 	0.755359675900274 	7.18303953288951e-05 	0
1 	2.44102598165722 	6.24500451351651e-17 	0.10598544138794 	0.014435602840998 	0.760875979863909 	5.17357738121989e-05 	0
1 	2.46596014135208 	6.24500451351651e-17 	0.106474395511904 	0.0139378107163658 	0.7691400069067 	3.54401840734237e-05 	0
1 	2.49001316823444 	6.24500451351651e-17 	0.106932021062728 	0.013467877967181 	0.780263779188512 	2.27972359265954e-05 	0
1 	2.51321620011054 	6.24500451351651e-17 	0.107360130830516 	0.0130243811663876 	0.794400327443636 	1.37910536402081e-05 	0
1 	2.535599274427 	5.89805981832114e-17 	0.107760437296638 	0.0126061930547288 	0.81174592730035 	8.52670158814822e-06 	0
1 	2.55719136715571 	5.89805981832114e-17 	0.108134555360017 	0.0122124451029852 	0.832543124726838 	7.22523080257557e-06 	0
1 	2.57802043030466 	6.59194920871187e-17 	0.108484006010743 	0.0118424972148266 	0.857084475957922 	1.02225085051466e-05 	0
1 	2.59811342810315 	6.93889390390723e-17 	0.108810220662894 	0.0114959125742281 	0.885716895221151 	1.79709564257301e-05 	0
1 	2.61749637190832 	6.24500451351651e-17 	0.109114545939468 	0.0111724356661896 	0.918846456119296 	3.10432262468042e-05 	0
1 	2.63619435387806 	5.55111512312578e-17 	0.10939824876037 	0.010871971502388 	0.956943427193382 	5.01366672939539e-05 	0
1 	2.65423157945406 	5.55111512312578e-17 	0.109662521624145 	0.010594564063516 	1.00054723929713 	7.60771950327317e-05 	0
1 	2.67163139869691 	5.55111512312578e-17 	0.109908487998502 	0.010340371953235 	1.05027098713092 	0.000109820874482457 	0
1 	2.68841633651388 	5.89805981832114e-17 	0.110137207745709 	0.010109639296631 	1.10680497253917 	0.000152451247907472 	0
1 	2.70460812181851 	5.89805981832114e-17 	0.110349682508881 	0.00990266008538643 	1.17091872696586 	0.000205170259542802 	0
1 	2.72022771565972 	5.55111512312578e-17 	0.110546860976266 	0.0097197345679252 	1.24346094255045 	0.000269280703306013 	0
1 	2.73529533835695 	5.55111512312578e-17 	0.11072964392667 	0.00956111700398223 	1.32535684747203 	0.000346158614593415 	0
1 	2.74983049567626 	5.55111512312578e-17 	0.11089888894462 	0.00942695522149775 	1.41760284213184 	0.000437215110525614 	0
1 	2.76385200408157 	5.55111512312578e-17 	0.111055414684726 	0.00931722393228544 	1.52125872604738 	0.000543848950988288 	0
1 	2.77737801509344 	5.55111512312578e-17 	0.111200004566812 	0.00923165556733549 	1.63743862424599 	0.000667393491859413 	0
1 	2.79042603878708 	5.55111512312578e-17 	0.111333409800873 	0.00916967421800456 	1.76730275006525 	0.00080906445971777 	0
1 	2.80301296646003 	5.55111512312578e-17 	0.111456351674813 	0.00913033970802657 	1.91205333136712 	0.000969917592345216 	0
1 	2.81515509249873 	5.55111512312578e-17 	0.111569523084385 	0.00911230939501514 	2.07293921921951 	0.00115082701723501 	0
1 	2.82686813547238 	5.55111512312578e-17 	0.11167358933537 	0.00911382459739281 	2.25127468935058 	0.00135249568502184 	0
1 	2.83816725848143 	5.55111512312578e-17 	0.111769188291927 	0.00913272638448227 	2.44847855648592 	0.00157550792970451 	0
1 	2.84906708878692 	5.55111512312578e-17 	0.111856929971816 	0.00916650203249281 	2.66613987572241 	0.00182043146404135 	0
1 	2.85958173674617 	5.20417042793042e-17 	0.111937395692385 	0.00921235928615522 	2.9061163085186 	0.00208797251324424 	0
1 	2.86972481407933 	4.85722573273506e-17 	0.112011136851392 	0.00926732146289624 	3.17067099779444 	0.0023791843677191 	0
1 	2.87950945149043 	5.20417042793042e-17 	0.1120786733973 	0.00932833318365171 	3.46265402336965 	0.00269572746490177 	0
1 	2.88894831566567 	5.20417042793042e-17 	0.112140492035255 	0.00939236465431966 	3.78573580727039 	0.00304017897355154 	0
1 	2.89805362567107 	4.85722573273506e-17 	0.112197044226313 	0.00945650210019231 	4.14470287125965 	0.00341639208441389 	0
1 	2.90683716877067 	4.85722573273506e-17 	0.112248743962122 	0.00951801289078051 	4.54583182930037 	0.00382991021098658 	0
1 	2.9153103156857 	4.85722573273506e-17 	0.112295965338227 	0.00957437365935605 	4.99736628335964 	0.00428844617089637 	0
1 	2.92348403531449 	5.20417042793042e-17 	0.112339040194081 	0.00962325453099038 	5.51013452492891 	0.00480244230565427 	0
1 	2.9313689089323 	5.55111512312578e-17 	0.112378256216385 	0.0096624537274491 	6.09836557188898 	0.0053857336004712 	0
1 	2.93897514388925 	5.55111512312578e-17 	0.112413855996134 	0.0096897676910129 	6.78079060507831 	0.00605632691269057 	0
1 	2.94631258682425 	5.55111512312578e-17 	0.11244603406208 	0.00970278724665044 	7.58216209399168 	0.00683729128152006 	0
1 	2.95339073641193 	5.55111512312578e-17 	0.112474924824065 	0.00969860039756323 	8.53539875677849 	0.00775771404660979 	0
1 	2.96021875565916 	5.55111512312578e-17 	0.112500616699672 	0.00967337040574586 	9.68468810993244 	0.0088614103574406 	0
1 	2.96680548376697 	5.55111512312578e-17 	0.112523353694191 	0.00962133946351592 	11.0907936390436 	0.0102096690870026 	0
1 	2.97315944757337 	5.55111512312578e-17 	0.112543595823206 	0.00953282440018444 	12.8395832161169 	0.0118627988168333 	0
1 	2.97928887259171 	5.55111512312578e-17 	0.112561322093772 	0.00939188287871858 	15.0498141697516 	0.0138859956001736 	0
1 	2.98520169365903 	5.89805981832114e-17 	0.112575971225209 	0.00917343037614946 	17.8784480090664 	0.0163199019404226 	0
1 	2.99090556520807 	6.24500451351651e-17 	0.11258723991801 	0.00883990780478352 	21.5336060777736 	0.0191251902310546 	0
1 	2.99640787117633 	6.24500451351651e-17 	0.112595243757973 	0.00833868256197044 	26.3068291725012 	0.0221251849946486 	0
1 	3.00171573456492 	6.24500451351651e-17 	0.112600316649518 	0.00760204715404275 	32.6435637089234 	0.0248843395835552 	0
1 	3.00683602665963 	6.24500451351651e-17 	0.112602908529525 	0.00655578850558594 	41.3264596063243 	0.026549105101543 	0
1 	3.01177537592613 	6.59194920871187e-17 	0.11260357884288 	0.00514480893057019 	54.0397606723592 	0.0253289551442689 	0
1 	3.01654017659085 	6.93889390390723e-17 	0.112603059860126 	0.0034331777775078 	75.3900783588039 	0.0190889849203124 	0
1 	3.02113659691864 	6.93889390390723e-17 	0.112602103090948 	0.00177279509687177 	121.648338523551 	0.00974969391991031 	0
1 	3.02557058719784 	6.93889390390723e-17 	0.112601063544019 	0.000637874552477577 	268.960465100126 	0.00288656787903116 	0
1 	3.02984788744324 	6.93889390390723e-17 	0.112599915207933 	0.000141046111066952 	1135.40268619016 	0.00040991408801231 	0
