7 	0.00391112967796255 	2.42861286636753e-17 	0.263985812381789 	2.43838005530018e-05 	789.722724917983 	1.11988012871464e-08 	4.49102655645226e-38
7 	0.0118766651674914 	2.42861286636753e-17 	0.263985298769363 	0.000234931496604422 	280.46879053257 	9.50640955878542e-07 	0
7 	0.0201340015485761 	1.04083408558608e-17 	0.263980712993055 	0.00104504062514032 	65.2977573356521 	2.02116176391989e-05 	0
7 	0.028693828342395 	6.93889390390723e-18 	0.263970928066852 	0.00271064833529392 	26.3344487573699 	0.000109058452770806 	0
7 	0.0375672266585909 	1.04083408558608e-17 	0.263950697507228 	0.004788117164759 	14.124064015488 	0.000257347859341208 	0
7 	0.0467656835403032 	1.04083408558608e-17 	0.263917092768807 	0.0067454801584046 	9.17491201643821 	0.00037670865288563 	0
7 	0.0563011068347007 	1.04083408558608e-17 	0.26387145550906 	0.00844336842610146 	6.74965461673941 	0.000457618875236826 	0
7 	0.0661858406082648 	1.04083408558608e-17 	0.263816736051329 	0.00992841760448865 	5.3640041721351 	0.000525140673405219 	0
7 	0.0764326811267815 	2.08166817117217e-17 	0.263755130599119 	0.011261531946553 	4.4799792659296 	0.000592157114026315 	0
7 	0.0870548934207257 	2.77555756156289e-17 	0.263687955246293 	0.0124867139197553 	3.87117053791778 	0.000662796143981826 	0
7 	0.0980662284574838 	2.42861286636753e-17 	0.263616142647411 	0.0136338615176083 	3.42868119009738 	0.000738532930633364 	0
7 	0.109480940942647 	2.08166817117217e-17 	0.263540474144297 	0.014723700365535 	3.09428586434209 	0.000820118449145606 	0
7 	0.121313807773416 	2.42861286636753e-17 	0.263461634429601 	0.0157711107770329 	2.83419526106375 	0.000908118919359728 	0
7 	0.13358014716801 	3.12250225675825e-17 	0.263380236329478 	0.0167871593785003 	2.62750625727606 	0.00100307929853475 	0
7 	0.146295838495838 	3.29597460435593e-17 	0.263296842901008 	0.0177803422172332 	2.46061446530408 	0.00110557722318666 	0
7 	0.159477342834115 	3.46944695195361e-17 	0.263211982198696 	0.0187573641404804 	2.32429575461275 	0.00121624262689944 	0
7 	0.173141724277517 	4.16333634234434e-17 	0.263126154865571 	0.0197236408524194 	2.21208289812091 	0.00133576607197546 	0
7 	0.18730667202848 	4.68375338513738e-17 	0.263039837148633 	0.0206836298721536 	2.11931417727486 	0.0014649030064294 	0
7 	0.201990523296728 	5.03069808033274e-17 	0.262953480956873 	0.0216410520673416 	2.04255070319681 	0.00160447617431069 	0
7 	0.217212287037676 	5.3776427755281e-17 	0.262867511677694 	0.0225990404560633 	1.97920586471297 	0.00175537673470938 	0
7 	0.232991668560441 	5.89805981832114e-17 	0.262782324126635 	0.0235602386035886 	1.92730183978725 	0.00191856397882393 	0
7 	0.249349095037321 	6.07153216591882e-17 	0.262698276862896 	0.0245268624266278 	1.88530489497817 	0.00209506319587253 	0
7 	0.266305741947753 	5.72458747072346e-17 	0.262615685003228 	0.0255007340109282 	1.85201100783051 	0.00228596100837782 	0
7 	0.283883560490999 	5.55111512312578e-17 	0.262534811590352 	0.0264832927646624 	1.82646444991357 	0.00249239729022353 	0
7 	0.30210530600303 	5.3776427755281e-17 	0.262455857514841 	0.0274755871010601 	1.80789841264529 	0.0027155525618928 	0
7 	0.320994567414413 	5.03069808033274e-17 	0.262378949942122 	0.0284782484351495 	1.79569061590657 	0.00295662951394183 	0
7 	0.340575797787321 	5.03069808033274e-17 	0.262304129153257 	0.0294914483458667 	1.78932921319857 	0.00321682704089117 	0
7 	0.360874345971201 	5.72458747072346e-17 	0.262231333673773 	0.0305148391619254 	1.78838580444088 	0.00349730487982459 	0
7 	0.38191648941809 	5.89805981832114e-17 	0.262160383534149 	0.0315474779131659 	1.79249333454234 	0.003799136660787 	0
7 	0.403729468200046 	5.8113236445223e-17 	0.262090961359864 	0.0325877335317046 	1.80132729600323 	0.00412324894732698 	0
7 	0.426341520272733 	6.76542155630955e-17 	0.262022590490082 	0.0336331774073374 	1.81458909054402 	0.00447034377650032 	0
7 	0.449781918030829 	7.54604712049911e-17 	0.261954609410105 	0.0346804579450808 	1.83199071598839 	0.00484080218702877 	0
7 	0.474081006202548 	7.63278329429795e-17 	0.261886147394778 	0.0357251607143721 	1.85324018233047 	0.00523456531578482 	0
7 	0.499270241132364 	7.97972798949331e-17 	0.261816116032847 	0.036761657258997 	1.87802726451987 	0.00565098814407686 	0
7 	0.525382231502763 	8.32667268468867e-17 	0.261743179550135 	0.0377829478749956 	1.90600940399086 	0.00608867419548058 	0
7.00000000000001 	0.552450780547767 	7.67615138119737e-17 	0.261665431075116 	0.0387805063973714 	1.9367977860214 	0.00654536657703067 	0
7.00000000000001 	0.58051092981285 	6.57026516526216e-17 	0.261579672938323 	0.0397441354965666 	1.9699437466535 	0.00701815539523407 	0
7.00000000000001 	0.609599004517911 	5.63785129692462e-17 	0.261483558798 	0.0406618416709791 	2.00492585426349 	0.00750559803099284 	0
7.00000000000001 	0.639752660582033 	4.96564594998361e-17 	0.26138953762829 	0.0415197225093436 	2.0411377526043 	0.00813908875261769 	0
7.00000000000001 	0.671010933370887 	5.50774703622636e-17 	0.261310067859484 	0.0423074590969337 	2.07817943201707 	0.00878587826286934 	0
7.00000000000001 	0.703414288229901 	6.93889390390723e-17 	0.261217531907127 	0.0430074101737886 	2.11456720874491 	0.00951939913670929 	0
7.00000000000001 	0.737004672868607 	7.28583859910259e-17 	0.261074442504442 	0.0435703315039073 	2.14667992008368 	0.0101705949767031 	0
7.00000000000001 	0.771825571663977 	6.59194920871187e-17 	0.260869289390206 	0.0439390863974412 	2.17030336061072 	0.0106476284891163 	0
7.00000000000001 	0.807922061953054 	5.89805981832114e-17 	0.260602515271458 	0.0440667562344347 	2.18190319257179 	0.0109275625615032 	0
7.00000000000001 	0.845340872387743 	5.89805981832114e-17 	0.260274607332733 	0.0439221925899355 	2.1791541283585 	0.0110239069483344 	0
7.00000000000001 	0.88413044342731 	5.89805981832114e-17 	0.259882360067571 	0.0434881448206225 	2.16086244231715 	0.0109552188727857 	0
7.00000000000001 	0.924340990046898 	5.89805981832114e-17 	0.259418810838887 	0.0427584488323772 	2.12670477127124 	0.0107307881094314 	0
7.00000000000001 	0.966024566743243 	6.24500451351651e-17 	0.258874415483031 	0.0417376012133934 	2.07702710064691 	0.0103526328408519 	0
7.00000000000001 	1.00923513492173 	5.55111512312578e-17 	0.258238557413204 	0.040442464563165 	2.01274787700804 	0.0098249189041618 	0
7.00000000000001 	1.05402863275206 	6.24500451351651e-17 	0.257500921719631 	0.0389041105211491 	1.9353277583832 	0.00916240153481974 	0
7.00000000000001 	1.10046304758287 	7.63278329429795e-17 	0.256652522052147 	0.0371678043980361 	1.84675398445397 	0.00839326613368627 	0
7.00000000000001 	1.14859849100923 	7.97972798949331e-17 	0.255686265536993 	0.0352912019343592 	1.74969598864478 	0.00755603758138642 	0
7.00000000000001 	1.19849727668995 	8.67361737988404e-17 	0.254597113889428 	0.0333458847497955 	1.64863050290761 	0.00669494798741521 	0
7.00000000000001 	1.25022400101563 	8.67361737988404e-17 	0.253383172393566 	0.0314091898908069 	1.54890613210912 	0.00585466502904918 	0
7.00000000000001 	1.30384562673186 	8.67361737988404e-17 	0.252046851644347 	0.0295365584075119 	1.45283617837544 	0.00507142450207092 	0
7.00000000000001 	1.35943156962566 	9.36750677027476e-17 	0.250593845158996 	0.0277576299255003 	1.36063626284445 	0.00436751228019033 	0
7.00000000000001 	1.41705378838763 	9.71445146547012e-17 	0.249031628624557 	0.0260877066881723 	1.27264237626643 	0.00375076659655591 	0
7.00000000000001 	1.47678687776592 	9.71445146547012e-17 	0.247368810013182 	0.0245304293699053 	1.18928781642496 	0.00321754038133668 	0
7.00000000000001 	1.50779776549243 	9.85539774789324e-17 	0.246495365119432 	0.0237658160295849 	1.14805188670245 	0.0029665163468182 	0
7.00000000000001 	1.53931529845551 	9.16150835750251e-17 	0.24559893373151 	0.0230604673858147 	1.10925900197135 	0.00275213901041962 	0
7.00000000000001 	1.60289781058851 	9.0205620750794e-17 	0.243783836707294 	0.0216986569573607 	1.0333758753043 	0.00235521811340138 	0
7.00000000000001 	1.66943891073267 	9.0205620750794e-17 	0.241881797676786 	0.0203854762635344 	0.958747453850126 	0.00200497867907101 	0
7.00000000000001 	1.73841760623657 	9.0205620750794e-17 	0.239925139665736 	0.0191225747673303 	0.887844815022291 	0.00169874963750581 	0
7.00000000000001 	1.8099231933566 	9.54097911787244e-17 	0.237938905086939 	0.0179041948588037 	0.824293945457088 	0.00143093790270153 	0
7.00000000000001 	1.88404823953249 	9.36750677027476e-17 	0.235959658144468 	0.0167175436498328 	0.770347863216148 	0.00118485845724806 	0
7.00000000000001 	1.96088870322038 	9.54097911787244e-17 	0.234038609870679 	0.0155729482620852 	0.726536313988026 	0.000960561404123173 	0
7.00000000000001 	2.02025965173185 	9.36750677027476e-17 	0.232581460358888 	0.0146901338046702 	0.698943839900369 	0.000798400321278734 	0
7.00000000000001 	2.06006301192217 	8.84708972748172e-17 	0.23157341529408 	0.0140850157245835 	0.682773273591066 	0.000692154009142726 	0
7.00000000000001 	2.09845978584128 	8.67361737988404e-17 	0.230666304544673 	0.0135346450337225 	0.670275712989344 	0.000599967588988496 	0
7.00000000000001 	2.13549967996946 	8.67361737988404e-17 	0.229812559757507 	0.0130123950062373 	0.660478891045938 	0.00051627370065184 	0
7.00000000000001 	2.17123064424048 	8.67361737988404e-17 	0.229009005939958 	0.0125168590182239 	0.653234209988758 	0.000440389522487238 	0
7.00000000000001 	2.20569893411516 	8.67361737988404e-17 	0.228253476798886 	0.0120468004292681 	0.64844468235373 	0.000371768072659429 	0
7.00000000000001 	2.23894917046123 	8.67361737988404e-17 	0.227543658440309 	0.0116011268261286 	0.646056268958382 	0.00030992046684774 	0
7.00000000000001 	2.27102439731726 	8.67361737988404e-17 	0.226877213882702 	0.0111788714052727 	0.646052082477426 	0.00025441702841591 	0
7.00000000000001 	2.30196613761522 	8.67361737988404e-17 	0.226251869288647 	0.0107792265722877 	0.648448863824903 	0.0002048915712259 	0
7.00000000000001 	2.33181444693392 	8.84708972748172e-17 	0.225665425729412 	0.010401474636284 	0.653295226124998 	0.000161042619256297 	0
7.00000000000001 	2.3606079653529 	9.0205620750794e-17 	0.22511576294699 	0.0100449819744208 	0.66067131172749 	0.000122635630093689 	0
7.00000000000001 	2.38838396747391 	8.84708972748172e-17 	0.224600845029178 	0.00970922714166659 	0.670689600008564 	8.95055426814574e-05 	0
7.00000000000001 	2.41517841067461 	8.84708972748172e-17 	0.224118724655807 	0.00939379886141136 	0.68349667133303 	6.15598262646055e-05 	0
7.00000000000001 	2.44102598165722 	9.0205620750794e-17 	0.223667545044398 	0.00909839526970348 	0.699275802576924 	3.8782566372433e-05 	0
7.00000000000001 	2.46596014135208 	9.0205620750794e-17 	0.223245540282617 	0.00882282452847336 	0.718250301578027 	2.12393862134666e-05 	0
7.00000000000001 	2.49001316823444 	9.0205620750794e-17 	0.222851034450807 	0.0085670054389522 	0.740687501243692 	9.08318907405476e-06 	0
7.00000000000001 	2.51321620011054 	9.19403442267708e-17 	0.222482439765222 	0.00833096779780339 	0.766903325983863 	2.56062004587874e-06 	0
7.00000000000001 	2.53559927442701 	9.36750677027476e-17 	0.222138253933083 	0.0081148548882574 	0.797267302633826 	2.01904730377657e-06 	0
7.00000000000001 	2.55719136715571 	9.36750677027476e-17 	0.221817057012634 	0.00791892075343359 	0.832207828390468 	7.91371695142135e-06 	0
7.00000000000001 	2.57802043030466 	9.36750677027476e-17 	0.221517507852239 	0.00774350544124765 	0.8722175043069 	2.08146027655946e-05 	0
7.00000000000001 	2.59811342810315 	9.36750677027476e-17 	0.221238339953069 	0.00758902891199335 	0.917858220746269 	4.14123547915449e-05 	0
7.00000000000001 	2.61749637190832 	9.36750677027476e-17 	0.220978357365615 	0.00745597734098924 	0.969765508111501 	7.0522541906548e-05 	0
7.00000000000001 	2.63619435387806 	9.36750677027476e-17 	0.220736430492326 	0.0073448786150602 	1.02865163257657 	0.000109087213554439 	0
7.00000000000001 	2.65423157945406 	9.36750677027476e-17 	0.220511491899485 	0.00725627069298667 	1.09530682767279 	0.000158172718098757 	0
7.00000000000001 	2.67163139869691 	9.36750677027476e-17 	0.220302532252717 	0.00719066278491812 	1.17059800427718 	0.000218962691579786 	0
7.00000000000001 	2.68841633651388 	9.36750677027476e-17 	0.220108596479183 	0.00714848965945824 	1.25546432396006 	0.000292745224459472 	0
7.00000000000001 	2.70460812181851 	9.71445146547012e-17 	0.219928780259196 	0.00713005972122342 	1.35090919094075 	0.000380893497476963 	0
7.00000000000001 	2.72022771565972 	1.02348685082632e-16 	0.219762226818384 	0.00713549876394725 	1.4579885478533 	0.00048483954491222 	0
7.00000000000001 	2.73529533835695 	1.04083408558608e-16 	0.21960812402669 	0.0071646946710504 	1.57779581407566 	0.000606041308088073 	0
7.00000000000001 	2.74983049567626 	1.04083408558608e-16 	0.219465702017411 	0.00721724534222938 	1.71144440411357 	0.000745943730698172 	0
7.00000000000001 	2.76385200408157 	1.05818132034585e-16 	0.219334231239322 	0.00729241329807323 	1.86004950742569 	0.000905935547073005 	0
7.00000000000001 	2.77737801509344 	1.04083408558608e-16 	0.219213020794412 	0.00738909141600212 	2.02471154907302 	0.00108730411515902 	0
7.00000000000001 	2.79042603878708 	1.04083408558608e-16 	0.219101416891032 	0.0075057841014159 	2.20650436373332 	0.00129119117086436 	0
7.00000000000001 	2.80301296646003 	1.07552855510562e-16 	0.218998801530279 	0.00764060719228187 	2.40647150579578 	0.0015185530171276 	0
7.00000000000001 	2.81515509249873 	1.07552855510562e-16 	0.218904592382164 	0.0077913070723861 	2.62563428114437 	0.00177012933731947 	0
7.00000000000001 	2.82686813547238 	1.07552855510562e-16 	0.21881824344245 	0.00795529821924116 	2.86501502941937 	0.00204642523150171 	0
7.00000000000001 	2.83816725848143 	1.07552855510562e-16 	0.218739233573476 	0.00812971780421301 	3.12567890431773 	0.00234945207617044 	0
7.00000000000001 	2.84906708878692 	1.07552855510562e-16 	0.218667035472856 	0.00831151859218387 	3.40894329450595 	0.00269304122300397 	0
7.00000000000001 	2.85958173674617 	1.05818132034585e-16 	0.21860116389785 	0.00849772352126139 	3.71756056348019 	0.00307813769460849 	0
7.00000000000001 	2.86972481407933 	1.05818132034585e-16 	0.218541214778204 	0.00868514084658001 	4.05499979920516 	0.00350747482997903 	0
7.00000000000001 	2.87950945149043 	1.07552855510562e-16 	0.218486826637389 	0.00886833054750556 	4.42223437210235 	0.00397441808867083 	0
7.00000000000001 	2.88894831566567 	1.07552855510562e-16 	0.218437641832734 	0.00903971224584458 	4.81752847042784 	0.00445818252157294 	0
7.00000000000001 	2.89805362567107 	1.09287578986539e-16 	0.218393299414081 	0.00919162926852824 	5.23877982103772 	0.00494550476592909 	0
7.00000000000001 	2.90683716877067 	1.11022302462516e-16 	0.218353467053015 	0.00931753215948336 	5.68526415578709 	0.00543066388408743 	0
7.00000000000001 	2.9153103156857 	1.11022302462516e-16 	0.218317855394821 	0.00941226813285546 	6.1585618734469 	0.00591263128494764 	0
7.00000000000001 	2.92348403531449 	1.11022302462516e-16 	0.218286215771746 	0.00947189901369032 	6.66301875829625 	0.0063931759952521 	0
7.00000000000001 	2.9313689089323 	1.11022302462516e-16 	0.218258334414596 	0.00949335062971654 	7.20609165774941 	0.00687602159292127 	0
7.00000000000001 	2.93897514388925 	1.11022302462516e-16 	0.21823402776169 	0.00947403410160044 	7.79883586747774 	0.0073667679155394 	0
7.00000000000001 	2.94631258682425 	1.14491749414469e-16 	0.218213138649859 	0.00941146547310468 	8.45672139616558 	0.00787320826850638 	0
7.00000000000001 	2.95339073641193 	1.14491749414469e-16 	0.218195531729182 	0.00930285247201285 	9.20098461313563 	0.00840572298163331 	0
7.00000000000001 	2.96021875565916 	1.14491749414469e-16 	0.218181086122688 	0.0091445964880418 	10.060735911183 	0.00897745642976241 	0
7.00000000000001 	2.96680548376697 	1.17961196366423e-16 	0.218169683683861 	0.00893166533528028 	11.0759584521041 	0.0096039157167558 	0
7.00000000000001 	2.97315944757337 	1.17961196366423e-16 	0.218161191692243 	0.0086567501523366 	12.3025904039977 	0.0103013218048356 	0
7.00000000000001 	2.97928887259171 	1.17961196366423e-16 	0.218155439808342 	0.0083091303572945 	13.8206578576922 	0.0110824344798158 	0
7.00000000000001 	2.98520169365903 	1.17961196366423e-16 	0.218152196016762 	0.00787325354834185 	15.7472658431318 	0.0119476536947432 	0
7.00000000000001 	2.99090556520807 	1.196959198424e-16 	0.218151156831933 	0.00732708455859535 	18.2589746733885 	0.0128684579086883 	0
7.00000000000001 	2.99640787117634 	1.21430643318376e-16 	0.218151961017723 	0.00664038615436996 	21.633128724655 	0.0137519463898284 	0
7.00000000000001 	3.00171573456493 	1.2490009027033e-16 	0.218154161583751 	0.00577363747910979 	26.3313135990312 	0.0143077519818068 	0
7.00000000000001 	3.00683602665963 	1.28369537222284e-16 	0.218157139507843 	0.00468794717636344 	33.1844161922734 	0.0138928613900508 	0
7.00000000000001 	3.01177537592613 	1.33573707650214e-16 	0.218160173653778 	0.00338919035866531 	43.9069716856884 	0.0115404999265263 	0
7.00000000000001 	3.01654017659086 	1.38777878078145e-16 	0.21816267668538 	0.0020233402778357 	62.9117093610957 	0.00705646200598094 	0
7.00000000000001 	3.02113659691865 	1.38777878078145e-16 	0.218164478878923 	0.000909643683998951 	104.521752930206 	0.00265017709994589 	0
7.00000000000001 	3.02557058719785 	1.35308431126191e-16 	0.21816589902899 	0.00027989033847688 	228.063277422697 	0.000531797774350701 	0
7.00000000000001 	3.02984788744325 	1.31838984174237e-16 	0.218167364962782 	5.0268879457375e-05 	840.602297749792 	5.04115882015488e-05 	0
