9.99999999996687e-07 	1.00593833258374 	1.38777878078145e-17 	0.117878769541151 	-9.26445168084439e-06 	-3.27930020891284e-24
9.99999999996688e-07 	1.01006700077429 	1.38777878078145e-17 	0.216147321675631 	0.000402811604497838 	-7.93494131222158e-25
9.99999999996688e-07 	1.0143469141712 	1.38777878078145e-17 	0.324778921408995 	0.00144159234439797 	-1.58711856343178e-24
9.99999999996688e-07 	1.01878361332929 	1.38777878078145e-17 	0.431015684110442 	0.00314016770320698 	-1.34134665720097e-24
9.99999999996688e-07 	1.02338284177015 	1.38777878078145e-17 	0.52284912041428 	0.00531180383094672 	-1.09582553673056e-24
9.99999999996688e-07 	1.02815055341735 	1.04083408558608e-17 	0.594927393048808 	0.00769134281268046 	8.3713794372773e-25
9.99999999996688e-07 	1.03309292030413 	3.46944695195361e-18 	0.647992858160426 	0.0100558366331024 	3.09204344536805e-24
9.99999999996688e-07 	1.03821634056339 	3.46944695195361e-18 	0.685724167405502 	0.0122671210221202 	2.02918183521605e-24
9.99999999996688e-07 	1.04352744671036 	3.46944695195361e-18 	0.712381885837415 	0.0142730356121631 	3.22074273649435e-25
9.99999999996688e-07 	1.04903311422874 	0 	0.731565674613453 	0.0160785215585605 	4.35264455831067e-25
9.99999999996688e-07 	1.05474047047132 	-3.46944695195361e-18 	0.745859051934305 	0.0177119681698354 	8.7044196025574e-25
9.99999999996688e-07 	1.06065690388671 	-3.46944695195361e-18 	0.756964619030582 	0.0192055012932879 	4.35256055292352e-25
9.99999999996688e-07 	1.06679007358401 	0 	0.76596683556896 	0.0205874983924411 	0
9.99999999996688e-07 	1.07314791924792 	0 	0.773554781711127 	0.0218808743417508 	-3.11679113088852e-25
9.99999999996688e-07 	1.07973867141705 	-3.46944695195361e-18 	0.780172872420187 	0.0231034096431875 	-2.25092880997615e-18
9.99999999996687e-07 	1.08657086213875 	-1.04083408558608e-17 	0.786114409322579 	0.0242686422803121 	-2.4649912246896e-18
9.99999999996687e-07 	1.09365333601424 	-1.38777878078145e-17 	0.791578091820661 	0.0253867894274467 	1.82273141776651e-18
9.99999999996687e-07 	1.10099526164836 	-1.38777878078145e-17 	0.796702181172927 	0.0264655244168938 	2.03679449347556e-18
9.99999999996687e-07 	1.10860614351883 	-2.08166817117217e-17 	0.801585443985471 	0.0275105783737877 	1.53778096647933e-25
9.99999999996687e-07 	1.11649583428022 	-2.77555756156289e-17 	0.806300242524113 	0.0285261886614202 	-5.31083660144184e-25
9.99999999996687e-07 	1.12467454751866 	-2.42861286636753e-17 	0.810900891290921 	0.0295154286303123 	-2.63631766478662e-25
9.99999999996687e-07 	1.13315287097387 	-2.42861286636753e-17 	0.815429106791248 	0.0304804499843706 	-4.27213523953025e-25
9.99999999996687e-07 	1.1419417802455 	-2.77555756156289e-17 	0.819917637947837 	0.0314226616162981 	-1.64268201621879e-24
9.99999999996687e-07 	1.15105265300151 	-2.42861286636753e-17 	0.824392737002944 	0.0323428618042214 	-1.37980011593853e-24
9.99999999996687e-07 	1.1604972837072 	-2.08166817117217e-17 	0.828875879088377 	0.0332413356752698 	-3.97300348096255e-25
9.99999999996687e-07 	1.17028789889366 	-1.73472347597681e-17 	0.833384987216028 	0.0341179267304741 	-7.3927295054404e-25
9.99999999996687e-07 	1.1804371729856 	-1.38777878078145e-17 	0.837935326211585 	0.0349720896063694 	-2.39693428619156e-24
9.99999999996687e-07 	1.19095824470904 	-1.73472347597681e-17 	0.842540170703501 	0.0358029304918792 	-2.95110911580075e-24
9.99999999996688e-07 	1.20186473410002 	-2.42861286636753e-17 	0.847211315133451 	0.0366092410560786 	-4.39706454462628e-25
9.99999999996687e-07 	1.21317076013637 	-2.42861286636753e-17 	0.851959469658268 	0.0373895310000788 	6.90494041426084e-25
9.99999999996687e-07 	1.22489095901541 	-1.73472347597681e-17 	0.856794569697449 	0.0381420633170494 	0
9.99999999996687e-07 	1.23704050310127 	-1.04083408558608e-17 	0.861726015639582 	0.0388648951172592 	0
9.99999999996687e-07 	1.24963512056618 	-1.04083408558608e-17 	0.866762851072546 	0.0395559256313623 	-1.22408658186213e-24
9.99999999996687e-07 	1.26269111575138 	-6.93889390390723e-18 	0.871913882081194 	0.0402129517527938 	-4.12901745529401e-24
9.99999999996687e-07 	1.27622539027388 	0 	0.877187736577528 	0.0408337298706513 	-4.88647442716588e-24
9.99999999996687e-07 	1.29025546490642 	3.46944695195361e-18 	0.882592861352715 	0.0414160410406879 	-2.28193577395419e-24
9.99999999996687e-07 	1.30479950225895 	1.04083408558608e-17 	0.888137455298757 	0.0419577557930929 	-3.00375391844975e-25
9.99999999996687e-07 	1.31987633029101 	1.38777878078145e-17 	0.893829339149837 	0.0424568949598156 	-3.7736358892912e-24
9.99999999996687e-07 	1.33550546668544 	1.38777878078145e-17 	0.899675764106962 	0.0429116829366771 	-3.46716267905334e-24
9.99999999996687e-07 	1.35170714411495 	1.38777878078145e-17 	0.905683163511312 	0.0433205898247938 	1.34383953122193e-23
9.99999999996687e-07 	1.3685023364343 	1.38777878078145e-17 	0.911856853555677 	0.0436823592014298 	2.21848311553603e-23
9.99999999996687e-07 	1.38591278583198 	1.73472347597681e-17 	0.918200691146846 	0.0439960188738484 	9.05204098439814e-24
9.99999999996687e-07 	1.40396103097652 	1.73472347597681e-17 	0.924716699747162 	0.0442608727704028 	0
9.99999999996687e-07 	1.42267043619387 	1.73472347597681e-17 	0.931404677492558 	0.0444764729253406 	0
9.99999999996687e-07 	1.44206522171366 	2.42861286636753e-17 	0.938261805853491 	0.0446425714025041 	6.14418077609068e-24
9.99999999996687e-07 	1.46217049502345 	2.77555756156289e-17 	0.945282281076906 	0.0447590534282316 	1.22904910254461e-23
9.99999999996687e-07 	1.48301228337162 	2.77555756156289e-17 	0.952456993812496 	0.0448258550075498 	-7.96805535658875e-24
9.99999999996687e-07 	1.50461756746087 	2.77555756156289e-17 	0.959773283356506 	0.0448428702118569 	-4.32019818137336e-23
9.99999999996687e-07 	1.52701431637603 	2.77555756156289e-17 	0.967214790882712 	0.0448098545804672 	-1.30142632216729e-23
9.99999999996687e-07 	1.55023152379143 	2.77555756156289e-17 	0.97476143105958 	0.0447263314399584 	4.71353435161618e-23
9.99999999996687e-07 	1.57429924550461 	2.77555756156289e-17 	0.98238949453672 	0.0445915074293981 	4.87252926463013e-23
9.99999999996687e-07 	1.59924863834497 	3.12250225675825e-17 	0.990071886037825 	0.044404202441484 	3.53397664524574e-23
9.99999999996687e-07 	1.62511200050781 	3.12250225675825e-17 	0.997778495023435 	0.0441627980847842 	1.76724482670013e-23
9.99999999996687e-07 	1.65192281336592 	2.77555756156289e-17 	1.00547668842218 	0.0438652081013751 	0
9.99999999996687e-07 	1.67971578481282 	2.42861286636753e-17 	1.01313190781238 	0.043508873961453 	2.02214071263764e-23
9.99999999996687e-07 	1.70852689419381 	2.08166817117217e-17 	1.02070834655141 	0.0430907885886086 	-4.46549424842883e-24
9.99999999996687e-07 	1.73839343888296 	1.73472347597681e-17 	1.02816967624246 	0.0426075502955682 	-6.96320030262313e-23
9.99999999996687e-07 	1.76935408256639 	1.38777878078145e-17 	1.03547978923585 	0.0420554467114931 	-4.49412610995768e-23
9.99999999996687e-07 	1.80144890529425 	1.38777878078145e-17 	1.04260352927571 	0.0414305643631635 	-4.78199120767219e-23
9.99999999996687e-07 	1.83471945536633 	1.38777878078145e-17 	1.04950739692556 	0.0407289169811606 	-9.56774677549491e-23
9.99999999996687e-07 	1.86920880311829 	1.38777878078145e-17 	1.05616023074222 	0.0399465898482448 	-4.78484152331805e-23
9.99999999996687e-07 	1.9049615966783 	1.73472347597681e-17 	1.06253387522622 	0.0390798908272087 	0
9.99999999996687e-07 	1.94202411976624 	2.08166817117217e-17 	1.06860389140455 	0.0381253464074432 	0
9.99999999996688e-07 	1.98044435161018 	2.08166817117217e-17 	1.07435025237305 	0.0370799663744699 	0
9.99999999996688e-07 	2.02025965173184 	2.08166817117217e-17 	1.07971437392885 	0.0359522812458654 	0
9.99999999996688e-07 	2.06006301192217 	2.08166817117217e-17 	1.08457178955327 	0.0347762824568137 	0
9.99999999996688e-07 	2.09845978584128 	1.73472347597681e-17 	1.08884657365661 	0.0335906818985351 	0
9.99999999996688e-07 	2.13549967996945 	1.38777878078145e-17 	1.09257633702846 	0.0324137015029917 	0
9.99999999996688e-07 	2.17123064424048 	1.04083408558608e-17 	1.09583170032197 	0.0312520294294099 	0
9.99999999996688e-07 	2.20569893411515 	6.93889390390723e-18 	1.09867007403974 	0.0301110440869946 	0
9.99999999996688e-07 	2.23894917046122 	6.93889390390723e-18 	1.1011374199193 	0.0289948789550041 	0
9.99999999996688e-07 	2.27102439731725 	0 	1.10327003977677 	0.0279065297713546 	0
9.99999999996688e-07 	2.30196613761521 	-6.93889390390723e-18 	1.1050962126332 	0.0268480321170006 	0
9.99999999996688e-07 	2.33181444693391 	-1.04083408558608e-17 	1.10663759875188 	0.0258206356167855 	0
9.99999999996688e-07 	2.3606079653529 	-6.93889390390723e-18 	1.10791039298545 	0.0248249600664981 	0
9.99999999996688e-07 	2.3883839674739 	0 	1.10892624199751 	0.0238611315110768 	0
9.99999999996688e-07 	2.41517841067461 	0 	1.10969295430822 	0.0229288972427932 	0
9.99999999996688e-07 	2.44102598165722 	0 	1.11021503691198 	0.0220277202567146 	0
9.99999999996688e-07 	2.46596014135207 	0 	1.11049409192742 	0.0211568550375168 	0
9.99999999996688e-07 	2.49001316823443 	0 	1.11052910422632 	0.0203154071378467 	0
9.99999999996688e-07 	2.51321620011054 	0 	1.1103166479526 	0.0195023791252934 	0
9.99999999996688e-07 	2.535599274427 	0 	1.10985103718966 	0.0187167053560295 	0
9.99999999996688e-07 	2.55719136715571 	0 	1.10912444415197 	0.017957277796829 	0
9.99999999996688e-07 	2.57802043030465 	0 	1.10812700720818 	0.0172229648333934 	0
9.99999999996688e-07 	2.59811342810315 	3.46944695195361e-18 	1.10684695056762 	0.016512624715308 	0
9.99999999996688e-07 	2.61749637190832 	3.46944695195361e-18 	1.10527073712652 	0.0158251150204116 	0
9.99999999996688e-07 	2.63619435387806 	0 	1.10338327510251 	0.0151592992837814 	0
9.99999999996688e-07 	2.65423157945406 	0 	1.10116819683819 	0.0145140517294644 	0
9.99999999996688e-07 	2.67163139869691 	3.46944695195361e-18 	1.09860822360856 	0.0138882608614037 	0
9.99999999996688e-07 	2.68841633651388 	6.93889390390723e-18 	1.09568562264636 	0.0132808325060166 	0
9.99999999996688e-07 	2.7046081218185 	6.93889390390723e-18 	1.09238275157492 	0.012690692745343 	0
9.99999999996688e-07 	2.72022771565972 	6.93889390390723e-18 	1.08868267148104 	0.0121167910328637 	0
9.99999999996688e-07 	2.73529533835694 	6.93889390390723e-18 	1.08456979449859 	0.0115581036464229 	0
9.99999999996688e-07 	2.74983049567625 	3.46944695195361e-18 	1.080030517568 	0.0110136375147199 	0
9.99999999996688e-07 	2.76385200408156 	0 	1.07505378412867 	0.0104824343746033 	0
9.99999999996688e-07 	2.77737801509343 	0 	1.06963151272075 	0.00996357520179993 	0
9.99999999996688e-07 	2.79042603878708 	0 	1.06375883724503 	0.00945618493489016 	0
9.99999999996688e-07 	2.80301296646003 	-3.46944695195361e-18 	1.05743411712496 	0.0089594376975003 	0
9.99999999996688e-07 	2.81515509249872 	-3.46944695195361e-18 	1.05065869361521 	0.00847256300048802 	0
9.99999999996688e-07 	2.82686813547237 	-3.46944695195361e-18 	1.04343638623574 	0.00799485369846123 	0
9.99999999996688e-07 	2.83816725848142 	-3.46944695195361e-18 	1.0357727360865 	0.00752567663398048 	0
9.99999999996688e-07 	2.84906708878691 	-3.46944695195361e-18 	1.02767400777588 	0.00706448673849351 	0
9.99999999996688e-07 	2.85958173674616 	-1.04083408558608e-17 	1.01914595887624 	0.00661084474372041 	0
9.99999999996688e-07 	2.86972481407933 	-1.04083408558608e-17 	1.01019237744485 	0.00616443765404361 	0
9.99999999996688e-07 	2.87950945149043 	-1.04083408558608e-17 	1.00081337652493 	0.00572510021927228 	0
9.99999999996688e-07 	2.88894831566566 	-1.38777878078145e-17 	0.991003420029616 	0.00529283531239468 	0
9.99999999996689e-07 	2.89805362567106 	-1.38777878078145e-17 	0.980749036682192 	0.00486783124318057 	0
9.99999999996689e-07 	2.90683716877067 	-1.38777878078145e-17 	0.970026157186046 	0.00445047446189037 	0
9.99999999996688e-07 	2.91531031568569 	-1.38777878078145e-17 	0.958796977699758 	0.00404135688572961 	0
9.99999999996688e-07 	2.92348403531448 	-1.73472347597681e-17 	0.947006198254012 	0.00364127820871926 	0
9.99999999996688e-07 	2.93136890893229 	-2.08166817117217e-17 	0.93457640178126 	0.00325124481601198 	0
9.99999999996688e-07 	2.93897514388925 	-2.42861286636753e-17 	0.921402224725615 	0.00287246821816955 	0
9.99999999996688e-07 	2.94631258682425 	-2.77555756156289e-17 	0.907342816313037 	0.00250636695270917 	0
9.99999999996688e-07 	2.95339073641193 	-2.08166817117217e-17 	0.892211881410186 	0.0021545695795436 	0
9.99999999996688e-07 	2.96021875565915 	-1.38777878078145e-17 	0.875764342791287 	0.00181888785480912 	0
9.99999999996688e-07 	2.96680548376697 	-1.38777878078145e-17 	0.857678338489487 	0.00150122843408161 	0
9.99999999996688e-07 	2.97315944757337 	-1.38777878078145e-17 	0.837528508926027 	0.00120399487289789 	0
9.99999999996688e-07 	2.97928887259171 	-2.08166817117217e-17 	0.814712534776799 	0.00093048194657529 	0
9.99999999996688e-07 	2.98520169365902 	-2.42861286636753e-17 	0.788342829120577 	0.00068455537913509 	0
9.99999999996688e-07 	2.99090556520806 	-2.08166817117217e-17 	0.757234909968109 	0.000470663409458738 	0
9.99999999996688e-07 	2.99640787117633 	-2.08166817117217e-17 	0.719966794754115 	0.000293153255073435 	0
9.99999999996688e-07 	3.00171573456492 	-2.08166817117217e-17 	0.674869989025711 	0.000154633937598645 	0
9.99999999996688e-07 	3.00683602665962 	-2.08166817117217e-17 	0.620005217145401 	5.50931613534735e-05 	0
9.99999999996688e-07 	3.01177537592612 	-2.42861286636753e-17 	0.553161503623282 	-8.14858265291647e-06 	0
9.99999999996688e-07 	3.01654017659085 	-2.77555756156289e-17 	0.472441566847109 	-3.98996416413657e-05 	0
9.99999999996688e-07 	3.02113659691864 	-2.77555756156289e-17 	0.378246505170939 	-4.65541573216325e-05 	0
9.99999999996688e-07 	3.02557058719784 	-2.42861286636753e-17 	0.274432700046968 	-3.63829026708787e-05 	0
9.99999999996688e-07 	3.02984788744324 	-2.08166817117217e-17 	0.165981504434106 	-1.94038644103062e-05 	0
