9.99999999996687e-07 	1.00593833258374 	1.38777878078145e-17 	-0.00596563970709506 	0.00023471946418943 	1305.87330213173 	0.000568897857363751 	0
9.99999999996688e-07 	1.01006700077429 	1.38777878078145e-17 	-0.00593648462281698 	0.00102211559562613 	297.45042765927 	0.0045693427388869 	0
9.99999999996688e-07 	1.0143469141712 	1.38777878078145e-17 	-0.00586893005295318 	0.00277248580226173 	133.15057525072 	0.0159304639245864 	0
9.99999999996688e-07 	1.01878361332929 	1.38777878078145e-17 	-0.00573251170329487 	0.00531786381073357 	83.3003261265324 	0.0311114447890818 	0
9.99999999996688e-07 	1.02338284177015 	1.38777878078145e-17 	-0.0055020653992234 	0.00802215803803227 	59.5265121684984 	0.0398345485696347 	0
9.99999999996688e-07 	1.02815055341735 	1.04083408558608e-17 	-0.00517009115778245 	0.0104534585339127 	44.076858036419 	0.037989741516621 	0
9.99999999996688e-07 	1.03309292030413 	3.46944695195361e-18 	-0.00474286402321771 	0.0125923902515496 	32.987391013335 	0.0300694806048131 	0
9.99999999996688e-07 	1.03821634056339 	3.46944695195361e-18 	-0.00423045457163487 	0.0145523752009681 	25.0368063302063 	0.0214187505426458 	0
9.99999999996688e-07 	1.04352744671036 	3.46944695195361e-18 	-0.00364241895204605 	0.0164004797018051 	19.4211971080563 	0.0145810448263604 	0
9.99999999996688e-07 	1.04903311422874 	0 	-0.00298710493557129 	0.0181495487181545 	15.4589943559704 	0.00992615736900206 	0
9.99999999996688e-07 	1.05474047047132 	-3.46944695195361e-18 	-0.00227102199694072 	0.0197928823395635 	12.6240184977459 	0.00696170158758047 	0
9.99999999996688e-07 	1.06065690388671 	-3.46944695195361e-18 	-0.00149849515451281 	0.0213250556667671 	10.5488786583428 	0.0051064095254434 	0
9.99999999996688e-07 	1.06679007358401 	0 	-0.000672012167567053 	0.0227467837003038 	8.99045488214637 	0.00393285685656309 	0
9.99999999996688e-07 	1.07314791924792 	0 	0.000207156914713532 	0.0240634041336382 	7.79061115951892 	0.00317201057516988 	0
9.99999999996688e-07 	1.07973867141705 	-3.46944695195361e-18 	0.00113846529308425 	0.0252825051881673 	6.84602305786552 	0.00266347531288689 	0
9.99999999996687e-07 	1.08657086213875 	-1.04083408558608e-17 	0.00212179075789827 	0.0264122691784398 	6.088068634846 	0.00231245901663174 	0
9.99999999996687e-07 	1.09365333601424 	-1.38777878078145e-17 	0.00315726339927934 	0.0274605734439082 	5.47013471921003 	0.00206222981060697 	0
9.99999999996687e-07 	1.10099526164836 	-1.38777878078145e-17 	0.00424515837023052 	0.0284345807415138 	4.95973373274823 	0.00187807742513298 	0
9.99999999996687e-07 	1.10860614351883 	-2.08166817117217e-17 	0.00538582592884573 	0.0293405942896351 	4.5336043008843 	0.00173821956099877 	0
9.99999999996687e-07 	1.11649583428022 	-2.77555756156289e-17 	0.00657964878157372 	0.0301840410034688 	4.17464074723285 	0.00162863674401848 	0
9.99999999996687e-07 	1.12467454751866 	-2.42861286636753e-17 	0.00782702092747985 	0.0309695104930109 	3.86994535308688 	0.00154009655902658 	0
9.99999999996687e-07 	1.13315287097387 	-2.42861286636753e-17 	0.0091283405104894 	0.0317008146250775 	3.60957423774833 	0.00146640503250756 	0
9.99999999996687e-07 	1.1419417802455 	-2.77555756156289e-17 	0.0104840068529981 	0.0323810519881624 	3.38571501362988 	0.00140335521727417 	0
9.99999999996687e-07 	1.15105265300151 	-2.42861286636753e-17 	0.0118944119452557 	0.0330126710961207 	3.19213553805446 	0.0013480784171351 	0
9.99999999996687e-07 	1.1604972837072 	-2.08166817117217e-17 	0.0133599200959795 	0.0335975303807564 	3.02380473040078 	0.0012986322038394 	0
9.99999999996687e-07 	1.17028789889366 	-1.73472347597681e-17 	0.0148808348997777 	0.0341369546280979 	2.8766241957357 	0.00125373071616169 	0
9.99999999996687e-07 	1.1804371729856 	-1.38777878078145e-17 	0.0164573577597943 	0.0346317879391511 	2.74723255111689 	0.00121256277170478 	0
9.99999999996687e-07 	1.19095824470904 	-1.73472347597681e-17 	0.0180895450816395 	0.0350824432825328 	2.63285850711226 	0.00117466573884559 	0
9.99999999996688e-07 	1.20186473410002 	-2.42861286636753e-17 	0.0197772714051167 	0.0354889486221091 	2.53120741054681 	0.00113983544852567 	0
9.99999999996687e-07 	1.21317076013637 	-2.42861286636753e-17 	0.0215202037949526 	0.0358509896149003 	2.44037129693687 	0.00110805915610782 	0
9.99999999996687e-07 	1.22489095901541 	-1.73472347597681e-17 	0.0233177899249603 	0.0361679490332052 	2.35875588417223 	0.00107946241408165 	0
9.99999999996687e-07 	1.23704050310127 	-1.04083408558608e-17 	0.0251692594807082 	0.0364389433474769 	2.2850201642038 	0.00105426326192451 	0
9.99999999996687e-07 	1.24963512056618 	-1.04083408558608e-17 	0.0270736363591394 	0.0366628572484738 	2.21802576789301 	0.0010327291427979 	0
9.99999999996687e-07 	1.26269111575138 	-6.93889390390723e-18 	0.029029757788689 	0.0368383772114266 	2.15679433255255 	0.00101513369766561 	0
9.99999999996687e-07 	1.27622539027388 	0 	0.031036295816937 	0.0369640254470173 	2.10047182267902 	0.00100171239109635 	0
9.99999999996687e-07 	1.29025546490642 	3.46944695195361e-18 	0.0330917766417444 	0.0370381957024623 	2.04829921878641 	0.000992617911797997 	0
9.99999999996687e-07 	1.30479950225895 	1.04083408558608e-17 	0.0351945940191528 	0.0370591923491797 	1.99958925047841 	0.000987877728474395 	0
9.99999999996687e-07 	1.31987633029101 	1.38777878078145e-17 	0.0373430143605871 	0.0370252740242711 	1.95370895125177 	0.000987356549330572 	0
9.99999999996687e-07 	1.33550546668544 	1.38777878078145e-17 	0.0395351730166367 	0.0369347028113401 	1.91006779235197 	0.000990726287456813 	0
9.99999999996687e-07 	1.35170714411495 	1.38777878078145e-17 	0.0417690632746853 	0.0367857995886829 	1.86811104614424 	0.000997445992084516 	0
9.99999999996687e-07 	1.3685023364343 	1.38777878078145e-17 	0.0440425212918695 	0.0365770057606808 	1.82731786760549 	0.00100675403008687 	0
9.99999999996687e-07 	1.38591278583198 	1.73472347597681e-17 	0.0463532111297428 	0.0363069511210274 	1.78720339491898 	0.00101767447497378 	0
9.99999999996687e-07 	1.40396103097652 	1.73472347597681e-17 	0.048698614000742 	0.0359745270606565 	1.74732398474155 	0.00102903916474613 	0
9.99999999996687e-07 	1.42267043619387 	1.73472347597681e-17 	0.0510760248327167 	0.0355789637211776 	1.70728454234307 	0.00103952627597968 	0
9.99999999996687e-07 	1.44206522171366 	2.42861286636753e-17 	0.0534825575901259 	0.0351199090214628 	1.66674680883964 	0.00104771545455504 	0
9.99999999996687e-07 	1.46217049502345 	2.77555756156289e-17 	0.0559151588987544 	0.0345975067875999 	1.62543745065552 	0.00105215823734029 	0
9.99999999996687e-07 	1.48301228337162 	2.77555756156289e-17 	0.0583706279182311 	0.0340124705415034 	1.58315487381157 	0.00105146058270067 	0
9.99999999996687e-07 	1.50461756746087 	2.77555756156289e-17 	0.0608456394424955 	0.0333661489088542 	1.53977385603629 	0.00104437217025661 	0
9.99999999996687e-07 	1.52701431637603 	2.77555756156289e-17 	0.0633367669734235 	0.0326605781794626 	1.49524733501788 	0.00102987531177637 	0
9.99999999996687e-07 	1.55023152379143 	2.77555756156289e-17 	0.0658405029449731 	0.0318985174271306 	1.44960498165206 	0.00100726534803905 	0
9.99999999996687e-07 	1.57429924550461 	2.77555756156289e-17 	0.0683532741796731 	0.0310834619569943 	1.40294849038052 	0.000976214535054099 	0
9.99999999996687e-07 	1.59924863834497 	3.12250225675825e-17 	0.0708714517743566 	0.0302196319050874 	1.35544380761454 	0.000936812557312392 	0
9.99999999996687e-07 	1.62511200050781 	3.12250225675825e-17 	0.0733913556999167 	0.0293119347389162 	1.30731077474213 	0.000889578647014946 	0
9.99999999996687e-07 	1.65192281336592 	2.77555756156289e-17 	0.0759092552332124 	0.0283659032623876 	1.25881087085717 	0.000835442528425239 	0
9.99999999996687e-07 	1.67971578481282 	2.42861286636753e-17 	0.0784213666861654 	0.0273876144072972 	1.21023389672474 	0.000775693938222091 	0
9.99999999996687e-07 	1.70852689419381 	2.08166817117217e-17 	0.0809238495609447 	0.0263835980968113 	1.16188456223329 	0.000711903385966197 	0
9.99999999996687e-07 	1.73839343888296 	1.73472347597681e-17 	0.0834128012117183 	0.0253607479634566 	1.11407006606256 	0.000645820137974984 	0
9.99999999996687e-07 	1.76935408256639 	1.38777878078145e-17 	0.0858842490124189 	0.0243262419361583 	1.06708990392483 	0.000579256986448535 	0
9.99999999996687e-07 	1.80144890529425 	1.38777878078145e-17 	0.0883341405902027 	0.0232874650527376 	1.02122922794364 	0.0005139738136121 	0
9.99999999996687e-07 	1.83471945536633 	1.38777878078145e-17 	0.0907583410892916 	0.0222519084416536 	0.976756940751683 	0.000451570982281512 	0
9.99999999996687e-07 	1.86920880311829 	1.38777878078145e-17 	0.0931526591799506 	0.0212270041142798 	0.933928886394781 	0.000393401152775452 	0
9.99999999996687e-07 	1.9049615966783 	1.73472347597681e-17 	0.0955128902619511 	0.0202198318304836 	0.892994549286754 	0.000340516150749184 	0
9.99999999996687e-07 	1.94202411976624 	2.08166817117217e-17 	0.0978347175446554 	0.0192366318368911 	0.854204228425238 	0.000293663825970219 	0
9.99999999996688e-07 	1.98044435161018 	2.08166817117217e-17 	0.100113793202309 	0.0182821592804198 	0.81781584718147 	0.000253186333320128 	0
9.99999999996688e-07 	2.02025965173184 	2.08166817117217e-17 	0.102328043589631 	0.0173664834546747 	0.784358205364519 	0.000219128453412202 	0
9.99999999996688e-07 	2.06006301192217 	2.08166817117217e-17 	0.104421565477372 	0.01651011430464 	0.754746798795895 	0.000191470515215517 	0
9.99999999996688e-07 	2.09845978584128 	1.73472347597681e-17 	0.106349046035442 	0.0157261131450092 	0.729524241981206 	0.00016962851621964 	0
9.99999999996688e-07 	2.13549967996945 	1.38777878078145e-17 	0.108110595413799 	0.0150095427972133 	0.70848222153756 	0.000152294376250911 	0
9.99999999996688e-07 	2.17123064424048 	1.04083408558608e-17 	0.109723997749356 	0.0143502366844628 	0.691194427071815 	0.000138162744143257 	0
9.99999999996688e-07 	2.20569893411515 	6.93889390390723e-18 	0.111204773629751 	0.0137400964467115 	0.677309683724795 	0.000126289908655589 	0
9.99999999996688e-07 	2.23894917046122 	6.93889390390723e-18 	0.112566398592916 	0.0131727615850606 	0.666547043110071 	0.000116044160317469 	0
9.99999999996688e-07 	2.27102439731725 	0 	0.113820646524695 	0.0126432682026724 	0.658690443176661 	0.000107038162290201 	0
9.99999999996688e-07 	2.30196613761521 	-6.93889390390723e-18 	0.114977835988861 	0.0121477496910864 	0.653583492440067 	9.9067404169148e-05 	0
9.99999999996688e-07 	2.33181444693391 	-1.04083408558608e-17 	0.116047031166067 	0.0116831926281789 	0.651124574169098 	9.20631765725187e-05 	0
9.99999999996688e-07 	2.3606079653529 	-6.93889390390723e-18 	0.11703621569543 	0.0112472457325464 	0.651262548662457 	8.60584324279234e-05 	0
9.99999999996688e-07 	2.3883839674739 	0 	0.117952440668861 	0.0108380742458247 	0.653993312640899 	8.1164519187983e-05 	0
9.99999999996688e-07 	2.41517841067461 	0 	0.118801949751954 	0.0104542509621746 	0.659357384050906 	7.75566343165947e-05 	0
9.99999999996688e-07 	2.44102598165722 	0 	0.119590285442524 	0.0100946757079338 	0.667438571761347 	7.54659442216618e-05 	0
9.99999999996688e-07 	2.46596014135207 	0 	0.120322379901913 	0.00975851623441547 	0.678363693751217 	7.51766407673314e-05 	0
9.99999999996688e-07 	2.49001316823443 	0 	0.121002633093947 	0.00944516470876426 	0.692303231982673 	7.70265607257831e-05 	0
9.99999999996688e-07 	2.51321620011054 	0 	0.121634980425845 	0.00915420505799126 	0.70947275150961 	8.141024720111e-05 	0
9.99999999996688e-07 	2.535599274427 	0 	0.122222951661002 	0.00888538726954004 	0.730134855216046 	8.87834653789401e-05 	0
9.99999999996688e-07 	2.55719136715571 	0 	0.122769722536577 	0.00863860537792649 	0.754601384390558 	9.96682025177635e-05 	0
9.99999999996688e-07 	2.57802043030465 	0 	0.123278160248659 	0.00841387630805922 	0.783235503410519 	0.000114657099409459 	0
9.99999999996688e-07 	2.59811342810315 	3.46944695195361e-18 	0.12375086374297 	0.00821131706203858 	0.816453224390335 	0.000134416105067221 	0
9.99999999996688e-07 	2.61749637190832 	3.46944695195361e-18 	0.124190199551819 	0.00803111800621399 	0.85472384304359 	0.000159683962637115 	0
9.99999999996688e-07 	2.63619435387806 	0 	0.124598333737417 	0.00787351033331428 	0.898568688623111 	0.000191266989595927 	0
9.99999999996688e-07 	2.65423157945406 	0 	0.124977260333653 	0.00773872624414913 	0.948557568414929 	0.000230027600779142 	0
9.99999999996688e-07 	2.67163139869691 	3.46944695195361e-18 	0.125328826526289 	0.00762695111302913 	1.00530235091262 	0.000276865246962609 	0
9.99999999996688e-07 	2.68841633651388 	6.93889390390723e-18 	0.125654754683929 	0.00753826793767516 	1.06944732614091 	0.000332689006926357 	0
9.99999999996688e-07 	2.7046081218185 	6.93889390390723e-18 	0.125956661261972 	0.00747259572773989 	1.14165634392954 	0.000398382034798945 	0
9.99999999996688e-07 	2.72022771565972 	6.93889390390723e-18 	0.126236072561452 	0.00742962505194335 	1.22259727317355 	0.000474759392730808 	0
9.99999999996688e-07 	2.73529533835694 	6.93889390390723e-18 	0.126494437342055 	0.00740875551434494 	1.31292501396791 	0.000562522328805914 	0
9.99999999996688e-07 	2.74983049567625 	3.46944695195361e-18 	0.12673313636194 	0.00740904113290706 	1.41326503917676 	0.000662213501765791 	0
9.99999999996688e-07 	2.76385200408156 	0 	0.126953489033647 	0.00742915008312125 	1.52420010163878 	0.000774178652981963 	0
9.99999999996688e-07 	2.77737801509343 	0 	0.12715675752351 	0.00746734476532119 	1.64626316318262 	0.000898540485088112 	0
9.99999999996688e-07 	2.79042603878708 	0 	0.127344148756156 	0.00752148658341323 	1.77993967538914 	0.00103518992975598 	0
9.99999999996688e-07 	2.80301296646003 	-3.46944695195361e-18 	0.127516814891834 	0.00758906739031373 	1.9256820770346 	0.00118379877075318 	0
9.99999999996688e-07 	2.81515509249872 	-3.46944695195361e-18 	0.127675852902054 	0.00766726671147074 	2.08393892402132 	0.00134385618319768 	0
9.99999999996688e-07 	2.82686813547237 	-3.46944695195361e-18 	0.127822303859386 	0.00775303115345024 	2.255200702442 	0.00151473066148655 	0
9.99999999996688e-07 	2.83816725848142 	-3.46944695195361e-18 	0.12795715246253 	0.00784317029138383 	2.44006436921525 	0.00169575830725736 	0
9.99999999996688e-07 	2.84906708878691 	-3.46944695195361e-18 	0.128081327128085 	0.00793446200129117 	2.63931916306645 	0.00188635837532382 	0
9.99999999996688e-07 	2.85958173674616 	-1.04083408558608e-17 	0.128195700705527 	0.00802375957308015 	2.85405716829377 	0.00208617687571309 	0
9.99999999996688e-07 	2.86972481407933 	-1.04083408558608e-17 	0.128301091546753 	0.0081080927713745 	3.08581328758956 	0.00229525868512008 	0
9.99999999996688e-07 	2.87950945149043 	-1.04083408558608e-17 	0.128398264396609 	0.00818475513182783 	3.3367405661889 	0.00251424851908567 	0
9.99999999996688e-07 	2.88894831566566 	-1.38777878078145e-17 	0.128487930485345 	0.00825137021186738 	3.60982846992196 	0.00274462181991238 	0
9.99999999996689e-07 	2.89805362567106 	-1.38777878078145e-17 	0.128570746314461 	0.0083059304058995 	3.90917460050143 	0.00298894795231883 	0
9.99999999996689e-07 	2.90683716877067 	-1.38777878078145e-17 	0.128647310966646 	0.00834680334659152 	4.24032583166044 	0.00325119090923633 	0
9.99999999996688e-07 	2.91531031568569 	-1.38777878078145e-17 	0.128718162224056 	0.00837270258964137 	4.61071461871376 	0.00353705937892286 	0
9.99999999996688e-07 	2.92348403531448 	-1.73472347597681e-17 	0.12878377205521 	0.00838262051364793 	5.03023178616105 	0.00385442812906601 	0
9.99999999996688e-07 	2.93136890893229 	-2.08166817117217e-17 	0.128844542159192 	0.00837572107923548 	5.51199989695051 	0.00421386239139031 	0
9.99999999996688e-07 	2.93897514388925 	-2.42861286636753e-17 	0.128900800458073 	0.00835118709137648 	6.07344365520662 	0.00462928199291288 	0
9.99999999996688e-07 	2.94631258682425 	-2.77555756156289e-17 	0.12895279917589 	0.008308009790591 	6.73780025264254 	0.00511879437179943 	0
9.99999999996688e-07 	2.95339073641193 	-2.08166817117217e-17 	0.129000712145109 	0.00824469696509372 	7.53628148415434 	0.0057056862707223 	0
9.99999999996688e-07 	2.96021875565915 	-1.38777878078145e-17 	0.129044626723866 	0.00815885861571593 	8.51120632597069 	0.00641944972236387 	0
9.99999999996688e-07 	2.96680548376697 	-1.38777878078145e-17 	0.129084559341383 	0.00804660756280611 	9.72059813016372 	0.00729738093454323 	0
9.99999999996688e-07 	2.97315944757337 	-1.38777878078145e-17 	0.129120624588556 	0.00790162668956315 	11.2451636559386 	0.00839753406767213 	0
9.99999999996688e-07 	2.97928887259171 	-2.08166817117217e-17 	0.129153111763383 	0.00771269860760031 	13.2006440509607 	0.00977631405122751 	0
9.99999999996688e-07 	2.98520169365902 	-2.42861286636753e-17 	0.129182026377102 	0.00746034519807324 	15.7543512352242 	0.0114643258259753 	0
9.99999999996688e-07 	2.99090556520806 	-2.08166817117217e-17 	0.129206811920272 	0.00711433385296765 	19.1376631941628 	0.0134545948705428 	0
9.99999999996688e-07 	2.99640787117633 	-2.08166817117217e-17 	0.129226918789561 	0.00663179354728079 	23.6653851476865 	0.0156072390930401 	0
9.99999999996688e-07 	3.00171573456492 	-2.08166817117217e-17 	0.129242313834322 	0.00595875021534115 	29.8001600570375 	0.0175426699679482 	0
9.99999999996688e-07 	3.00683602665962 	-2.08166817117217e-17 	0.129253350486661 	0.00504116711637899 	38.343207246748 	0.01852602316958 	0
9.99999999996688e-07 	3.01177537592612 	-2.42861286636753e-17 	0.12926059643603 	0.00385442822843083 	51.0385011881925 	0.0171166816250331 	0
9.99999999996688e-07 	3.01654017659085 	-2.77555756156289e-17 	0.12926488213689 	0.00249694055375144 	72.7623332238238 	0.0123283059641626 	0
9.99999999996688e-07 	3.02113659691864 	-2.77555756156289e-17 	0.129267158620092 	0.00126307543829266 	120.844940866026 	0.00610864379021608 	0
9.99999999996688e-07 	3.02557058719784 	-2.42861286636753e-17 	0.129268171994243 	0.000455011647562176 	276.573710609051 	0.00181959774684211 	0
9.99999999996688e-07 	3.02984788744324 	-2.08166817117217e-17 	0.129268404855646 	0.000103483934408705 	1217.39966870292 	0.000265762052961287 	0
