9.99999999999901e-07 	1.00195556483898 	-3.46944695195361e-18 	-0.0175752303382263 	5.09627861267473e-05 	2961.89036739121 	5.02396759924486e-05 	6.04051554159886e-38
9.99999999999901e-07 	1.00593833258374 	-3.46944695195361e-18 	-0.0175210390909231 	0.000452796302581496 	1310.16859261406 	0.00151939810564655 	0
9.99999999999901e-07 	1.01006700077429 	-3.46944695195361e-18 	-0.0173950370634233 	0.00191213518373816 	305.413690909054 	0.0104291498869978 	0
9.99999999999901e-07 	1.0143469141712 	-6.93889390390723e-18 	-0.0171197418302746 	0.00494952052213142 	141.398168331739 	0.029713255232504 	0
9.99999999999901e-07 	1.01878361332929 	-6.93889390390723e-18 	-0.0165977840270524 	0.00912613717373596 	88.246528183475 	0.0463908695944767 	0
9.99999999999901e-07 	1.02338284177015 	0 	-0.0157936464182651 	0.0135541651141422 	60.9160770952356 	0.0467545042053306 	0
9.99999999999901e-07 	1.02815055341735 	6.93889390390723e-18 	-0.0147421396046228 	0.0177803571612353 	43.7915678213946 	0.0352788386559348 	0
9.99999999999902e-07 	1.03309292030413 	6.93889390390723e-18 	-0.0134985519497307 	0.0217316974563603 	32.6038940987869 	0.023104242079087 	0
9.99999999999902e-07 	1.03821634056339 	1.04083408558608e-17 	-0.0121053750242476 	0.02538642163538 	25.1463917311857 	0.01476921083786 	0
9.99999999999901e-07 	1.04352744671036 	1.38777878078145e-17 	-0.0105899340534102 	0.028720095048577 	20.0155637941015 	0.00991799839898078 	0
9.99999999999901e-07 	1.04903311422874 	1.04083408558608e-17 	-0.00896979007216616 	0.0317283132860958 	16.348564980374 	0.00720801492150749 	0
9.99999999999901e-07 	1.05474047047132 	0 	-0.00725637854992192 	0.0344272789211066 	13.6314239199292 	0.00566287501866552 	0
9.99999999999901e-07 	1.06065690388671 	-3.46944695195361e-18 	-0.00545721014925337 	0.0368437964750919 	11.5573253761415 	0.00473663074585122 	0
9.99999999999901e-07 	1.06679007358401 	0 	-0.00357755312168687 	0.0390074591377345 	9.93825990026891 	0.00414479526003998 	0
9.99999999999901e-07 	1.07314791924792 	-3.46944695195361e-18 	-0.00162190668155536 	0.04094675061008 	8.65410724873621 	0.00373888661219269 	0
9.99999999999901e-07 	1.07973867141705 	-6.93889390390723e-18 	0.000404813401634005 	0.0426875573137583 	7.62410230978782 	0.00343846673713168 	0
9.99999999999901e-07 	1.08657086213875 	-6.93889390390723e-18 	0.0024966582879395 	0.0442527621447943 	6.79103030973556 	0.0031974757878765 	0
9.99999999999901e-07 	1.09365333601424 	-6.93889390390723e-18 	0.00464682157375905 	0.0456622372506703 	6.11252366322625 	0.00298830920488972 	0
9.99999999999901e-07 	1.10099526164836 	-1.73472347597681e-17 	0.00684854159508799 	0.0469329721767925 	5.55622382289837 	0.00279455897408851 	0
9.99999999999901e-07 	1.10860614351883 	-2.08166817117217e-17 	0.00909630283368704 	0.0480792593575263 	5.09697151653726 	0.0026075385991882 	0
9.99999999999901e-07 	1.11649583428022 	-2.08166817117217e-17 	0.01138674996295 	0.0491129176655026 	4.71502993748303 	0.00242411910654651 	0
9.99999999999901e-07 	1.12467454751866 	-3.12250225675825e-17 	0.0137189201042172 	0.050043545084836 	4.39484249504844 	0.00224490143104897 	0
9.99999999999901e-07 	1.13315287097387 	-3.81639164714898e-17 	0.0160937643618507 	0.0508787904411837 	4.12409956125027 	0.00207256859949725 	0
9.99999999999901e-07 	1.1419417802455 	-4.16333634234434e-17 	0.0185132081705387 	0.051624633325004 	3.89301976116287 	0.00191054179213334 	0
9.99999999999901e-07 	1.15105265300152 	-4.5102810375397e-17 	0.0209790983214349 	0.0522856618129288 	3.6938014234643 	0.00176204986945905 	0
9.99999999999901e-07 	1.1604972837072 	-4.85722573273506e-17 	0.0234923401905577 	0.0528653378991334 	3.52021167718416 	0.00162963003221408 	0
9.99999999999901e-07 	1.17028789889366 	-4.5102810375397e-17 	0.0260523992859562 	0.0533662404903062 	3.36728077357474 	0.00151499511777477 	0
9.99999999999901e-07 	1.1804371729856 	-3.81639164714898e-17 	0.0286571828084421 	0.053790276540477 	3.23107021774441 	0.00141914615357015 	0
9.99999999999901e-07 	1.19095824470904 	-3.81639164714898e-17 	0.0313031957323748 	0.0541388536069288 	3.10848846888818 	0.00134258949884134 	0
9.99999999999901e-07 	1.20186473410002 	-4.16333634234434e-17 	0.0339858262541451 	0.054413011902377 	2.99713583357265 	0.00128554187494157 	0
9.99999999999901e-07 	1.21317076013637 	-4.5102810375397e-17 	0.0366996498138264 	0.0546135195990689 	2.8951681357459 	0.00124805873382492 	0
9.99999999999901e-07 	1.22489095901541 	-4.5102810375397e-17 	0.0394387102631739 	0.0547409398098551 	2.8011749351771 	0.00123007557172372 	0
9.99999999999901e-07 	1.23704050310127 	-5.20417042793042e-17 	0.0421967921124572 	0.054795679558877 	2.71407176771285 	0.00123139687098095 	0
9.99999999999901e-07 	1.24963512056618 	-5.89805981832114e-17 	0.0449677153765206 	0.0547780294414858 	2.63300727887636 	0.00125167559811509 	0
9.99999999999901e-07 	1.26269111575138 	-5.55111512312578e-17 	0.0477456414445259 	0.0546881994585007 	2.55728599997035 	0.00129037869432696 	0
9.99999999999901e-07 	1.27622539027388 	-5.20417042793042e-17 	0.0505253257167592 	0.0545263538363338 	2.48630689678486 	0.00134671173899714 	0
9.99999999999901e-07 	1.29025546490642 	-4.5102810375397e-17 	0.0533022674929637 	0.0542926454419534 	2.41951731682426 	0.00141950646174343 	0
9.99999999999901e-07 	1.30479950225895 	-4.16333634234434e-17 	0.0560727367420601 	0.0539872491809298 	2.35638159434681 	0.00150709562172105 	0
9.99999999999902e-07 	1.31987633029101 	-4.16333634234434e-17 	0.0588336785087899 	0.0536103941277603 	2.29636324105706 	0.00160720901749556 	0
9.99999999999902e-07 	1.33550546668544 	-3.81639164714898e-17 	0.0615825190889492 	0.0531623953681176 	2.23891928271146 	0.00171692662975854 	0
9.99999999999902e-07 	1.35170714411495 	-3.12250225675825e-17 	0.0643169165671096 	0.0526436877795112 	2.18350486227603 	0.00183271561837651 	0
9.99999999999902e-07 	1.3685023364343 	-3.12250225675825e-17 	0.0670345153814845 	0.0520548644169076 	2.12958576157572 	0.00195056254126055 	0
9.99999999999902e-07 	1.38591278583198 	-3.46944695195361e-17 	0.069732770318867 	0.0513967210221029 	2.07665604944238 	0.00206618641682192 	0
9.99999999999902e-07 	1.40396103097652 	-3.12250225675825e-17 	0.0724088765143281 	0.0506703053674413 	2.02425771691985 	0.00217529361361017 	0
9.99999999999901e-07 	1.42267043619387 	-3.12250225675825e-17 	0.0750597908440459 	0.0498769675048396 	1.9719990772642 	0.0022738233132561 	0
9.99999999999901e-07 	1.44206522171365 	-3.46944695195361e-17 	0.0776823149054778 	0.04901840686291 	1.9195690958967 	0.00235814219638414 	0
9.99999999999901e-07 	1.46217049502345 	-3.46944695195361e-17 	0.0802732151385553 	0.048096713978408 	1.86674568622897 	0.00242517374027363 	0
9.99999999999901e-07 	1.48301228337162 	-3.12250225675825e-17 	0.0828293514307148 	0.0471144061633021 	1.81339716403705 	0.00247246776738168 	0
9.99999999999902e-07 	1.50461756746086 	-3.12250225675825e-17 	0.085347786054658 	0.0460744566955415 	1.75947725683767 	0.00249822945287728 	0
9.99999999999902e-07 	1.52701431637602 	-3.12250225675825e-17 	0.0878258528975246 	0.0449803163114544 	1.7050150703626 	0.0025013298819561 	0
9.99999999999902e-07 	1.55023152379143 	-2.77555756156289e-17 	0.0902611800919323 	0.0438359242730529 	1.65010200564015 	0.00248131030213311 	0
9.99999999999902e-07 	1.57429924550461 	-2.77555756156289e-17 	0.0926516724922609 	0.0426457049182994 	1.59487771003586 	0.00243838142192272 	0
9.99999999999902e-07 	1.59924863834497 	-3.12250225675825e-17 	0.0949954680310567 	0.0414145453860999 	1.53951681870199 	0.00237341378798484 	0
9.99999999999902e-07 	1.62511200050781 	-3.12250225675825e-17 	0.097290883719586 	0.0401477517096309 	1.48421770597698 	0.00228791890322035 	0
9.99999999999902e-07 	1.65192281336592 	-2.42861286636753e-17 	0.0995363664069884 	0.0388509828970598 	1.42919390133083 	0.00218402632607857 	0
9.99999999999902e-07 	1.67971578481282 	-2.08166817117217e-17 	0.101730462471747 	0.0375301638678054 	1.37466826241868 	0.00206445693826507 	0
9.99999999999902e-07 	1.70852689419381 	-2.42861286636753e-17 	0.103871816377775 	0.0361913785085477 	1.32086942470111 	0.00193247388213336 	0
9.99999999999902e-07 	1.73839343888296 	-2.77555756156289e-17 	0.10595919967104 	0.0348407518910366 	1.26802966874838 	0.00179177556910863 	0
9.99999999999902e-07 	1.76935408256639 	-2.77555756156289e-17 	0.107991559979841 	0.0334843581087242 	1.21638348900104 	0.00164630301373098 	0
9.99999999999902e-07 	1.80144890529425 	-2.77555756156289e-17 	0.109968057447423 	0.0321282250014218 	1.166166771637 	0.00149997393689228 	0
9.99999999999902e-07 	1.83471945536633 	-2.42861286636753e-17 	0.111888074272296 	0.030778392693441 	1.11761680205536 	0.00135638439780536 	0
9.99999999999902e-07 	1.86920880311829 	-2.42861286636753e-17 	0.113751247188235 	0.029440949674883 	1.07097283536548 	0.001218511506312 	0
9.99999999999902e-07 	1.9049615966783 	-1.73472347597681e-17 	0.115557499520075 	0.0281222310904255 	1.02647699265789 	0.00108849886978948 	0
9.99999999999902e-07 	1.94202411976624 	-3.46944695195361e-18 	0.117306851598835 	0.0268289983377765 	0.984375642159058 	0.000967770672998772 	0
9.99999999999902e-07 	1.98044435161018 	-3.46944695195361e-18 	0.118999138842393 	0.0255676029232228 	0.944918658550682 	0.000857066522527376 	0
9.99999999999902e-07 	2.02025965173184 	-1.04083408558608e-17 	0.120621406714638 	0.0243515864824597 	0.908629984530737 	0.00075719675516546 	0
9.99999999999902e-07 	2.06006301192217 	-6.93889390390723e-18 	0.122136969902377 	0.0232077021141296 	0.876431876884263 	0.000669698898652307 	0
9.99999999999902e-07 	2.09845978584128 	-3.46944695195361e-18 	0.123517502947405 	0.0221530353782163 	0.848845701713649 	0.000594697821095032 	0
9.99999999999902e-07 	2.13549967996945 	-6.93889390390723e-18 	0.124767455884508 	0.0211815043736024 	0.825605336166765 	0.000530054642160968 	0
9.99999999999902e-07 	2.17123064424048 	-6.93889390390723e-18 	0.1259034092182 	0.020280486727113 	0.806234383177558 	0.000473355672534268 	0
9.99999999999902e-07 	2.20569893411515 	-1.04083408558608e-17 	0.126939500976187 	0.0194401539629354 	0.790351592482106 	0.000422819406078629 	0
9.99999999999902e-07 	2.23894917046122 	-1.38777878078145e-17 	0.12788764535631 	0.0186528593998564 	0.777657715178709 	0.000377190393950684 	0
9.99999999999903e-07 	2.27102439731725 	-1.73472347597681e-17 	0.128757961014979 	0.0179126234596958 	0.767924291193147 	0.000335611489381219 	0
9.99999999999903e-07 	2.30196613761521 	-1.73472347597681e-17 	0.129559081599555 	0.0172147311601725 	0.76098407993119 	0.000297514070514508 	0
9.99999999999903e-07 	2.33181444693391 	-1.04083408558608e-17 	0.13029839981032 	0.0165554270326189 	0.756723072898487 	0.000262537849459871 	0
9.99999999999903e-07 	2.3606079653529 	-6.93889390390723e-18 	0.130982269226187 	0.0159316877337788 	0.755074151983147 	0.000230473476561585 	0
9.99999999999903e-07 	2.3883839674739 	-6.93889390390723e-18 	0.131616170090271 	0.0153410545579842 	0.756012417140318 	0.000201222985372264 	0
9.99999999999903e-07 	2.41517841067461 	-6.93889390390723e-18 	0.132204845531855 	0.0147815113383831 	0.759552121973856 	0.000174773982902471 	0
9.99999999999903e-07 	2.44102598165722 	-6.93889390390723e-18 	0.132752414271326 	0.0142513963424373 	0.765745094970194 	0.000151184155474301 	0
9.99999999999903e-07 	2.46596014135207 	-6.93889390390723e-18 	0.133262464478078 	0.0137493393832162 	0.774680502597589 	0.000130573456053441 	0
9.99999999999903e-07 	2.49001316823443 	-1.04083408558608e-17 	0.133738132355032 	0.0132742174596821 	0.786485817988701 	0.000113122048128236 	0
9.99999999999903e-07 	2.51321620011054 	-2.08166817117217e-17 	0.134182168250121 	0.0128251238604191 	0.801328880268936 	9.90726312101201e-05 	0
9.99999999999903e-07 	2.535599274427 	-3.12250225675825e-17 	0.13459699252436 	0.0124013468854806 	0.819420951964506 	8.873617406764e-05 	0
9.99999999999903e-07 	2.55719136715571 	-3.46944695195361e-17 	0.134984742974867 	0.0120023552261023 	0.841020696066527 	8.25003498348757e-05 	0
9.99999999999903e-07 	2.57802043030465 	-3.81639164714898e-17 	0.135347315279892 	0.0116277876494662 	0.866438993571791 	8.08401127374989e-05 	0
9.99999999999903e-07 	2.59811342810315 	-4.16333634234434e-17 	0.135686397672465 	0.0112774450141948 	0.89604450137603 	8.43298844637471e-05 	0
9.99999999999903e-07 	2.61749637190832 	-4.16333634234434e-17 	0.136003500839271 	0.0109512828337428 	0.930269804627815 	9.36567296380382e-05 	0
9.99999999999903e-07 	2.63619435387806 	-3.81639164714898e-17 	0.136299983867577 	0.01064940264835 	0.969617943156102 	0.000109633693540771 	0
9.99999999999903e-07 	2.65423157945406 	-3.46944695195361e-17 	0.13657707691462 	0.0103720404036376 	1.01466898625093 	0.000133212155364457 	0
9.99999999999903e-07 	2.67163139869691 	-3.81639164714898e-17 	0.136835901142466 	0.0101195499172173 	1.06608619584185 	0.000165491636153202 	0
9.99999999999903e-07 	2.68841633651388 	-4.16333634234434e-17 	0.137077486340587 	0.00989237941354396 	1.12462116451446 	0.000207725039576229 	0
9.99999999999903e-07 	2.7046081218185 	-4.16333634234434e-17 	0.137302786544049 	0.00969103911486873 	1.19111716357854 	0.000261316885575647 	0
9.99999999999903e-07 	2.72022771565972 	-4.16333634234434e-17 	0.137512693846135 	0.00951605810914345 	1.26650982626029 	0.000327811863371785 	0
9.99999999999903e-07 	2.73529533835694 	-4.16333634234434e-17 	0.137708050503063 	0.00936792930255767 	1.35182428051849 	0.000408871170791423 	0
9.99999999999903e-07 	2.74983049567625 	-3.81639164714898e-17 	0.137889659342041 	0.00924704231687749 	1.44816801074699 	0.000506234829498711 	0
9.99999999999903e-07 	2.76385200408156 	-3.12250225675825e-17 	0.138058292422565 	0.00915360575760819 	1.55671914897716 	0.000621669634863372 	0
9.99999999999903e-07 	2.77737801509343 	-3.12250225675825e-17 	0.138214697875978 	0.00908756228247034 	1.67871063703276 	0.000756904644806192 	0
9.99999999999903e-07 	2.79042603878708 	-3.46944695195361e-17 	0.138359604868147 	0.00904850209074644 	1.81541177187314 	0.000913558936094867 	0
9.99999999999903e-07 	2.80301296646003 	-3.81639164714898e-17 	0.138493726694666 	0.00903558239885646 	1.96810997035896 	0.00109306928539755 	0
9.99999999999903e-07 	2.81515509249872 	-3.81639164714898e-17 	0.138617762115481 	0.00904746161276236 	2.13809698540443 	0.00129662776672695 	0
9.99999999999903e-07 	2.82686813547237 	-3.81639164714898e-17 	0.138732395143211 	0.00908225673008117 	2.32666500724471 	0.00152514024874501 	0
9.99999999999903e-07 	2.83816725848142 	-4.5102810375397e-17 	0.138838293588714 	0.00913753071255982 	2.53511881331032 	0.00177921590394169 	0
9.99999999999903e-07 	2.84906708878691 	-4.85722573273506e-17 	0.138936106716794 	0.009210313280727 	2.76481021526118 	0.00205919510751983 	0
9.99999999999903e-07 	2.85958173674616 	-4.85722573273506e-17 	0.139026462368929 	0.00929715438505587 	3.01720056010496 	0.00236521924263746 	0
9.99999999999903e-07 	2.86972481407933 	-4.85722573273506e-17 	0.139109963885237 	0.00939420544458619 	3.29395639185119 	0.00269734247022435 	0
9.99999999999903e-07 	2.87950945149043 	-5.20417042793042e-17 	0.13918718713695 	0.00949732033147193 	3.59708337195192 	0.00305568463213339 	0
9.99999999999903e-07 	2.88894831566566 	-5.55111512312578e-17 	0.13925867796929 	0.00960216673810928 	3.92910528403784 	0.00344062842653663 	0
9.99999999999903e-07 	2.89805362567106 	-5.55111512312578e-17 	0.139324950263566 	0.00970433905496212 	4.29329953997745 	0.00385307408082981 	0
9.99999999999903e-07 	2.90683716877067 	-5.20417042793042e-17 	0.139386484590596 	0.00979946536961555 	4.69400881016531 	0.00429477902759879 	0
9.99999999999903e-07 	2.91531031568569 	-4.85722573273506e-17 	0.139443727433267 	0.00988330192306943 	5.13706017664422 	0.00476882064204323 	0
9.99999999999903e-07 	2.92348403531448 	-5.20417042793042e-17 	0.139497090588907 	0.00995180618447108 	5.63033774162398 	0.0052802133186375 	0
9.99999999999903e-07 	2.93136890893229 	-5.55111512312578e-17 	0.139546948865067 	0.0100011735942919 	6.18457156965823 	0.00583668683710843 	0
9.99999999999903e-07 	2.93897514388925 	-5.55111512312578e-17 	0.139593634734601 	0.010027814916005 	6.81442785556562 	0.00644962725762544 	0
9.99999999999903e-07 	2.94631258682425 	-5.20417042793042e-17 	0.139637430528828 	0.0100282445006631 	7.54002134870379 	0.00713521151547071 	0
9.99999999999903e-07 	2.95339073641193 	-4.85722573273506e-17 	0.139678557497253 	0.00999884489462347 	8.38904079590788 	0.00791576221568187 	0
9.99999999999903e-07 	2.96021875565915 	-4.85722573273506e-17 	0.139717159459365 	0.00993546651203494 	9.39980718825206 	0.00882126058679067 	0
9.99999999999903e-07 	2.96680548376697 	-4.85722573273506e-17 	0.139753289408103 	0.00983280689089884 	10.6258067249437 	0.00989079295150246 	0
9.99999999999903e-07 	2.97315944757337 	-4.85722573273506e-17 	0.139786966299636 	0.00968348638872884 	12.1426164946768 	0.0111852793890878 	0
9.99999999999903e-07 	2.97928887259171 	-4.85722573273506e-17 	0.139818297186867 	0.00947586560004108 	14.0598332577625 	0.0127747718988849 	0
9.99999999999903e-07 	2.98520169365902 	-4.5102810375397e-17 	0.139847324036681 	0.00919062162904325 	16.5393257775499 	0.0147162175054748 	0
9.99999999999903e-07 	2.99090556520806 	-4.16333634234434e-17 	0.139873648623901 	0.00879718980769881 	19.8169370932505 	0.0170394220603273 	0
9.99999999999903e-07 	2.99640787117633 	-4.16333634234434e-17 	0.139896559078176 	0.00825002476401217 	24.2349863830188 	0.0196588209205237 	0
9.99999999999904e-07 	3.00171573456492 	-4.85722573273506e-17 	0.13991552640466 	0.00748684864749253 	30.3141316869854 	0.0222344189726084 	0
9.99999999999904e-07 	3.00683602665962 	-5.55111512312578e-17 	0.139930348372525 	0.00643529471576419 	38.9385811013154 	0.0239907444205182 	0
9.99999999999904e-07 	3.01177537592612 	-5.89805981832114e-17 	0.139941114133585 	0.00503808849300786 	51.9234880436846 	0.0230812417944896 	0
9.99999999999904e-07 	3.01654017659085 	-6.24500451351651e-17 	0.139948285982777 	0.00336516476433849 	74.0894846792747 	0.0175972777517736 	0
9.99999999999904e-07 	3.02113659691864 	-6.24500451351651e-17 	0.139952653251968 	0.00175774189994558 	122.455465022635 	0.00929652414340949 	0
9.99999999999904e-07 	3.02557058719784 	-6.24500451351651e-17 	0.139955135726716 	0.000649566991273487 	277.957022474271 	0.00294129795268181 	0
9.99999999999904e-07 	3.02984788744324 	-6.59194920871187e-17 	0.139956548612276 	0.000149701937481202 	1218.12667645342 	0.000449538780904409 	0
