/*--------------------------------*- C++ -*----------------------------------*\
  =========                 |
  \\      /  F ield         | OpenFOAM: The Open Source CFD Toolbox
   \\    /   O peration     | Website:  https://openfoam.org
    \\  /    A nd           | Version:  7
     \\/     M anipulation  |
\*---------------------------------------------------------------------------*/
FoamFile
{
    version     2.0;
    format      ascii;
    class       volVectorField;
    location    "0";
    object      C;
}
// * * * * * * * * * * * * * * * * * * * * * * * * * * * * * * * * * * * * * //

dimensions      [0 1 0 0 0 0 0];

internalField   nonuniform List<vector> 
15600
(
(0.027533067843108 1.00195544733151 0)
(0.0825992000907869 1.00195488366535 0)
(0.137645601849956 1.00079174802999 1.73571244188863e-18)
(0.192516142051959 0.996530632836499 0)
(0.246808160427377 0.987732063851907 6.83206577150224e-18)
(0.299831945679533 0.973262882318487 1.79114930725362e-18)
(0.350819668114647 0.952742252468112 -9.53960243211053e-20)
(0.399463645406047 0.92706590456244 -1.88675584088099e-18)
(0.446019640159904 0.897720136934444 -9.50405540661198e-20)
(0.490904886580662 0.865864361386416 5.45225022953346e-18)
(0.53453306029957 0.832307059793597 -1.80117604728168e-18)
(0.57726843038006 0.797615064458347 9.04209244679199e-18)
(0.619422469534553 0.762220111263612 -3.74118595328514e-18)
(0.661284243396026 0.726484992641817 -1.58180199741073e-18)
(0.703134022885246 0.690738807814791 3.33103043877713e-18)
(0.745201693216725 0.655252105080345 0)
(0.78757495969276 0.620131977782653 3.00247921978538e-18)
(0.830234260204188 0.585357544420413 1.5455889033166e-18)
(0.873145949378267 0.550891421113546 1.40416690386329e-18)
(0.916273343499207 0.516694376359836 -2.9145961792213e-18)
(0.95957951158629 0.482723515931275 -2.64692936094559e-18)
(1.00302785393535 0.44893255014321 -7.91930416347831e-18)
(1.04657988139514 0.415274117966795 2.70208248762407e-18)
(1.09020731774352 0.381712646504866 0)
(1.13394465144645 0.348293509396282 9.54258203147031e-20)
(1.17789373672706 0.31515621818696 2.32474809160296e-18)
(1.22217898601974 0.282468860349954 0)
(1.26692585627433 0.250418254286868 0)
(1.31226649882517 0.21921464217299 0)
(1.3583370593554 0.189102472089459 0)
(1.40527665659201 0.160371926755589 1.98861684028325e-18)
(1.45321841408165 0.133347539200927 -1.82722822228072e-18)
(1.50222724408961 0.108312893111372 0)
(1.55229864982975 0.0854826958123155 -3.61909285652583e-18)
(1.6033982029246 0.0650628734625698 1.66667273429298e-18)
(1.65546812746215 0.0472644037392387 -1.72251338173247e-18)
(1.70842164274756 0.0322971331171819 0)
(1.76213691248049 0.0203615131916949 9.61681371049794e-20)
(1.81646406085863 0.0116359265729288 2.08819429136531e-16)
(1.87122403919671 0.00626607311243094 2.16808861925996e-16)
(1.92621456423587 0.00417345479003709 0)
(1.981276489805 0.00391089466302134 -1.73508407880094e-18)
(2.03634262549122 0.00391089466302149 -3.47016815760158e-18)
(2.09140876117743 0.00391089466302136 5.10887870961167e-18)
(2.14647489686365 0.00391089466302131 1.73508407880095e-18)
(2.20154103254987 0.00391089466302129 0)
(2.25660716823608 0.00391089466302146 -2.34238514217499e-16)
(2.3116733039223 0.0039108946630212 -2.51263795622971e-16)
(2.36673943960851 0.00391089466302126 9.63735267911278e-20)
(2.42180557529473 0.00391089466302129 9.63735267911307e-20)
(2.47687171098095 0.00391089466302123 0)
(2.53193784666716 0.00391089466302131 0)
(2.58700398235338 0.00391089466302126 -2.3443126127108e-16)
(2.64207011803959 0.00391089466302143 -2.34254605847887e-16)
(2.69713625372581 0.00391089466302154 8.48267334042332e-18)
(2.75220238941202 0.00391089466302142 -3.37379463081078e-18)
(2.80726852509824 0.00391089466302138 0)
(2.86233466078446 0.0039108946630212 9.6373526791128e-20)
(2.91740079647067 0.00391089466302126 1.73508407880098e-18)
(2.97246693215689 0.00391089466302132 3.37379463081059e-18)
(3.0275330678431 0.00391089466302129 -3.3737946308112e-18)
(3.08259920352932 0.00391089466302123 9.6373526791127e-20)
(3.13766533921553 0.00391089466302121 3.3737946308109e-18)
(3.19273147490175 0.00391089466302137 9.6373526791125e-20)
(3.24779761058797 0.00391089466302136 0)
(3.30286374627418 0.00391089466302137 -9.63735267911312e-20)
(3.3579298819604 0.00391089466302145 -3.37379463081046e-18)
(3.41299601764662 0.00391089466302146 0)
(3.46806215333283 0.00391089466302136 -6.74758926162146e-18)
(3.52312828901905 0.00391089466302138 -3.37379463081056e-18)
(3.57819442470526 0.0039108946630212 0)
(3.63326056039148 0.00391089466302126 -1.63871055200986e-18)
(3.68832669607769 0.00391089466302125 2.32696177192279e-16)
(3.74339283176391 0.00391089466302138 4.75120358329048e-16)
(3.79845896745013 0.00391089466302121 2.33651727913677e-16)
(3.85352510313635 0.00391089466302137 1.73508407880083e-18)
(3.90859123882257 0.00391089466302136 -1.18564679712332e-17)
(3.96365737450878 0.00391089466302149 0)
(4.018723510195 0.00391089466302134 -9.63735267911305e-20)
(4.07378543576413 0.00417345479003684 2.31006045921931e-16)
(4.12877596080329 0.00626607311243074 2.34363316503568e-16)
(4.18353593914137 0.0116359265729283 -5.03888946285477e-18)
(4.23786308751951 0.0203615131916941 1.56804156284672e-18)
(4.29157835725244 0.0322971331171813 1.68967535131155e-18)
(4.34453187253786 0.0472644037392378 9.67100366763439e-20)
(4.3966017970754 0.065062873462568 -1.85941931653762e-18)
(4.44770135017025 0.0854826958123152 0)
(4.49777275591038 0.108312893111371 -1.86307613746718e-18)
(4.54678158591834 0.133347539200925 3.84600930068784e-18)
(4.59472334340798 0.160371926755588 1.98861684028152e-18)
(4.6416629406446 0.189102472089454 0)
(4.68773350117483 0.219214642172987 2.31823833317687e-18)
(4.73307414372566 0.250418254286865 0)
(4.77782101398025 0.28246886034995 0)
(4.82210626327293 0.315156218186957 2.42203140771702e-18)
(4.86605534855354 0.348293509396279 -7.2634334961785e-18)
(4.90979268225647 0.381712646504862 2.54793279913988e-18)
(4.95342011860486 0.415274117966795 1.33107897987727e-15)
(4.99697214606464 0.448932550143206 1.30252908127971e-15)
(5.04042048841371 0.482723515931274 0)
(5.08372665650079 0.516694376359833 0)
(5.12685405062174 0.550891421113549 2.80833380772629e-18)
(5.16976573979581 0.585357544420406 -1.54797667203296e-18)
(5.21242504030724 0.620131977782654 -9.30029371857535e-18)
(5.25479830678327 0.655252105080342 -9.53836865960689e-18)
(5.29686597711475 0.690738807814785 0)
(5.33871575660397 0.726484992641814 3.45128724699277e-18)
(5.38057753046544 0.762220111263612 -5.28254073925552e-18)
(5.42273156961994 0.797615064458349 9.78497151219735e-20)
(5.46546693970042 0.83230705979359 -1.70333916588281e-18)
(5.50909511341933 0.865864361386412 -7.36745779856566e-18)
(5.5539803598401 0.897720136934446 -9.77013345563264e-20)
(5.60053635459395 0.927065904562438 7.26383787178913e-18)
(5.64918033188534 0.952742252468109 9.73482480165528e-20)
(5.70016805432046 0.973262882318486 0)
(5.75319183957262 0.987732063851907 6.83386431760298e-18)
(5.80748385794804 0.996530632836499 0)
(5.86235439815004 1.00079174802999 0)
(5.91740079990921 1.00195488366535 0)
(5.97246693215689 1.00195544733151 -9.63735267911266e-20)
(0.0275229594781567 1.00593820626292 -1.67777129847386e-18)
(0.0825688750284302 1.00593764484615 6.51828933043193e-18)
(0.137595177466416 1.00477915077632 0)
(0.192446345415329 1.00053503965279 0)
(0.246721320702454 0.991771581983692 0)
(0.299733135917371 0.977360143582332 4.90735897750153e-18)
(0.35071700558216 0.956921414084118 3.56435817793434e-18)
(0.399366452286793 0.931347549199416 -3.64714223654189e-18)
(0.445936223934297 0.902118910831937 0)
(0.490841897870075 0.87039027917149 0)
(0.534495504839655 0.836966906556984 1.91252403556979e-19)
(0.577259863838288 0.802413362364809 1.21378501595564e-17)
(0.619445206462237 0.767159659287355 0)
(0.661339445921486 0.731567142242972 -1.91287470569681e-19)
(0.703221735258087 0.695963597866155 6.43031503210772e-18)
(0.745321043860355 0.660618497530022 -1.69257979052458e-18)
(0.787724730015936 0.625638511050197 0)
(0.830413310002163 0.591002840430904 0)
(0.873353272637858 0.556674250774036 5.41538266031279e-18)
(0.916508080537584 0.522613666963935 -5.44466650070601e-18)
(0.959840950070341 0.488778365768545 0)
(1.00331542752695 0.45512224211465 0)
(1.04689317728286 0.421598123898289 -7.64821144389793e-18)
(1.09054603563281 0.38817057983355 3.83506420821553e-19)
(1.13430835193931 0.354884801283081 0)
(1.17828157350634 0.321879742836727 0)
(1.22258961633184 0.289322821275037 0)
(1.26735743652449 0.257400109820146 2.11393929625517e-18)
(1.31271665801709 0.226321011699918 0)
(1.3588028828262 0.196328999921179 -2.17534459610738e-18)
(1.40575467428477 0.167713099316323 1.92083110517305e-19)
(1.45370462456524 0.140796548330056 5.75737706081952e-18)
(1.50271738800231 0.115861799622839 -3.78700660797148e-18)
(1.55278848599449 0.0931227037352072 0)
(1.60388362744902 0.0727843649751292 3.40143360154944e-18)
(1.65594526695576 0.0550569189779612 -5.178668730603e-18)
(1.70888697009039 0.0401493747246398 -1.43797736666829e-18)
(1.76258738679106 0.0282613837900233 -8.60937861588176e-18)
(1.81689723947579 0.0195706167912242 -2.07007457476949e-16)
(1.87163819414281 0.0142221921054997 -1.98563616045738e-16)
(1.92660877803977 0.0121379248204266 5.12857900570014e-18)
(1.9816504993082 0.0118764125258418 0)
(2.03669641826451 0.0118764125258417 -1.92763067048248e-19)
(2.09174233722083 0.0118764125258418 1.92763067048244e-19)
(2.14678825617714 0.0118764125258417 0)
(2.20183417513345 0.0118764125258419 1.92763067048238e-19)
(2.25688009408977 0.0118764125258417 2.30917390883296e-16)
(2.31192601304608 0.0118764125258417 2.30005777433593e-16)
(2.36697193200239 0.0118764125258416 1.92763067048248e-19)
(2.4220178509587 0.0118764125258416 6.71105316707411e-18)
(2.47706376991502 0.0118764125258417 0)
(2.53210968887133 0.0118764125258419 0)
(2.58715560782764 0.0118764125258419 2.21429100333845e-16)
(2.64220152678396 0.0118764125258418 2.23966571211763e-16)
(2.69724744574027 0.0118764125258419 -1.92763067048241e-19)
(2.75229336469658 0.0118764125258419 0)
(2.8073392836529 0.0118764125258416 0)
(2.86238520260921 0.0118764125258417 1.58138175824455e-18)
(2.91743112156553 0.0118764125258418 0)
(2.97247704052184 0.0118764125258416 0)
(3.02752295947815 0.0118764125258415 1.58138175824468e-18)
(3.08256887843446 0.0118764125258417 0)
(3.13761479739078 0.0118764125258417 -1.92763067048241e-19)
(3.19266071634709 0.0118764125258416 0)
(3.24770663530341 0.0118764125258419 0)
(3.30275255425972 0.0118764125258419 1.9276306704824e-19)
(3.35779847321603 0.0118764125258418 0)
(3.41284439217235 0.011876412525842 -6.90381623412286e-18)
(3.46789031112866 0.0118764125258419 0)
(3.52293623008498 0.0118764125258416 0)
(3.57798214904129 0.0118764125258417 0)
(3.6330280679976 0.0118764125258417 0)
(3.68807398695391 0.0118764125258418 -2.22817719025051e-16)
(3.74311990591022 0.0118764125258415 -4.53085618917799e-16)
(3.79816582486654 0.0118764125258418 -2.27098579812752e-16)
(3.85321174382286 0.0118764125258416 0)
(3.90825766277917 0.0118764125258419 1.92763067048241e-19)
(3.96330358173549 0.0118764125258417 -1.92763067048249e-19)
(4.0183495006918 0.0118764125258418 1.77414482529283e-18)
(4.07339122196023 0.0121379248204267 -2.25667959905723e-16)
(4.12836180585719 0.0142221921054994 -2.27402098672086e-16)
(4.1831027605242 0.0195706167912238 0)
(4.23741261320894 0.0282613837900227 0)
(4.29111302990961 0.0401493747246389 1.82349830444432e-18)
(4.34405473304423 0.0550569189779603 0)
(4.39611637255098 0.0727843649751286 3.59459169390532e-18)
(4.4472115140055 0.0931227037352045 1.74586700705895e-18)
(4.49728261199768 0.115861799622836 -1.99067585492489e-18)
(4.54629537543475 0.140796548330054 0)
(4.59424532571522 0.167713099316323 1.93405604792024e-19)
(4.64119711717379 0.196328999921176 0)
(4.6872833419829 0.226321011699913 -2.04847643446983e-18)
(4.73264256347551 0.257400109820145 -6.7289407129852e-18)
(4.77741038366816 0.289322821275031 4.74367750370818e-18)
(4.82171842649365 0.321879742836724 0)
(4.86569164806069 0.354884801283081 0)
(4.90945396436719 0.388170579833547 2.75044534898556e-18)
(4.95310682271714 0.421598123898286 -1.22650243331236e-15)
(4.99668457247305 0.455122242114649 -1.32114098218705e-15)
(5.04015904992966 0.488778365768541 0)
(5.08349191946241 0.522613666963934 -5.44687277573838e-18)
(5.12664672736214 0.556674250774032 1.93870062270035e-19)
(5.16958668999784 0.591002840430905 1.59229624419457e-18)
(5.21227526998406 0.625638511050193 -9.07186696349439e-18)
(5.25467895613964 0.660618497530018 3.00233509583115e-18)
(5.29677826474192 0.695963597866155 0)
(5.33866055407851 0.73156714224297 -6.85346356686077e-18)
(5.38055479353776 0.767159659287352 -5.19192457286621e-18)
(5.42274013616171 0.802413362364807 1.51246524354701e-18)
(5.46550449516034 0.836966906556981 -1.94183427378408e-19)
(5.50915810212992 0.870390279171487 -5.45069220698069e-18)
(5.5540637760657 0.902118910831935 1.74992508468529e-18)
(5.6006335477132 0.931347549199416 -9.2207433595283e-18)
(5.64928299441783 0.956921414084116 -1.4925747600593e-18)
(5.70026686408263 0.977360143582332 -3.27157265166606e-18)
(5.75327867929754 0.991771581983691 1.93208484021951e-19)
(5.80755365458467 1.00053503965279 0)
(5.86240482253358 1.00477915077632 0)
(5.91743112497157 1.00593764484615 1.77414468777348e-18)
(5.97247704052184 1.00593820626292 0)
(0.0275124808150585 1.01006686497724 0)
(0.0825374390728239 1.01006630589225 1.71884274396108e-18)
(0.137542905894284 1.00891262342834 1.71940349873031e-18)
(0.192373991928804 1.00468613931288 9.95530287551623e-18)
(0.246631299789027 0.995959079265107 1.92309276360163e-19)
(0.299630706466665 0.98160749942522 1.92046537179421e-19)
(0.350610582219559 0.961253670665535 -6.88991174958835e-18)
(0.399265698696623 0.935786043120562 -1.20470323114512e-17)
(0.445849751926136 0.906678824800552 5.25334118648952e-18)
(0.490776601697583 0.875081994649505 -7.13963249384602e-18)
(0.534456573612935 0.841797457194465 -5.02153351917852e-18)
(0.577250983478949 0.807387436005936 0)
(0.61946877631038 0.772280157466925 -1.60579983232036e-18)
(0.661396670678045 0.736835465952755 0)
(0.703312660794359 0.701379787417946 3.00705967878988e-18)
(0.74544476667188 0.666181476843947 0)
(0.787879986871002 0.631346764990707 0)
(0.830598918926921 0.596854940429318 -5.39275415290461e-18)
(0.873568190765787 0.562668922704308 -8.02339936657093e-18)
(0.916751416693015 0.52874979881788 0)
(0.960111965825189 0.495055022799691 2.84418548332545e-18)
(1.00361353579637 0.461538680952326 1.91695571300794e-19)
(1.04721795013287 0.428153797018902 0)
(1.09089716176815 0.39486508651221 -2.4703310682808e-18)
(1.1346853758652 0.361717551836672 0)
(1.178683617902 0.328849570220026 1.96999188670697e-18)
(1.22301528925379 0.296427863177673 -6.49363796126917e-18)
(1.26780482684073 0.264637731453315 6.49989642556333e-18)
(1.31318330787349 0.233687708589976 3.95135777377533e-18)
(1.35928577078588 0.203820256800537 -2.10499092274028e-18)
(1.40625020317092 0.175323200610054 1.8503182806372e-18)
(1.45420864636133 0.148518436456898 1.9816976137471e-18)
(1.50322548731334 0.123687244554519 -1.92219492842311e-19)
(1.55329626627677 0.101042587277602 -1.92287316706914e-19)
(1.60438683447311 0.080788716980877 1.92354804548679e-19)
(1.6564398854385 0.0631348964155902 4.81136098108587e-18)
(1.70936934370431 0.0482892663943239 1.76583978092574e-18)
(1.76305436325985 0.0364506491695727 0)
(1.81734628665809 0.0277959772862505 1.53421014234569e-18)
(1.87206752076175 0.0224697663512243 0)
(1.92701743301596 0.0203941560291232 0)
(1.98203820984283 0.0201337299544788 1.71884296563904e-18)
(2.03706317147295 0.0201337299544788 0)
(2.09208813310307 0.0201337299544786 0)
(2.14711309473318 0.0201337299544787 6.68260820253945e-18)
(2.2021380563633 0.0201337299544788 0)
(2.25716301799342 0.0201337299544788 4.77100157688431e-18)
(2.31218797962354 0.0201337299544788 1.92763660016644e-19)
(2.36721294125365 0.0201337299544789 -4.96376523690082e-18)
(2.42223790288377 0.0201337299544787 0)
(2.47726286451388 0.0201337299544788 -1.71884296563902e-18)
(2.532287826144 0.0201337299544788 3.24492227126174e-18)
(2.58731278777412 0.020133729954479 1.92763660016645e-19)
(2.64233774940424 0.0201337299544789 0)
(2.69736271103435 0.0201337299544787 0)
(2.75238767266447 0.0201337299544788 -1.92763660016644e-19)
(2.80741263429459 0.0201337299544788 0)
(2.8624375959247 0.0201337299544787 6.29708088250669e-18)
(2.91746255755482 0.0201337299544788 -1.92763660016645e-19)
(2.97248751918494 0.0201337299544788 1.92763660016644e-19)
(3.02751248081505 0.0201337299544788 1.92763660016646e-19)
(3.08253744244517 0.0201337299544788 1.71884296563903e-18)
(3.13756240407528 0.0201337299544787 6.29708088250673e-18)
(3.1925873657054 0.0201337299544788 0)
(3.24761232733552 0.0201337299544788 0)
(3.30263728896564 0.0201337299544787 6.29708088250667e-18)
(3.35766225059575 0.0201337299544789 0)
(3.41268721222587 0.020133729954479 1.92763660016645e-19)
(3.46771217385599 0.0201337299544788 0)
(3.52273713548611 0.0201337299544788 1.92763660016646e-19)
(3.57776209711623 0.0201337299544788 0)
(3.63278705874634 0.0201337299544787 -1.71884296563917e-18)
(3.68781202037646 0.0201337299544788 0)
(3.74283698200658 0.0201337299544789 1.92763660016639e-19)
(3.79786194363669 0.0201337299544785 -3.43768593127813e-18)
(3.85288690526681 0.0201337299544788 -1.92763660016647e-19)
(3.90791186689693 0.0201337299544788 -1.52607930562237e-18)
(3.96293682852705 0.0201337299544788 0)
(4.01796179015717 0.0201337299544787 1.92763660016656e-19)
(4.07298256698403 0.0203941560291232 -1.71851046720455e-18)
(4.12793247923825 0.0224697663512241 -4.77164233674531e-18)
(4.1826537133419 0.02779597728625 0)
(4.23694563674014 0.036450649169572 0)
(4.29063065629568 0.0482892663943229 0)
(4.3435601145615 0.0631348964155893 1.79688286906784e-18)
(4.39561316552688 0.0807887169808752 5.11609203256164e-18)
(4.44670373372323 0.1010425872776 -9.00185184188846e-18)
(4.49677451268666 0.123687244554518 0)
(4.54579135363866 0.148518436456896 -7.54487463432983e-18)
(4.59374979682907 0.17532320061005 0)
(4.64071422921412 0.203820256800536 6.12583744981335e-18)
(4.68681669212651 0.233687708589973 0)
(4.73219517315927 0.264637731453313 -1.93560783810981e-19)
(4.77698471074621 0.29642786317767 2.10059166055162e-18)
(4.821316382098 0.328849570220026 1.96817117687782e-18)
(4.86531462413479 0.361717551836669 0)
(4.90910283823184 0.394865086512206 -2.27857808579795e-18)
(4.95278204986713 0.428153797018896 -4.8637322330342e-18)
(4.99638646420363 0.461538680952325 0)
(5.0398880341748 0.495055022799687 -5.30930830141956e-18)
(5.08324858330698 0.528749798817877 -5.25869133385147e-18)
(5.12643180923421 0.562668922704306 -5.41508237241154e-18)
(5.16940108107308 0.596854940429317 0)
(5.21212001312899 0.631346764990701 1.20134475139688e-18)
(5.25455523332812 0.666181476843949 0)
(5.29668733920564 0.701379787417943 -6.20820545499079e-18)
(5.33860332932195 0.736835465952754 -3.50424673541669e-18)
(5.38053122368962 0.772280157466923 1.60579983231984e-18)
(5.42274901652105 0.807387436005932 5.12952877997998e-18)
(5.46554342638707 0.841797457194467 -5.2157148855872e-18)
(5.50922339830242 0.875081994649503 7.14530680905635e-18)
(5.55415024807386 0.90667882480055 -1.88137074654681e-18)
(5.60073430130337 0.935786043120558 -1.47235600580581e-18)
(5.64938941778044 0.961253670665533 -5.07350171749731e-18)
(5.70036929353333 0.981607499425219 -6.50625729653098e-18)
(5.75336870021097 0.995959079265107 -3.47770413860846e-18)
(5.80762600807119 1.00468613931288 -1.93004506034086e-19)
(5.86245709410571 1.00891262342834 0)
(5.91746256092718 1.01006630589225 0)
(5.97248751918494 1.01006686497724 0)
(0.0275016182887733 1.01434676818499 0)
(0.0825048515289057 1.01434621151721 -1.92764231126918e-19)
(0.137488719465902 1.01319751692915 0)
(0.192298987927904 1.00898930558217 0)
(0.246537981151219 1.00029997658846 0)
(0.299524524727804 0.986010448243645 0)
(0.350500260256555 0.965744630532027 0)
(0.399161254204897 0.940387132182039 -3.83099426737736e-19)
(0.445760112193019 0.91140578188042 0)
(0.490708913534019 0.879945581480617 0)
(0.534416216221017 0.846804965091818 -5.0318593744061e-18)
(0.577241777805983 0.812543724563864 6.34297074004514e-18)
(0.619493209591314 0.777588234539786 -3.47812198808917e-18)
(0.661455991746014 0.742296783880171 -1.91287343889949e-19)
(0.703406917201826 0.706994388004507 -1.91344499114762e-19)
(0.745573021816925 0.671948244588681 -3.82823922263125e-19)
(0.788040931246152 0.63726412924014 -1.91473948380625e-19)
(0.830791327259091 0.602921420270492 -8.18168766477375e-18)
(0.873790981985066 0.568883197327818 0)
(0.917003666977213 0.535110715473606 5.26658075621115e-18)
(0.960392909695296 0.501561612494656 0)
(1.00392256466079 0.468190173081611 0)
(1.04755462038114 0.434949624000515 -2.25147551852707e-18)
(1.09126115070126 0.401804832940394 0)
(1.1350762113019 0.368800606420249 0)
(1.17910039038204 0.336074723151964 0)
(1.22345655584185 0.303793183912714 -1.83383019264334e-18)
(1.26826860639337 0.272140488668678 1.96610431932958e-18)
(1.31366705249679 0.241324269414343 -1.91962161090213e-19)
(1.35978634835746 0.211585940540449 6.11137050439722e-18)
(1.40676388473717 0.183212082290054 0)
(1.45473113195037 0.156523199936702 -9.20812025381202e-18)
(1.50375219978087 0.131799358308707 3.53803945737642e-18)
(1.55382264802097 0.109252599084713 -1.8174673687142e-18)
(1.60490847542027 0.0890862914614397 1.92355067052273e-19)
(1.6569526232148 0.0715087933341422 1.92422507450978e-19)
(1.70986938804173 0.0567273455493337 1.71074271150193e-18)
(1.7635384464066 0.0449399106622153 0)
(1.81781178371479 0.0363226561112457 1.48056984966079e-18)
(1.87251257483363 0.0310194726570569 -1.66561384564929e-18)
(1.92744105818432 0.0289528364307415 -6.08236550472785e-18)
(1.98244012331538 0.0286935363699744 0)
(2.03744335989293 0.0286935363699746 -1.47273160295974e-18)
(2.09244659647048 0.0286935363699747 0)
(2.14744983304802 0.0286935363699744 4.80372335924802e-18)
(2.20245306962557 0.0286935363699745 -6.27645496220738e-18)
(2.25745630620312 0.0286935363699747 0)
(2.31245954278066 0.0286935363699745 -1.47273160295988e-18)
(2.36746277935821 0.0286935363699746 1.66549587814396e-18)
(2.42246601593576 0.0286935363699747 1.66549587814409e-18)
(2.4774692525133 0.0286935363699745 0)
(2.53247248909085 0.0286935363699748 -2.84776876639009e-16)
(2.58747572566839 0.0286935363699746 -2.91815345187201e-16)
(2.64247896224594 0.0286935363699745 -1.92764275184227e-19)
(2.69748219882349 0.0286935363699747 0)
(2.75248543540103 0.0286935363699746 -7.94195084035141e-18)
(2.80748867197858 0.0286935363699746 1.66549587814396e-18)
(2.86249190855613 0.0286935363699746 0)
(2.91749514513367 0.0286935363699746 -1.47273160295974e-18)
(2.97249838171122 0.0286935363699746 0)
(3.02750161828877 0.0286935363699746 0)
(3.08250485486631 0.0286935363699746 0)
(3.13750809144386 0.0286935363699747 0)
(3.19251132802141 0.0286935363699745 -1.92764275184226e-19)
(3.24751456459896 0.0286935363699746 1.9276427518422e-19)
(3.3025178011765 0.0286935363699747 0)
(3.35752103775405 0.0286935363699745 -1.66549587814412e-18)
(3.41252427433159 0.0286935363699747 2.8311138076084e-16)
(3.46752751090914 0.0286935363699748 2.85731654500198e-16)
(3.52253074748669 0.0286935363699745 -1.47273160295989e-18)
(3.57753398406424 0.0286935363699746 0)
(3.63253722064178 0.0286935363699747 0)
(3.68754045721933 0.0286935363699745 -1.47273160295988e-18)
(3.74254369379688 0.0286935363699746 3.33099175628795e-18)
(3.79754693037442 0.0286935363699747 1.9276427518421e-19)
(3.85255016695197 0.0286935363699746 -6.27645496220735e-18)
(3.90755340352952 0.0286935363699746 0)
(3.96255664010707 0.0286935363699744 0)
(4.01755987668461 0.0286935363699747 0)
(4.07255894181568 0.0289528364307415 3.13758028252047e-18)
(4.12748742516637 0.0310194726570565 0)
(4.1821882162852 0.0363226561112453 0)
(4.23646155359339 0.0449399106622147 1.68886009042108e-18)
(4.29013061195827 0.056727345549333 1.7112857824001e-18)
(4.3430473767852 0.0715087933341413 0)
(4.39509152457973 0.0890862914614391 -1.9315896876515e-19)
(4.44617735197903 0.109252599084711 0)
(4.49624780021913 0.131799358308705 0)
(4.54526886804963 0.156523199936699 -1.91967770907763e-18)
(4.59323611526283 0.183212082290051 -4.14984091776447e-18)
(4.64021365164254 0.211585940540448 -2.03856556174177e-18)
(4.68633294750321 0.241324269414338 -1.93513297052904e-19)
(4.73173139360663 0.272140488668678 1.93560132850471e-19)
(4.77654344415815 0.303793183912709 4.24498854095292e-18)
(4.82089960961796 0.336074723151958 1.93640773596848e-19)
(4.8649237886981 0.368800606420246 -2.14177891809166e-18)
(4.90873884929874 0.401804832940394 4.58791932549918e-18)
(4.95244537961886 0.434949624000515 2.25147551852565e-18)
(4.9960774353392 0.468190173081605 2.50325708736471e-18)
(5.0396070903047 0.501561612494655 -2.5665231492245e-18)
(5.08299633302279 0.535110715473605 4.88333606632794e-18)
(5.12620901801493 0.568883197327814 0)
(5.16920867274091 0.60292142027049 -1.9391292249568e-19)
(5.21195906875385 0.637264129240139 0)
(5.25442697818307 0.671948244588677 -1.39503626116392e-18)
(5.29659308279818 0.706994388004508 -5.7972207309668e-18)
(5.33854400825398 0.742296783880166 -1.94137582282161e-19)
(5.38050679040868 0.777588234539786 3.09562129448645e-18)
(5.42275822219401 0.812543724563862 3.55986375894768e-18)
(5.46558378377898 0.846804965091815 8.26185762621131e-18)
(5.50929108646598 0.879945581480615 -8.33691336471638e-18)
(5.55423988780697 0.911405781880416 1.82097200572069e-18)
(5.6008387457951 0.940387132182039 -1.60693031266839e-18)
(5.64949973974344 0.965744630532025 -8.23245232301224e-18)
(5.70047547527219 0.986010448243644 -3.23875515026401e-18)
(5.75346201884878 1.00029997658846 0)
(5.8077010120721 1.00898930558217 1.93005155603574e-19)
(5.8625112805341 1.01319751692915 0)
(5.91749514847109 1.01434621151721 0)
(5.97249838171123 1.01434676818499 0)
(0.0274903578373389 1.01878345638711 0)
(0.0824710702108083 1.0187829022251 0)
(0.137432548034872 1.01763937824062 -7.49463869144077e-18)
(0.192221236316943 1.01345010908102 -3.23630922982109e-18)
(0.246441243984128 1.0047998934279 0)
(0.299414453243676 0.990574689855907 -3.13016462196242e-18)
(0.350385896875927 0.970400107452638 0)
(0.399052983602894 0.945156772728105 -1.12308730946155e-17)
(0.445667188691753 0.91630590135786 3.13730944195415e-18)
(0.490638745753674 0.884987335821303 0)
(0.534374380419267 0.851995912714867 -3.30197181805037e-18)
(0.577232234902195 0.817888903106984 6.11389172824844e-18)
(0.619518537935126 0.783090762073711 9.33373703095067e-18)
(0.661517485919499 0.747958165975219 2.89495079460158e-18)
(0.703504626500227 0.712814668013945 1.91344391217137e-19)
(0.745705975328474 0.677926266146256 -8.45143557974732e-18)
(0.788207771492396 0.643398264139671 -1.91473770298435e-19)
(0.830990784081528 0.609210133336385 0)
(0.874021934710884 0.575325119356551 2.61819204430784e-18)
(0.917265157941748 0.541704651480207 -2.54573517617114e-18)
(0.960684145377656 0.508306557984794 2.47937973938314e-18)
(1.00424291417479 0.475085329218257 2.41850107900001e-18)
(1.04790362386547 0.441994402408449 -2.36262798265308e-18)
(1.09163847363546 0.40899880299506 2.11851739364319e-18)
(1.13548136420697 0.376143134430395 -2.25700295086617e-18)
(1.17953243048087 0.343564554981574 -2.0101921412742e-18)
(1.22391398733917 0.311428318281062 0)
(1.26874937556954 0.279918094181664 -1.89608197630361e-18)
(1.31416851811955 0.249240580098009 0)
(1.36030526356408 0.219636104214059 -5.53092419193721e-18)
(1.40729638396979 0.191389956904971 -1.91370450428945e-18)
(1.45527275771504 0.164821201320375 1.9215113279555e-19)
(1.50429820725864 0.140208642393245 -5.22628232442063e-18)
(1.55436831265185 0.117763367384789 -3.5206072123948e-18)
(1.60544922557726 0.0976878299861692 3.05551805685439e-18)
(1.65748414404521 0.0801894500938928 4.86475924360674e-18)
(1.71038775043036 0.0654745356263091 0)
(1.76404026289617 0.0537401579541104 -3.07971155562141e-18)
(1.81829433325002 0.0451616913849817 4.28647672530586e-18)
(1.8729739324982 0.0398823789491972 0)
(1.92788020194406 0.0378250455692123 9.29674526556004e-18)
(1.98285676001846 0.0375669127742231 -3.03530409266177e-18)
(2.03783747569313 0.0375669127742232 0)
(2.09281819136781 0.037566912774223 0)
(2.14779890704249 0.0375669127742231 0)
(2.20277962271717 0.037566912774223 -1.92764913400378e-19)
(2.25776033839185 0.0375669127742231 0)
(2.31274105406652 0.0375669127742231 0)
(2.3677217697412 0.037566912774223 0)
(2.42270248541588 0.037566912774223 0)
(2.47768320109055 0.0375669127742232 0)
(2.53266391676523 0.0375669127742232 2.78137348392601e-16)
(2.58764463243991 0.037566912774223 2.76982660353241e-16)
(2.64262534811459 0.0375669127742231 2.84253917926143e-18)
(2.69760606378926 0.037566912774223 1.92764913400378e-19)
(2.75258677946394 0.0375669127742231 0)
(2.80756749513863 0.037566912774223 0)
(2.8625482108133 0.0375669127742231 0)
(2.91752892648798 0.037566912774223 3.03530409266152e-18)
(2.97250964216266 0.037566912774223 1.61403450303081e-18)
(3.02749035783734 0.037566912774223 0)
(3.08247107351201 0.037566912774223 1.42126958963058e-18)
(3.13745178918669 0.037566912774223 0)
(3.19243250486137 0.0375669127742231 -4.26380876889211e-18)
(3.24741322053604 0.0375669127742231 3.22806900606161e-18)
(3.30239393621072 0.037566912774223 0)
(3.3573746518854 0.0375669127742231 -1.6140345030311e-18)
(3.41235536756008 0.0375669127742231 -2.77751818565803e-16)
(3.46733608323476 0.037566912774223 -2.75368625850209e-16)
(3.52231679890944 0.0375669127742231 0)
(3.57729751458411 0.0375669127742229 0)
(3.63227823025879 0.0375669127742229 3.22806900606186e-18)
(3.68725894593347 0.0375669127742232 -1.61403450303095e-18)
(3.74223966160815 0.0375669127742229 0)
(3.79722037728282 0.037566912774223 0)
(3.8522010929575 0.0375669127742231 0)
(3.90718180863218 0.037566912774223 0)
(3.96216252430686 0.0375669127742231 -4.26380876889202e-18)
(4.01714323998154 0.0375669127742231 0)