/*--------------------------------*- C++ -*----------------------------------*\
  =========                 |
  \\      /  F ield         | OpenFOAM: The Open Source CFD Toolbox
   \\    /   O peration     | Website:  https://openfoam.org
    \\  /    A nd           | Version:  7
     \\/     M anipulation  |
\*---------------------------------------------------------------------------*/
FoamFile
{
    version     2.0;
    format      ascii;
    class       volScalarField;
    location    "0";
    object      k_LES;
}
// * * * * * * * * * * * * * * * * * * * * * * * * * * * * * * * * * * * * * //

dimensions      [0 2 -2 0 0 0 0];

internalField   nonuniform List<scalar>
15600
(
0.00438961
0.00484478
0.00414764
0.00116974
0.00058193
0.00073535
0.00054204
0.00078064
0.00256684
0.00316066
0.00244415
0.00033168
0.00067525
0.00132868
0.00074544
0.00097546
0.00077155
0.00059704
0.00050333
0.00059381
0.00041476
0.00053508
0.00051611
0.00020426
0.00037556
0.00045409
0.00037200
0.00047342
0.00035801
0.00057490
0.00083174
0.00117992
0.00116096
0.00088136
0.00105590
0.00081519
0.00124648
0.00112456
0.00133194
0.00140038
0.00103464
0.00110056
0.00125551
0.00141910
0.00146593
0.00154432
0.00163444
0.00172408
0.00178750
0.00185277
0.00192206
0.00200699
0.00207432
0.00221859
0.00217798
0.00218941
0.00221674
0.00228732
0.00227023
0.00229614
0.00237223
0.00235588
0.00243974
0.00244050
0.00240937
0.00241679
0.00241003
0.00242278
0.00233972
0.00240569
0.00237168
0.00238668
0.00236939
0.00237745
0.00235661
0.00235583
0.00236890
0.00240543
0.00248782
0.00284812
0.00430908
0.00267785
0.00116559
0.00161320
0.00043345
-0.00005669
0.00018801
0.00146681
0.00052446
-0.00042712
0.00003635
-0.00023516
-0.00001143
0.00010866
-0.00016948
-0.00078084
-0.00028157
-0.00050596
-0.00033010
-0.00013353
0.00006086
-0.00017462
0.00000928
0.00029865
-0.00009373
-0.00010602
-0.00035439
-0.00036126
-0.00075095
0.00007700
0.00105374
0.00021271
-0.00134567
-0.00030356
-0.00101845
0.00129242
0.00090119
0.00266515
0.00389153
0.00420799
0.01130362
0.01208491
0.01093542
0.00601483
0.00353745
0.00268372
0.00238579
0.00211435
0.00552881
0.00639880
0.00499076
0.00186381
0.00273764
0.00275671
0.00249848
0.00227591
0.00238376
0.00216865
0.00188230
0.00209073
0.00194017
0.00206613
0.00184102
0.00163204
0.00196261
0.00216938
0.00229307
0.00267057
0.00265766
0.00296456
0.00341821
0.00391406
0.00379980
0.00371139
0.00395652
0.00413566
0.00445040
0.00435052
0.00501402
0.00478570
0.00466253
0.00514118
0.00569028
0.00617739
0.00656515
0.00692872
0.00721176
0.00751584
0.00781995
0.00810527
0.00842271
0.00870120
0.00900329
0.00920053
0.00933555
0.00944567
0.00950639
0.00969957
0.00983842
0.00991141
0.01008884
0.01012961
0.01025397
0.01038512
0.01039375
0.01037047
0.01034636
0.01033853
0.01021497
0.01023033
0.01028738
0.01038838
0.01037809
0.01039095
0.01039209
0.01038865
0.01046585
0.01070320
0.01106546
0.01164202
0.01299399
0.01160828
0.01043601
0.01099689
0.00924753
0.00791645
0.00711804
0.01071780
0.00939413
0.00236905
0.00548712
0.00421452
0.00386145
0.00505530
0.00237752
0.00083523
0.00197978
0.00283004
0.00478345
0.00219189
0.00481996
0.00201651
0.00265167
0.00495803
0.00227163
0.00238339
0.00262270
0.00069990
0.00029001
0.00427657
0.00784383
0.00645957
-0.00090953
0.00149772
0.00330850
0.00666349
0.00739901
0.00923885
0.01031396
0.01090874
0.02138621
0.02240596
0.02085415
0.01419858
0.00926920
0.00632421
0.00519798
0.00475795
0.00850159
0.00878888
0.00789617
0.00501897
0.00545862
0.00511250
0.00476509
0.00422167
0.00438275
0.00408937
0.00378012
0.00391445
0.00389536
0.00393396
0.00388268
0.00397090
0.00429640
0.00445296
0.00477351
0.00520205
0.00522433
0.00541363
0.00626942
0.00649724
0.00652707
0.00656172
0.00678829
0.00707674
0.00732036
0.00754887
0.00790491
0.00800326
0.00844294
0.00928238
0.01009525
0.01080573
0.01145641
0.01200493
0.01245270
0.01291068
0.01339016
0.01391374
0.01437472
0.01477702
0.01520537
0.01553120
0.01575645
0.01602782
0.01621517
0.01645370
0.01671326
0.01686862
0.01709004
0.01720007
0.01740146
0.01762123
0.01769132
0.01767783
0.01766386
0.01763574
0.01755401
0.01753645
0.01769193
0.01784665
0.01788444
0.01795365
0.01799635
0.01803965
0.01832869
0.01867988
0.01915675
0.01959528
0.02011574
0.01982203
0.01983416
0.02024874
0.01992004
0.02021460
0.02024541
0.02210970
0.02173383
0.01815894
0.01923909
0.01976915
0.01834525
0.01562383
0.01387271
0.01358950
0.01330118
0.01531037
0.01662133
0.01228157
0.01485609
0.00982449
0.01234095
0.01313380
0.00844042
0.01062797
0.01154511
0.00812739
0.00866645
0.01596534
0.02467689
0.01948841
0.00804369
0.01122243
0.01648682
0.01764181
0.01951972
0.02119641
0.02090396
0.02100864
0.03146663
0.03236943
0.03178503
0.02592904
0.01797313
0.01107172
0.00861021
0.00832622
0.01023443
0.01044425
0.00986264
0.00825648
0.00750405
0.00707474
0.00683586
0.00605795
0.00625024
0.00593372
0.00579842
0.00573905
0.00573492
0.00582303
0.00589020
0.00601323
0.00639361
0.00666214
0.00697181
0.00733093
0.00761395
0.00783380
0.00845003
0.00864478
0.00872083
0.00894237
0.00918316
0.00949600
0.00963941
0.00995536
0.01022834
0.01057286
0.01133751
0.01232889
0.01324347
0.01407763
0.01483237
0.01547281
0.01599889
0.01657843
0.01718638
0.01782757
0.01838571
0.01887827
0.01940696
0.01979327
0.02012181
0.02047535
0.02072615
0.02102293
0.02137040
0.02160927
0.02187245
0.02203921
0.02231713
0.02258200
0.02268396
0.02269753
0.02273444
0.02271929
0.02265443
0.02268450
0.02286489
0.02306397
0.02317422
0.02327430
0.02337502
0.02353616
0.02386220
0.02431352
0.02479591
0.02507609
0.02535497
0.02562239
0.02613551
0.02673185
0.02714498
0.02805220
0.02909852
0.03054157
0.03076507
0.02941748
0.03046682
0.03095612
0.03154722
0.03020367
0.02982254
0.02966866
0.03022424
0.03218035
0.03163550
0.02856180
0.02980310
0.02481220
0.02699913
0.02785706
0.02346937
0.02439069
0.02580404
0.02612033
0.02084335
0.03601708
0.04439433
0.04044178
0.02421506
0.03028469
0.03595196
0.03491317
0.03433062
0.03438112
0.03232562
0.03126178
0.03921205
0.03953565
0.03930583
0.03643226
0.02737024
0.01662365
0.01170033
0.01090965
0.01165997
0.01220335
0.01171664
0.01030554
0.00934772
0.00907434
0.00845662
0.00811482
0.00776036
0.00755264
0.00754402
0.00735808
0.00744257
0.00759826
0.00772634
0.00793896
0.00829048
0.00855611
0.00880774
0.00917119
0.00947024
0.00972451
0.01005887
0.01013251
0.01037107
0.01058895
0.01080975
0.01108960
0.01133266
0.01167741
0.01200160
0.01254098
0.01345523
0.01449797
0.01544657
0.01633944
0.01715524
0.01783467
0.01844879
0.01910810
0.01982686
0.02055423
0.02117585
0.02170733
0.02230335
0.02274326
0.02312430
0.02356192
0.02387559
0.02421098
0.02460101
0.02491653
0.02523066
0.02545163
0.02579631
0.02607253
0.02617370
0.02622749
0.02630201
0.02629819
0.02625844
0.02634963
0.02651661
0.02676400
0.02693061
0.02709421
0.02725906
0.02747161
0.02783495
0.02828176
0.02874471
0.02897020
0.02916592
0.02969189
0.03036747
0.03126405
0.03231009
0.03350997
0.03477793
0.03614980
0.03716404
0.03759512
0.03817326
0.03913285
0.03984460
0.04049631
0.04029193
0.04012950
0.04168964
0.04362493
0.04368516
0.04345574
0.04405728
0.04272547
0.04314148
0.04438836
0.04103744
0.04202467
0.04144409
0.04365550
0.04348737
0.04870845
0.05658293
0.05806440
0.04395858
0.04876621
0.05014647
0.05169183
0.04953395
0.04531089
0.04178330
0.03968716
0.04527937
0.04503801
0.04441808
0.04323011
0.03547407
0.02305940
0.01442870
0.01285095
0.01329281
0.01364393
0.01291389
0.01176772
0.01088530
0.01042949
0.00998943
0.00964028
0.00919951
0.00906301
0.00903632
0.00886066
0.00898291
0.00911057
0.00929711
0.00950858
0.00977155
0.01001058
0.01028952
0.01051063
0.01068828
0.01099671
0.01127927
0.01132984
0.01150289
0.01173544
0.01197112
0.01225308
0.01255537
0.01294443
0.01336770
0.01403190
0.01502479
0.01607874
0.01704953
0.01798491
0.01882896
0.01954055
0.02022778
0.02097352
0.02178603
0.02258378
0.02324070
0.02380351
0.02444201
0.02492487
0.02535248
0.02584077
0.02622163
0.02658760
0.02700771
0.02739130
0.02773220
0.02801223
0.02839499
0.02865763
0.02875885
0.02886352
0.02895246
0.02894627
0.02894315
0.02908442
0.02925340
0.02954431
0.02974886
0.03000162
0.03022099
0.03044761
0.03078530
0.03121497
0.03166932
0.03187063
0.03205216
0.03270107
0.03357364
0.03467319
0.03590858
0.03730773
0.03874472
0.04025539
0.04144151
0.04256629
0.04374234
0.04502427
0.04600080
0.04712607
0.04798611
0.04820739
0.04906169
0.05063233
0.05159726
0.05183290
0.05274366
0.05269483
0.05386483
0.05485238
0.05442423
0.05562794
0.05463766
0.05654500
0.05859728
0.06103197
0.06384316
0.06422825
0.06274784
0.06163178
0.06347358
0.06093857
0.05729815
0.05285187
0.04904015
0.04644264
0.05050199
0.04992413
0.04904755
0.04712789
0.04208824
0.03046319
0.01846434
0.01495602
0.01482514
0.01489747
0.01430383
0.01343604
0.01248081
0.01174992
0.01130939
0.01092447
0.01048235
0.01034067
0.01024002
0.01016045
0.01021706
0.01034743
0.01046856
0.01068356
0.01087697
0.01110480
0.01127034
0.01149965
0.01161994
0.01186814
0.01208715
0.01217709
0.01232163
0.01254783
0.01280850
0.01310662
0.01346702
0.01391531
0.01443883
0.01519529
0.01623157
0.01728017
0.01827671
0.01926425
0.02012179
0.02086807
0.02162637
0.02244056
0.02332615
0.02417544
0.02486768
0.02546617
0.02613054
0.02665072
0.02712071
0.02764155
0.02807538
0.02846666
0.02891429
0.02933319
0.02969371
0.03002937
0.03045156
0.03070302
0.03079964
0.03092831
0.03100791
0.03103356
0.03105271
0.03122474
0.03140184
0.03172232
0.03196806
0.03229438
0.03255207
0.03278508
0.03308828
0.03347686
0.03391217
0.03413020
0.03431234
0.03505052
0.03604865
0.03726602
0.03863631
0.04014488
0.04172695
0.04329636
0.04471860
0.04635021
0.04763194
0.04893591
0.05017906
0.05153272
0.05256500
0.05375572
0.05476931
0.05643817
0.05751218
0.05828426
0.05860314
0.05955412
0.06009455
0.06160954
0.06110085
0.06294621
0.06345726
0.06251468
0.06535365
0.06846563
0.07173124
0.06935578
0.07247327
0.07033580
0.07023103
0.06569526
0.06178580
0.05796361
0.05441044
0.05196416
0.05445571
0.05364071
0.05276554
0.05110803
0.04732633
0.03806908
0.02400745
0.01750073
0.01644235
0.01624406
0.01550176
0.01457750
0.01371640
0.01299204
0.01245432
0.01197470
0.01156307
0.01137858
0.01130047
0.01115581
0.01124824
0.01129737
0.01137053
0.01158577
0.01170831
0.01189121
0.01206374
0.01217345
0.01226649
0.01250311
0.01267242
0.01275501
0.01290401
0.01314374
0.01342416
0.01376683
0.01418883
0.01469072
0.01530161
0.01612946
0.01718912
0.01823813
0.01926707
0.02030093
0.02118330
0.02197650
0.02280008
0.02367186
0.02460463
0.02548221
0.02622662
0.02685364
0.02752753
0.02808380
0.02859378
0.02914229
0.02960036
0.03003172
0.03050541
0.03092090
0.03130191
0.03168144
0.03213388
0.03238688
0.03248987
0.03262275
0.03268451
0.03274788
0.03278848
0.03297295
0.03316914
0.03349633
0.03375192
0.03413829
0.03441806
0.03465744
0.03492322
0.03527608
0.03568921
0.03592175
0.03613148
0.03693881
0.03801843
0.03930764
0.04077378
0.04238801
0.04401001
0.04566531
0.04728526
0.04891451
0.05034080
0.05196643
0.05348399
0.05491561
0.05627609
0.05747757
0.05871875
0.06051374
0.06132417
0.06207876
0.06401301
0.06454491
0.06553023
0.06564016
0.06683124
0.06713320
0.06821920
0.06813016
0.07186034
0.07230908
0.07491762
0.07649329
0.07604122
0.07569259
0.07224449
0.06919368
0.06489083
0.06124259
0.05814166
0.05592844
0.05698320
0.05602618
0.05520762
0.05439787
0.05139048
0.04454000
0.03033413
0.02070130
0.01836124
0.01769776
0.01673528
0.01571055
0.01481847
0.01402296
0.01339594
0.01289202
0.01244741
0.01231815
0.01216734
0.01201593
0.01204417
0.01205517
0.01208191
0.01219215
0.01232042
0.01247033
0.01258631
0.01267042
0.01275318
0.01296581
0.01312152
0.01318935
0.01334227
0.01360077
0.01391588
0.01429670
0.01476975
0.01533559
0.01602019
0.01690869
0.01798068
0.01904530
0.02010785
0.02118797
0.02211352
0.02295670
0.02383705
0.02476057
0.02571325
0.02660612
0.02739474
0.02805706
0.02873502
0.02932444
0.02987969
0.03045010
0.03089888
0.03137828
0.03189203
0.03228050
0.03268522
0.03309064
0.03356955
0.03382760
0.03394595
0.03406330
0.03410214
0.03420634
0.03426046
0.03446697
0.03466758
0.03498124
0.03523592
0.03565516
0.03594772
0.03619688
0.03642679
0.03674835
0.03713204
0.03739814
0.03762478
0.03849221
0.03963712
0.04097798
0.04249774
0.04418141
0.04584497
0.04758242
0.04927922
0.05088808
0.05250037
0.05412198
0.05588912
0.05745520
0.05878079
0.06037532
0.06189083
0.06339924
0.06470214
0.06541145
0.06690181
0.06790801
0.06818231
0.07058750
0.07018855
0.07221155
0.07245129
0.07285991
0.07550406
0.07587915
0.07686455
0.08145727
0.07881130
0.07785354
0.07425892
0.07133421
0.06718961
0.06334697
0.06035980
0.05833920
0.05855871
0.05761409
0.05679305
0.05615192
0.05433062
0.04977860
0.03708537
0.02482869
0.02068135
0.01932886
0.01806964
0.01686094
0.01587311
0.01492468
0.01432338
0.01371281
0.01329453
0.01305540
0.01288615
0.01271389
0.01267427
0.01264364
0.01260748
0.01268236
0.01276757
0.01287430
0.01297131
0.01302540
0.01310987
0.01329356
0.01344689
0.01352452
0.01368345
0.01397954
0.01433062
0.01475597
0.01527926
0.01590037
0.01664535
0.01757822
0.01866335
0.01976721
0.02086083
0.02197752
0.02296404
0.02385923
0.02479297
0.02575473
0.02671322
0.02761393
0.02843226
0.02913987
0.02982163
0.03043548
0.03103593
0.03162011
0.03206003
0.03257288
0.03313159
0.03348799
0.03391950
0.03433153
0.03481197
0.03509610
0.03523602
0.03533517
0.03535926
0.03549444
0.03555534
0.03577227
0.03596228
0.03625996
0.03650065
0.03692701
0.03724364
0.03750025
0.03769524
0.03798721
0.03831840
0.03864369
0.03888965
0.03981247
0.04103253
0.04238302
0.04394542
0.04565966
0.04739133
0.04913419
0.05082693
0.05245008
0.05410661
0.05584711
0.05773133
0.05936653
0.06080215
0.06233270
0.06391111
0.06567866
0.06708675
0.06823423
0.06928144
0.07050088
0.07120457
0.07287672
0.07351229
0.07402498
0.07612099
0.07662464
0.07740593
0.07858110
0.07941407
0.08237115
0.08007825
0.07902581
0.07593429
0.07242081
0.06847677
0.06477137
0.06178436
0.05984129
0.05965431
0.05875048
0.05798803
0.05730746
0.05633226
0.05370375
0.04380280
0.02986626
0.02351968
0.02122568
0.01955413
0.01803044
0.01685777
0.01585963
0.01512439
0.01449791
0.01401292
0.01371606
0.01350118
0.01328943
0.01316927
0.01308076
0.01301527
0.01303996
0.01310761
0.01318497
0.01324744
0.01330532
0.01338277
0.01354190
0.01370118
0.01379552
0.01396621
0.01430954
0.01469677
0.01517728
0.01574853
0.01641465
0.01720700
0.01817086
0.01928621
0.02044269
0.02156527
0.02270610
0.02376348
0.02471376
0.02569225
0.02668817
0.02765147
0.02855006
0.02938279
0.03014394
0.03082541
0.03146496
0.03209669
0.03269995
0.03313998
0.03365455
0.03426080
0.03459461
0.03504085
0.03545412
0.03590849
0.03624301
0.03640671
0.03649663
0.03652301
0.03666890
0.03673005
0.03693130
0.03709213
0.03739049
0.03761342
0.03801835
0.03838860
0.03863759
0.03879430
0.03905056
0.03933149
0.03972167
0.04000605
0.04096698
0.04225504
0.04360552
0.04519007
0.04691478
0.04869176
0.05042717
0.05207463
0.05369598
0.05539501
0.05723654
0.05910314
0.06082908
0.06232815
0.06387597
0.06554012
0.06737396
0.06895446
0.07023337
0.07128717
0.07250564
0.07368851
0.07452291
0.07542138
0.07604158
0.07769600
0.07954777
0.07981510
0.08032500
0.08104909
0.07926331
0.08059259
0.07946667
0.07719883
0.07355341
0.06954785
0.06594330
0.06288753
0.06093410
0.06033167
0.05941792
0.05870850
0.05824964
0.05759541
0.05639559
0.04970723
0.03562331
0.02693724
0.02351176
0.02124918
0.01935725
0.01792852
0.01674061
0.01591664
0.01522279
0.01468357
0.01428865
0.01402862
0.01377394
0.01359359
0.01344585
0.01334246
0.01332471
0.01335683
0.01340976
0.01347346
0.01353009
0.01360477
0.01375511
0.01392326
0.01403654
0.01423187
0.01460766
0.01503663
0.01556953
0.01619552
0.01689587
0.01773056
0.01872604
0.01988904
0.02109086
0.02225543
0.02340938
0.02453977
0.02554199
0.02655601
0.02758843
0.02854805
0.02943860
0.03028672
0.03109575
0.03178238
0.03244738
0.03309945
0.03371051
0.03416161
0.03466968
0.03528320
0.03562766
0.03607722
0.03649534
0.03691300
0.03730106
0.03750216
0.03759436
0.03762902
0.03776698
0.03782615
0.03799125
0.03811593
0.03842040
0.03862187
0.03900146
0.03941834
0.03964765
0.03978258
0.03999706
0.04024667
0.04067075
0.04101825
0.04201776
0.04334245
0.04469384
0.04626611
0.04797563
0.04978017
0.05144658
0.05306583
0.05470524
0.05641480
0.05833060
0.06019069
0.06194425
0.06356619
0.06513290
0.06681280
0.06864583
0.07027897
0.07175089
0.07292220
0.07412538
0.07540389
0.07618491
0.07745926
0.07848183
0.07940288
0.08091688
0.08092518
0.08142667
0.08194792
0.07909545
0.08177862
0.08004782
0.07772901
0.07455976
0.07060262
0.06689508
0.06377599
0.06168924
0.06077318
0.05978386
0.05907815
0.05873635
0.05840976
0.05817180
0.05443663
0.04185892
0.03106314
0.02626060
0.02324538
0.02087476
0.01911045
0.01771308
0.01671468
0.01594280
0.01532352
0.01484330
0.01451283
0.01420439
0.01396185
0.01376074
0.01361689
0.01355486
0.01356261
0.01359701
0.01365863
0.01373057
0.01380305
0.01395801
0.01413637
0.01426484
0.01449202
0.01489688
0.01536818
0.01594886
0.01662711
0.01735981
0.01823992
0.01927621
0.02048838
0.02172573
0.02294543
0.02410762
0.02529689
0.02636364
0.02741774
0.02846309
0.02941781
0.03029746
0.03117126
0.03201321
0.03270946
0.03339145
0.03406572
0.03466958
0.03515194
0.03565127
0.03621738
0.03661099
0.03704577
0.03748389
0.03787500
0.03829572
0.03855711
0.03865219
0.03869781
0.03882056
0.03888637
0.03899137
0.03909195
0.03937970
0.03956425
0.03991180
0.04035007
0.04055258
0.04069160
0.04087330
0.04111657
0.04153918
0.04195662
0.04298806
0.04430422
0.04566576
0.04718963
0.04887172
0.05065695
0.05224708
0.05388607
0.05552904
0.05722532
0.05919482
0.06103778
0.06282087
0.06447020
0.06608468
0.06782057
0.06960133
0.07129743
0.07275400
0.07397454
0.07524006
0.07663053
0.07764634
0.07883057
0.08014869
0.08101825
0.08173388
0.08176779
0.08190639
0.08186399
0.08092631
0.08293441
0.08052597
0.07807329
0.07480709
0.07124755
0.06765900
0.06451601
0.06223863
0.06111528
0.06000552
0.05925821
0.05891799
0.05887013
0.05924482
0.05783881
0.04806543
0.03585727
0.02950075
0.02559663
0.02264088
0.02046261
0.01877930
0.01757611
0.01669442
0.01596694
0.01539330
0.01498234
0.01461038
0.01430313
0.01405924
0.01386146
0.01375931
0.01373224
0.01376454
0.01383196
0.01391140
0.01399426
0.01415860
0.01434688
0.01449858
0.01476234
0.01519628
0.01571106
0.01632876
0.01704881
0.01783540
0.01876115
0.01984277
0.02109158
0.02236678
0.02363556
0.02481985
0.02605643
0.02719619
0.02829366
0.02932345
0.03027291
0.03115724
0.03206096
0.03291460
0.03362347
0.03432121
0.03500035
0.03560533
0.03612003
0.03660040
0.03711042
0.03755364
0.03798128
0.03843948
0.03881451
0.03925370
0.03957175
0.03966147
0.03974773
0.03985348
0.03992117
0.03996770
0.04003269
0.04029894
0.04047334
0.04077597
0.04120530
0.04138721
0.04154747
0.04170800
0.04195610
0.04236845
0.04284801
0.04388732
0.04516508
0.04650942
0.04797682
0.04961275
0.05133511
0.05288001
0.05456728
0.05618233
0.05787693
0.05985537
0.06168360
0.06345037
0.06517687
0.06683003
0.06857973
0.07035443
0.07200264
0.07346300
0.07472485
0.07604837
0.07740953
0.07860855
0.07971832
0.08096953
0.08217949
0.08232006
0.08241024
0.08247504
0.08311026
0.08291503
0.08335541
0.08076783
0.07813119
0.07500537
0.07163376
0.06824923
0.06511813
0.06274042
0.06139646
0.06015181
0.05930960
0.05894605
0.05902025
0.05975603
0.06009336
0.05366246
0.04117443
0.03328973
0.02839031
0.02472173
0.02203866
0.01999333
0.01854480
0.01749971
0.01665346
0.01596437
0.01546488
0.01502174
0.01464013
0.01434728
0.01410390
0.01396524
0.01390693
0.01393470
0.01399927
0.01409192
0.01418797
0.01436689
0.01457259
0.01475704
0.01506074
0.01551714
0.01607917
0.01672441
0.01747911
0.01833836
0.01930027
0.02042838
0.02170361
0.02302405
0.02432500
0.02556597
0.02684718
0.02803552
0.02917973
0.03019668
0.03114239
0.03204504
0.03296974
0.03381307
0.03452996
0.03525183
0.03592334
0.03653885
0.03705579
0.03752597
0.03800945
0.03848749
0.03891526
0.03938041
0.03973969
0.04020119
0.04053292
0.04063993
0.04077673
0.04086920
0.04092807
0.04094922
0.04096492
0.04119361
0.04136016
0.04161155
0.04201734
0.04219307
0.04236384
0.04253171
0.04277045
0.04318749
0.04371287
0.04471711
0.04596678
0.04725323
0.04865956
0.05024799
0.05188137
0.05341382
0.05513662
0.05671932
0.05839477
0.06034327
0.06216698
0.06393743
0.06568911
0.06732937
0.06913176
0.07088265
0.07259963
0.07398315
0.07523397
0.07653479
0.07802395
0.07923361
0.08019023
0.08125414
0.08199015
0.08262349
0.08258349
0.08255710
0.08365976
0.08355202
0.08258372
0.08041909
0.07799735
0.07518221
0.07193281
0.06865198
0.06561690
0.06316608
0.06163491
0.06025679
0.05930029
0.05884712
0.05897172
0.05987961
0.06134503
0.05822996
0.04687798
0.03758981
0.03163413
0.02716767
0.02387725
0.02140618
0.01964994
0.01840657
0.01740013
0.01659129
0.01596521
0.01545626
0.01500501
0.01465268
0.01435899
0.01419274
0.01410285
0.01411960
0.01417704
0.01428604
0.01440176
0.01459271
0.01482123
0.01504808
0.01539239
0.01587583
0.01647734
0.01716115
0.01794613
0.01887747
0.01986433
0.02103978
0.02233452
0.02369479
0.02502452
0.02633778
0.02767446
0.02888612
0.03006447
0.03110067
0.03204226
0.03297214
0.03388100
0.03472121
0.03544897
0.03618064
0.03685900
0.03748937
0.03798249
0.03844808
0.03893232
0.03945193
0.03986370
0.04032757
0.04068044
0.04115410
0.04147455
0.04160680
0.04176667
0.04186770
0.04191710
0.04195034
0.04193395
0.04208281
0.04222825
0.04243937
0.04281920
0.04299358
0.04315830
0.04334882
0.04359180
0.04401475
0.04457196
0.04551982
0.04672406
0.04793781
0.04927287
0.05081031
0.05236188
0.05389908
0.05560361
0.05717078
0.05882211
0.06071934
0.06253223
0.06431272
0.06603402
0.06771331
0.06951650
0.07127000
0.07293860
0.07432092
0.07560684
0.07699949
0.07819980
0.07947661
0.08026257
0.08130277
0.08220850
0.08269557
0.08264242
0.08243482
0.08270277
0.08234253
0.08147783
0.07997961
0.07770627
0.07492756
0.07196466
0.06892982
0.06599537
0.06352038
0.06184579
0.06034069
0.05927245
0.05869773
0.05878679
0.05974847
0.06185658
0.06156829
0.05258148
0.04234988
0.03537520
0.02999013
0.02603512
0.02308403
0.02095160
0.01944261
0.01825126
0.01729528
0.01652099
0.01593972
0.01541309
0.01499393
0.01465362
0.01445364
0.01433312
0.01432402
0.01438053
0.01450366
0.01464690
0.01484708
0.01510168
0.01537715
0.01576205
0.01627646
0.01690887
0.01764294
0.01847138
0.01946004
0.02047243
0.02167969
0.02299443
0.02438305
0.02574424
0.02713021
0.02850567
0.02974334
0.03093685
0.03202067
0.03297693
0.03394507
0.03480589
0.03565260
0.03640640
0.03712611
0.03782130
0.03846076
0.03892955
0.03938314
0.03989057
0.04045348
0.04084260
0.04129977
0.04166417
0.04211689
0.04242752
0.04257564
0.04272239
0.04285436
0.04289329
0.04295697
0.04292024
0.04298345
0.04309285
0.04326995
0.04361538
0.04378839
0.04395463
0.04417608
0.04444409
0.04485358
0.04542196
0.04631420
0.04744019
0.04858396
0.04985553
0.05132238
0.05282973
0.05435708
0.05600198
0.05754883
0.05917374
0.06101730
0.06280303
0.06459708
0.06627606
0.06795408
0.06972531
0.07144243
0.07312874
0.07454305
0.07581608
0.07717224
0.07834205
0.07948299
0.08052166
0.08102506
0.08207151
0.08255455
0.08248425
0.08244405
0.08165227
0.08193171
0.08098652
0.07947279
0.07729020
0.07472599
0.07195666
0.06907174
0.06625087
0.06380555
0.06200402
0.06041049
0.05923158
0.05853746
0.05851603
0.05945966
0.06181696
0.06361467
0.05785236
0.04750497
0.03957247
0.03329756
0.02855799
0.02504950
0.02245373
0.02064549
0.01922474
0.01810246
0.01716567
0.01648531
0.01588854
0.01538757
0.01500485
0.01475892
0.01461405
0.01456637
0.01461949
0.01475574
0.01492500
0.01514215
0.01542125
0.01574225
0.01617007
0.01670644
0.01737077
0.01816593
0.01906065
0.02008797
0.02113864
0.02235070
0.02368293
0.02510468
0.02650469
0.02793684
0.02931621
0.03060395
0.03181783
0.03294977
0.03394606
0.03493135
0.03578257
0.03661337
0.03740406
0.03811023
0.03880255
0.03944894
0.03988839
0.04036128
0.04090878
0.04150252
0.04189605
0.04232149
0.04268200
0.04309243
0.04339409
0.04355546
0.04369192
0.04384795
0.04386475
0.04394709
0.04389590
0.04390084
0.04397485
0.04412980
0.04444621
0.04458925
0.04476502
0.04501698
0.04531243
0.04570136
0.04624772
0.04707648
0.04812953
0.04921595
0.05044153
0.05182553
0.05330765
0.05478794
0.05636098
0.05789908
0.05945072
0.06125646
0.06301803
0.06478692
0.06643130
0.06809631
0.06983147
0.07150220
0.07312822
0.07453869
0.07587390
0.07729862
0.07836554
0.07949710
0.08047647
0.08127178
0.08190806
0.08226731
0.08215865
0.08197094
0.08034385
0.08180606
0.08055854
0.07886682
0.07676544
0.07443042
0.07183149
0.06910110
0.06641952
0.06399616
0.06210423
0.06045281
0.05918591
0.05837690
0.05821307
0.05905476
0.06139744
0.06456620
0.06223567
0.05281682
0.04416475
0.03708324
0.03150170
0.02734982
0.02424408
0.02203729
0.02036222
0.01903691
0.01792890
0.01711865
0.01643913
0.01585897
0.01542125
0.01512536
0.01495186
0.01486818
0.01491005
0.01505353
0.01524755
0.01548284
0.01579341
0.01614886
0.01660988
0.01716097
0.01786196
0.01872492
0.01969304
0.02074530
0.02185162
0.02306274
0.02440289
0.02587169
0.02729963
0.02877703
0.03015099
0.03149331
0.03272959
0.03389221
0.03494837
0.03593165
0.03680888
0.03763393
0.03843702
0.03915021
0.03981249
0.04045001
0.04086942
0.04137847
0.04198326
0.04260249
0.04302676
0.04339886
0.04373477
0.04410146
0.04439073
0.04457205
0.04469860
0.04486587
0.04485730
0.04491713
0.04487036
0.04484439
0.04490784
0.04504976
0.04532180
0.04541910
0.04558216
0.04585974
0.04615707
0.04653656
0.04706456
0.04781443
0.04880334
0.04985598
0.05104934
0.05234775
0.05379480
0.05519461
0.05670927
0.05824393
0.05968846
0.06146221
0.06320175
0.06493023
0.06652636
0.06814189
0.06982773
0.07149308
0.07301913
0.07447366
0.07580774
0.07719117
0.07836039
0.07933848
0.08037332
0.08118071
0.08158436
0.08188020
0.08169588
0.08164307
0.08107698
0.08121642
0.07982861
0.07815000
0.07619907
0.07393913
0.07154042
0.06901461
0.06647610
0.06411826
0.06215204
0.06046318
0.05913745
0.05823650
0.05792520
0.05856690
0.06077224
0.06463715
0.06539337
0.05806041
0.04904133
0.04133537
0.03490010
0.03003964
0.02634593
0.02370001
0.02169368
0.02013622
0.01884044
0.01786853
0.01709060
0.01642700
0.01592112
0.01556694
0.01535100
0.01523798
0.01526561
0.01541022
0.01562376
0.01588164
0.01622296
0.01660829
0.01708826
0.01765207
0.01839545
0.01931753
0.02035197
0.02142653
0.02258245
0.02381677
0.02518632
0.02669176
0.02815083
0.02966509
0.03105251
0.03244741
0.03367268
0.03486806
0.03597637
0.03696870
0.03786841
0.03872433
0.03951710
0.04022990
0.04088296
0.04147598
0.04191322
0.04245588
0.04309049
0.04375809
0.04421048
0.04452618
0.04482980
0.04516259
0.04545287
0.04564701
0.04576675
0.04592198
0.04587422
0.04590132
0.04587803
0.04583093
0.04589843
0.04601423
0.04621934
0.04628918
0.04639654
0.04669406
0.04696424
0.04733061
0.04787369
0.04853843
0.04948518
0.05050912
0.05169291
0.05292871
0.05428008
0.05559147
0.05707938
0.05855517
0.05992012
0.06166222
0.06337718
0.06507508
0.06660123
0.06814353
0.06977340
0.07141494
0.07291531
0.07433051
0.07566995
0.07695148
0.07810502
0.07912032
0.08000703
0.08072703
0.08110876
0.08134379
0.08132479
0.08103899
0.08067134
0.08009089
0.07900174
0.07745060
0.07555965
0.07352295
0.07125002
0.06885488
0.06644255
0.06417186
0.06214533
0.06044988
0.05907629
0.05810410
0.05765531
0.05806992
0.06003783
0.06408664
0.06721316
0.06281486
0.05412849
0.04595994
0.03877645
0.03315714
0.02885288
0.02567462
0.02328476
0.02144794
0.01993446
0.01876155
0.01787803
0.01710940
0.01651376
0.01608608
0.01582115
0.01567785
0.01569154
0.01582732
0.01605922
0.01634298
0.01669569
0.01712017
0.01761611
0.01819255
0.01897837
0.01995723
0.02103327
0.02212935
0.02333353
0.02461140
0.02604990
0.02758619
0.02908160
0.03062146
0.03203308
0.03346596
0.03466336
0.03589268
0.03704286
0.03804475
0.03895675
0.03988121
0.04067029
0.04139414
0.04202177
0.04253832
0.04301652
0.04357103
0.04424494
0.04495565
0.04543194
0.04569997
0.04597371
0.04628593
0.04658754
0.04679690
0.04689909
0.04699608
0.04693406
0.04691697
0.04692018
0.04686045
0.04693551
0.04699178
0.04711190
0.04717186
0.04723438
0.04753439
0.04773402
0.04808383
0.04864434
0.04926093
0.05020300
0.05116612
0.05235983
0.05354743
0.05476054
0.05602705
0.05747412
0.05882273
0.06017073
0.06187918
0.06356355
0.06520401
0.06666173
0.06814079
0.06971955
0.07128487
0.07280768
0.07417499
0.07546378
0.07667311
0.07773667
0.07867736
0.07938725
0.08009824
0.08057683
0.08081704
0.08043732
0.08013888
0.07983707
0.07915575
0.07817023
0.07667125
0.07489228
0.07292943
0.07083970
0.06861120
0.06634199
0.06413886
0.06210881
0.06040843
0.05901024
0.05798267
0.05741584
0.05761491
0.05925153
0.06314680
0.06780407
0.06676399
0.05922861
0.05088832
0.04310121
0.03673108
0.03176448
0.02801173
0.02519725
0.02299681
0.02123382
0.01983801
0.01882627
0.01792573
0.01721534
0.01670457
0.01638236
0.01620348
0.01618882
0.01630899
0.01656175
0.01687065
0.01722119
0.01767449
0.01818106
0.01878045
0.01961578
0.02065053
0.02174678
0.02285614
0.02410911
0.02545548
0.02697247
0.02854699
0.03008013
0.03165283
0.03308732
0.03453020
0.03572484
0.03699041
0.03820094
0.03919838
0.04009295
0.04109760
0.04191337
0.04266034
0.04321841
0.04368210
0.04415366
0.04472584
0.04545582
0.04618711
0.04667445
0.04693199
0.04718613
0.04749430
0.04777876
0.04801454
0.04807936
0.04810236
0.04803175
0.04797712
0.04798351
0.04792765
0.04800917
0.04799856
0.04802873
0.04807726
0.04812723
0.04839438
0.04853258
0.04885029
0.04939194
0.05000170
0.05092708
0.05185314
0.05300989
0.05416721
0.05526127
0.05651581
0.05786529
0.05908901
0.06046952
0.06211644
0.06374776
0.06533001
0.06670489
0.06814166
0.06966180
0.07115499
0.07264217
0.07398916
0.07523572
0.07636976
0.07735585
0.07820844
0.07882396
0.07948683
0.07991607
0.08001741
0.07991171
0.07967836
0.07912691
0.07836306
0.07730643
0.07584938
0.07420527
0.07237910
0.07040303
0.06831311
0.06616045
0.06406092
0.06203520
0.06035770
0.05893712
0.05786687
0.05720198
0.05720278
0.05848083
0.06199685
0.06739330
0.06943501
0.06411026
0.05597263
0.04785429
0.04075558
0.03511792
0.03076352
0.02746995
0.02483988
0.02278120
0.02115258
0.01995653
0.01890480