/*--------------------------------*- C++ -*----------------------------------*\
  =========                 |
  \\      /  F ield         | OpenFOAM: The Open Source CFD Toolbox
   \\    /   O peration     | Website:  https://openfoam.org
    \\  /    A nd           | Version:  7
     \\/     M anipulation  |
\*---------------------------------------------------------------------------*/
FoamFile
{
    version     2.0;
    format      ascii;
    class       volSymmTensorField;
    location    "0";
    object      tauij_LES;
}
// * * * * * * * * * * * * * * * * * * * * * * * * * * * * * * * * * * * * * //

dimensions      [0 2 -2 0 0 0 0];

internalField   nonuniform List<symmTensor>
15600
(
(0.00532808 -0.00005347 0.00000000 0.00000624 0.00000000 0.00344490)
(0.00603093 -0.00005316 0.00000000 0.00000730 0.00000000 0.00365134)
(0.00539768 -0.00006915 0.00000000 0.00000125 0.00000000 0.00289636)
(0.00122249 -0.00022844 0.00000000 0.00009498 0.00000000 0.00102201)
(0.00070213 -0.00008805 0.00000000 0.00001369 0.00000000 0.00044803)
(0.00030964 -0.00007993 0.00000000 0.00004510 0.00000000 0.00111596)
(0.00049909 -0.00009877 0.00000000 0.00001807 0.00000000 0.00056691)
(0.00048490 -0.00037783 0.00000000 0.00028984 0.00000000 0.00078655)
(0.00167020 -0.00122955 0.00000000 0.00093658 0.00000000 0.00252690)
(0.00214131 -0.00155446 0.00000000 0.00118650 0.00000000 0.00299351)
(0.00173699 -0.00124981 0.00000000 0.00092003 0.00000000 0.00223128)
(0.00029871 -0.00015978 0.00000000 0.00003966 0.00000000 0.00032498)
(0.00039933 -0.00027601 0.00000000 0.00018463 0.00000000 0.00076655)
(0.00076162 -0.00058920 0.00000000 0.00046261 0.00000000 0.00143312)
(0.00038990 -0.00026742 0.00000000 0.00018585 0.00000000 0.00091514)
(0.00045108 -0.00039163 0.00000000 0.00033833 0.00000000 0.00116150)
(0.00044180 -0.00030238 0.00000000 0.00020799 0.00000000 0.00089331)
(0.00030648 -0.00021088 0.00000000 0.00014613 0.00000000 0.00074148)
(0.00023365 -0.00017351 0.00000000 0.00012839 0.00000000 0.00064463)
(0.00035974 -0.00023472 0.00000000 0.00015452 0.00000000 0.00067337)
(0.00022189 -0.00014783 0.00000000 0.00010030 0.00000000 0.00050733)
(0.00039801 -0.00023559 0.00000000 0.00012896 0.00000000 0.00054319)
(0.00040962 -0.00024641 0.00000000 0.00014446 0.00000000 0.00047815)
(0.00014806 -0.00009524 0.00000000 0.00006484 0.00000000 0.00019561)
(0.00009126 -0.00012471 0.00000000 0.00015224 0.00000000 0.00050761)
(0.00024588 -0.00016652 0.00000000 0.00011222 0.00000000 0.00055008)
(0.00028591 -0.00014160 0.00000000 0.00006036 0.00000000 0.00039774)
(0.00034117 -0.00023103 0.00000000 0.00016402 0.00000000 0.00044166)
(0.00026910 -0.00014831 0.00000000 0.00008182 0.00000000 0.00036510)
(0.00040497 -0.00022575 0.00000000 0.00012737 0.00000000 0.00061748)
(0.00031732 -0.00030768 0.00000000 0.00030109 0.00000000 0.00104507)
(0.00089477 -0.00047030 0.00000000 0.00025289 0.00000000 0.00121218)
(0.00081938 -0.00033743 0.00000000 0.00014889 0.00000000 0.00135365)
(0.00064471 -0.00029326 0.00000000 0.00013826 0.00000000 0.00097976)
(0.00075743 -0.00033778 0.00000000 0.00015460 0.00000000 0.00119978)
(0.00076087 -0.00028650 0.00000000 0.00011871 0.00000000 0.00075080)
(0.00111080 -0.00018321 0.00000000 0.00004048 0.00000000 0.00134168)
(0.00085638 -0.00016391 0.00000000 0.00005726 0.00000000 0.00133548)
(0.00144120 -0.00023935 0.00000000 0.00004554 0.00000000 0.00117715)
(0.00139404 -0.00000759 0.00000000 0.00000602 0.00000000 0.00140069)
(0.00111980 0.00000039 0.00000000 -0.00000075 0.00000000 0.00095022)
(0.00121105 0.00000252 0.00000000 -0.00000197 0.00000000 0.00099203)
(0.00137831 0.00000272 0.00000000 -0.00000157 0.00000000 0.00113429)
(0.00153427 0.00000425 0.00000000 -0.00000002 0.00000000 0.00130395)
(0.00156342 0.00000413 0.00000000 -0.00000357 0.00000000 0.00137200)
(0.00161142 0.00000429 0.00000000 -0.00000331 0.00000000 0.00148054)
(0.00166945 0.00000484 0.00000000 -0.00000296 0.00000000 0.00160238)
(0.00172513 0.00000497 0.00000000 -0.00000250 0.00000000 0.00172552)
(0.00176066 0.00000556 0.00000000 -0.00000406 0.00000000 0.00181841)
(0.00178490 0.00000557 0.00000000 -0.00000485 0.00000000 0.00192549)
(0.00183720 0.00000525 0.00000000 -0.00000550 0.00000000 0.00201241)
(0.00191271 0.00000521 0.00000000 -0.00000457 0.00000000 0.00210584)
(0.00196879 0.00000524 0.00000000 -0.00000569 0.00000000 0.00218555)
(0.00209371 0.00000615 0.00000000 0.00000052 0.00000000 0.00234296)
(0.00202940 0.00000612 0.00000000 -0.00000425 0.00000000 0.00233081)
(0.00202373 0.00000483 0.00000000 -0.00000540 0.00000000 0.00236048)
(0.00202398 0.00000601 0.00000000 -0.00000487 0.00000000 0.00241437)
(0.00207597 0.00000495 0.00000000 -0.00000307 0.00000000 0.00250174)
(0.00206857 0.00000515 0.00000000 -0.00000649 0.00000000 0.00247837)
(0.00209391 0.00000470 0.00000000 -0.00000555 0.00000000 0.00250393)
(0.00216455 0.00000542 0.00000000 -0.00000376 0.00000000 0.00258367)
(0.00215749 0.00000496 0.00000000 -0.00000593 0.00000000 0.00256020)
(0.00221608 0.00000493 0.00000000 -0.00000267 0.00000000 0.00266607)
(0.00223802 0.00000425 0.00000000 -0.00000444 0.00000000 0.00264742)
(0.00220144 0.00000474 0.00000000 -0.00000522 0.00000000 0.00262253)
(0.00219196 0.00000367 0.00000000 -0.00000396 0.00000000 0.00264558)
(0.00219855 0.00000366 0.00000000 -0.00000509 0.00000000 0.00262659)
(0.00218969 0.00000414 0.00000000 -0.00000245 0.00000000 0.00265832)
(0.00210825 0.00000346 0.00000000 -0.00000520 0.00000000 0.00257640)
(0.00219062 0.00000201 0.00000000 -0.00000109 0.00000000 0.00262185)
(0.00218454 0.00000295 0.00000000 -0.00000517 0.00000000 0.00256401)
(0.00221351 0.00000358 0.00000000 -0.00000579 0.00000000 0.00256564)
(0.00219045 0.00000371 0.00000000 -0.00000593 0.00000000 0.00255426)
(0.00217454 0.00000288 0.00000000 -0.00000519 0.00000000 0.00258555)
(0.00214817 0.00000336 0.00000000 -0.00000610 0.00000000 0.00257115)
(0.00214339 0.00000310 0.00000000 -0.00000477 0.00000000 0.00257303)
(0.00216552 0.00000297 0.00000000 -0.00000476 0.00000000 0.00257703)
(0.00220616 0.00000361 0.00000000 -0.00000505 0.00000000 0.00260975)
(0.00230734 0.00000333 0.00000000 -0.00000597 0.00000000 0.00267427)
(0.00261553 0.00000359 0.00000000 -0.00000169 0.00000000 0.00308240)
(0.00331730 0.00007171 0.00000000 0.00002078 0.00000000 0.00528009)
(0.00163418 0.00007639 0.00000000 0.00000847 0.00000000 0.00371304)
(0.00081703 0.00021089 0.00000000 0.00006220 0.00000000 0.00145196)
(0.00071170 0.00030131 0.00000000 0.00011899 0.00000000 0.00239571)
(-0.00000157 -0.00001701 0.00000000 -0.00000695 0.00000000 0.00087541)
(-0.00018688 -0.00004150 0.00000000 -0.00000777 0.00000000 0.00008126)
(0.00004753 0.00003773 0.00000000 0.00002159 0.00000000 0.00030690)
(0.00075259 0.00038451 0.00000000 0.00019714 0.00000000 0.00198389)
(0.00027418 0.00013856 0.00000000 0.00006412 0.00000000 0.00071061)
(-0.00023847 -0.00015665 0.00000000 -0.00010665 0.00000000 -0.00050913)
(0.00001766 -0.00000913 0.00000000 -0.00001927 0.00000000 0.00007430)
(-0.00011911 -0.00006340 0.00000000 -0.00003189 0.00000000 -0.00031932)
(0.00002878 0.00000177 0.00000000 -0.00001631 0.00000000 -0.00003533)
(0.00000975 0.00004706 0.00000000 0.00006789 0.00000000 0.00013968)
(-0.00011428 -0.00016316 0.00000000 -0.00020134 0.00000000 -0.00002334)
(-0.00026599 -0.00022545 0.00000000 -0.00019824 0.00000000 -0.00109744)
(-0.00010137 -0.00005706 0.00000000 -0.00003336 0.00000000 -0.00042841)
(-0.00025276 -0.00017281 0.00000000 -0.00013938 0.00000000 -0.00061978)
(-0.00016611 -0.00015505 0.00000000 -0.00014112 0.00000000 -0.00035297)
(-0.00002231 -0.00003050 0.00000000 -0.00003601 0.00000000 -0.00020873)
(-0.00000886 0.00000778 0.00000000 0.00001823 0.00000000 0.00011234)
(-0.00016407 -0.00022435 0.00000000 -0.00028766 0.00000000 0.00010249)
(-0.00001258 -0.00002655 0.00000000 -0.00003872 0.00000000 0.00006986)
(0.00000564 0.00000878 0.00000000 0.00001676 0.00000000 0.00057491)
(-0.00011842 -0.00019665 0.00000000 -0.00028165 0.00000000 0.00021261)
(-0.00001133 -0.00000506 0.00000000 0.00000236 0.00000000 -0.00020307)
(-0.00027181 -0.00026772 0.00000000 -0.00026240 0.00000000 -0.00017459)
(-0.00005934 -0.00002881 0.00000000 -0.00000947 0.00000000 -0.00065371)
(-0.00034372 -0.00020435 0.00000000 -0.00009623 0.00000000 -0.00106194)
(0.00003971 0.00010401 0.00000000 0.00005879 0.00000000 0.00005551)
(0.00047131 0.00035954 0.00000000 0.00025469 0.00000000 0.00138149)
(0.00012088 0.00009472 0.00000000 0.00006565 0.00000000 0.00023889)
(-0.00111089 -0.00043788 0.00000000 -0.00019521 0.00000000 -0.00138525)
(-0.00073632 -0.00017260 0.00000000 -0.00000354 0.00000000 0.00013275)
(-0.00214335 0.00025339 0.00000000 0.00044203 0.00000000 -0.00033558)
(0.00171686 -0.00000808 0.00000000 -0.00000515 0.00000000 0.00087314)
(0.00149620 -0.00009347 0.00000000 -0.00004738 0.00000000 0.00035356)
(0.00308955 -0.00008081 0.00000000 0.00000124 0.00000000 0.00223952)
(0.00460001 -0.00003026 0.00000000 0.00001077 0.00000000 0.00317227)
(0.00505859 -0.00005871 0.00000000 0.00001088 0.00000000 0.00334652)
(0.01443233 -0.00033712 0.00000000 0.00012770 0.00000000 0.00804721)
(0.01559943 -0.00038200 0.00000000 0.00015266 0.00000000 0.00841773)
(0.01448074 -0.00038345 0.00000000 0.00012983 0.00000000 0.00726027)
(0.00833972 -0.00090967 0.00000000 0.00021539 0.00000000 0.00347455)
(0.00451347 -0.00054859 0.00000000 0.00010109 0.00000000 0.00246034)
(0.00193407 -0.00048644 0.00000000 0.00022151 0.00000000 0.00321186)
(0.00214919 -0.00047533 0.00000000 0.00017271 0.00000000 0.00244968)
(0.00134495 -0.00102494 0.00000000 0.00079899 0.00000000 0.00208476)
(0.00344302 -0.00252183 0.00000000 0.00209261 0.00000000 0.00552199)
(0.00420123 -0.00303692 0.00000000 0.00246433 0.00000000 0.00613205)
(0.00346003 -0.00246879 0.00000000 0.00189290 0.00000000 0.00462859)
(0.00135322 -0.00093298 0.00000000 0.00063619 0.00000000 0.00173819)
(0.00161128 -0.00123794 0.00000000 0.00098706 0.00000000 0.00287694)
(0.00152170 -0.00117779 0.00000000 0.00096347 0.00000000 0.00302825)
(0.00124237 -0.00103525 0.00000000 0.00089549 0.00000000 0.00285910)
(0.00106982 -0.00094911 0.00000000 0.00087960 0.00000000 0.00260240)
(0.00129153 -0.00100755 0.00000000 0.00082158 0.00000000 0.00265440)
(0.00112673 -0.00092058 0.00000000 0.00078328 0.00000000 0.00242728)
(0.00091133 -0.00081183 0.00000000 0.00076485 0.00000000 0.00208842)
(0.00123348 -0.00092087 0.00000000 0.00071448 0.00000000 0.00223349)
(0.00112219 -0.00087661 0.00000000 0.00070768 0.00000000 0.00205046)
(0.00142272 -0.00099039 0.00000000 0.00071187 0.00000000 0.00199767)
(0.00138052 -0.00090831 0.00000000 0.00061572 0.00000000 0.00168579)
(0.00124130 -0.00084159 0.00000000 0.00058526 0.00000000 0.00143752)
(0.00124872 -0.00110361 0.00000000 0.00099748 0.00000000 0.00167903)
(0.00145866 -0.00106181 0.00000000 0.00081295 0.00000000 0.00206713)
(0.00169397 -0.00112185 0.00000000 0.00077437 0.00000000 0.00211780)
(0.00206594 -0.00134659 0.00000000 0.00091250 0.00000000 0.00236271)
(0.00215298 -0.00126840 0.00000000 0.00077732 0.00000000 0.00238501)
(0.00228538 -0.00131612 0.00000000 0.00079864 0.00000000 0.00284511)
(0.00239345 -0.00178300 0.00000000 0.00139943 0.00000000 0.00304354)
(0.00313528 -0.00156729 0.00000000 0.00086113 0.00000000 0.00383171)
(0.00312782 -0.00127153 0.00000000 0.00059900 0.00000000 0.00387278)
(0.00311145 -0.00129748 0.00000000 0.00061339 0.00000000 0.00369794)
(0.00332423 -0.00119225 0.00000000 0.00051889 0.00000000 0.00406990)
(0.00399138 -0.00114876 0.00000000 0.00041500 0.00000000 0.00386493)
(0.00409841 -0.00087141 0.00000000 0.00029773 0.00000000 0.00450467)
(0.00417613 -0.00077030 0.00000000 0.00025077 0.00000000 0.00427414)
(0.00512031 -0.00076690 0.00000000 0.00024681 0.00000000 0.00466092)
(0.00495810 -0.00007534 0.00000000 0.00011921 0.00000000 0.00449409)
(0.00508525 -0.00000169 0.00000000 0.00009060 0.00000000 0.00414922)
(0.00562250 0.00001397 0.00000000 0.00009679 0.00000000 0.00456308)
(0.00614628 0.00002779 0.00000000 0.00010773 0.00000000 0.00512655)
(0.00654210 0.00003494 0.00000000 0.00012074 0.00000000 0.00569195)
(0.00681044 0.00004179 0.00000000 0.00013450 0.00000000 0.00618536)
(0.00700644 0.00005000 0.00000000 0.00014099 0.00000000 0.00671000)
(0.00710776 0.00005004 0.00000000 0.00014979 0.00000000 0.00716598)
(0.00723094 0.00004617 0.00000000 0.00016108 0.00000000 0.00763965)
(0.00736461 0.00004821 0.00000000 0.00016949 0.00000000 0.00810579)
(0.00748960 0.00004089 0.00000000 0.00018266 0.00000000 0.00853829)
(0.00771279 0.00003657 0.00000000 0.00018867 0.00000000 0.00894396)
(0.00791874 0.00003165 0.00000000 0.00019530 0.00000000 0.00928835)
(0.00815716 0.00002912 0.00000000 0.00020406 0.00000000 0.00964536)
(0.00829697 0.00003434 0.00000000 0.00020783 0.00000000 0.00989625)
(0.00829649 0.00003578 0.00000000 0.00021107 0.00000000 0.01016353)
(0.00831144 0.00002454 0.00000000 0.00021838 0.00000000 0.01036152)
(0.00827613 0.00002633 0.00000000 0.00022658 0.00000000 0.01051008)
(0.00843877 0.00000876 0.00000000 0.00022449 0.00000000 0.01073589)
(0.00859968 0.00001048 0.00000000 0.00023189 0.00000000 0.01084527)
(0.00866761 0.00000473 0.00000000 0.00023473 0.00000000 0.01092047)
(0.00885301 0.00000751 0.00000000 0.00023129 0.00000000 0.01109338)
(0.00890079 0.00000748 0.00000000 0.00023762 0.00000000 0.01112081)
(0.00895829 -0.00000550 0.00000000 0.00024419 0.00000000 0.01130545)
(0.00911846 -0.00000824 0.00000000 0.00023979 0.00000000 0.01141199)
(0.00912853 0.00000163 0.00000000 0.00023587 0.00000000 0.01142311)
(0.00906392 -0.00000967 0.00000000 0.00023392 0.00000000 0.01144311)
(0.00906170 -0.00001470 0.00000000 0.00023643 0.00000000 0.01139458)
(0.00902050 -0.00000608 0.00000000 0.00022697 0.00000000 0.01142958)
(0.00890237 -0.00001671 0.00000000 0.00022938 0.00000000 0.01129818)
(0.00898002 -0.00003095 0.00000000 0.00023310 0.00000000 0.01124755)
(0.00910720 -0.00003669 0.00000000 0.00023809 0.00000000 0.01122946)
(0.00922568 -0.00002672 0.00000000 0.00023825 0.00000000 0.01131282)
(0.00919555 -0.00002523 0.00000000 0.00023418 0.00000000 0.01132645)
(0.00911382 -0.00003474 0.00000000 0.00023167 0.00000000 0.01143641)
(0.00906766 -0.00003202 0.00000000 0.00023134 0.00000000 0.01148519)
(0.00907085 -0.00003889 0.00000000 0.00022631 0.00000000 0.01148014)
(0.00917419 -0.00005017 0.00000000 0.00023242 0.00000000 0.01152510)
(0.00940773 -0.00004812 0.00000000 0.00023183 0.00000000 0.01176685)
(0.00969906 -0.00006084 0.00000000 0.00024159 0.00000000 0.01219028)
(0.00986203 -0.00000517 0.00000000 0.00026202 0.00000000 0.01315999)
(0.00947796 0.00047209 0.00000000 0.00037186 0.00000000 0.01613817)
(0.00828381 0.00124650 0.00000000 0.00044095 0.00000000 0.01449180)
(0.00827671 0.00147523 0.00000000 0.00048807 0.00000000 0.01210723)
(0.00752932 0.00212497 0.00000000 0.00080873 0.00000000 0.01365572)
(0.00623137 0.00199225 0.00000000 0.00077733 0.00000000 0.01148636)
(0.00549559 0.00240631 0.00000000 0.00115115 0.00000000 0.00918616)
(0.00418618 0.00215427 0.00000000 0.00114559 0.00000000 0.00890431)
(0.00582453 0.00286991 0.00000000 0.00156212 0.00000000 0.01404895)
(0.00471279 0.00263370 0.00000000 0.00157809 0.00000000 0.01249738)
(0.00156390 0.00082407 0.00000000 0.00040613 0.00000000 0.00276807)
(0.00184130 0.00122347 0.00000000 0.00085647 0.00000000 0.00827647)
(0.00192199 0.00107987 0.00000000 0.00061874 0.00000000 0.00588831)
(0.00154281 0.00089909 0.00000000 0.00051705 0.00000000 0.00566304)
(0.00137914 0.00106730 0.00000000 0.00082223 0.00000000 0.00790924)
(0.00027319 0.00037918 0.00000000 0.00046935 0.00000000 0.00401250)
(0.00055736 0.00016842 0.00000000 -0.00006169 0.00000000 0.00117480)
(0.00072878 0.00039405 0.00000000 0.00019347 0.00000000 0.00303730)
(0.00093727 0.00054883 0.00000000 0.00031919 0.00000000 0.00440362)
(0.00114845 0.00084480 0.00000000 0.00063563 0.00000000 0.00778282)
(0.00009686 0.00003061 0.00000000 -0.00002278 0.00000000 0.00430969)
(0.00098781 0.00071508 0.00000000 0.00051430 0.00000000 0.00813781)
(0.00003735 0.00010422 0.00000000 0.00018674 0.00000000 0.00380893)
(0.00015061 0.00005404 0.00000000 -0.00000700 0.00000000 0.00515973)
(0.00092583 0.00071234 0.00000000 0.00052355 0.00000000 0.00846667)
(0.00003850 0.00003643 0.00000000 0.00006330 0.00000000 0.00444146)
(0.00017100 0.00002924 0.00000000 -0.00010770 0.00000000 0.00470347)
(0.00043527 0.00027548 0.00000000 0.00017236 0.00000000 0.00463776)
(-0.00012779 -0.00018108 0.00000000 -0.00023704 0.00000000 0.00176463)
(0.00007916 0.00006603 0.00000000 0.00005891 0.00000000 0.00044194)
(0.00169450 0.00123664 0.00000000 0.00084123 0.00000000 0.00601742)
(0.00338583 0.00241800 0.00000000 0.00170367 0.00000000 0.01059817)
(0.00331732 0.00241278 0.00000000 0.00171148 0.00000000 0.00789034)
(-0.00080168 -0.00022184 0.00000000 -0.00005216 0.00000000 -0.00096521)
(-0.00026219 0.00030390 0.00000000 0.00034001 0.00000000 0.00291762)
(0.00183513 0.00159856 0.00000000 0.00089374 0.00000000 0.00388813)
(0.00802022 -0.00015039 0.00000000 0.00001772 0.00000000 0.00528904)
(0.01013356 0.00032068 0.00000000 0.00002134 0.00000000 0.00464312)
(0.01187007 -0.00006885 0.00000000 0.00006487 0.00000000 0.00654276)
(0.01314205 -0.00023386 0.00000000 0.00009233 0.00000000 0.00739353)
(0.01393051 -0.00031343 0.00000000 0.00011410 0.00000000 0.00777287)
(0.02813383 -0.00089107 0.00000000 0.00040094 0.00000000 0.01423765)
(0.02956373 -0.00103050 0.00000000 0.00047050 0.00000000 0.01477768)
(0.02793153 -0.00103456 0.00000000 0.00043737 0.00000000 0.01333941)
(0.02021017 -0.00224290 0.00000000 0.00056280 0.00000000 0.00762421)
(0.01212084 -0.00162802 0.00000000 0.00045298 0.00000000 0.00596458)
(0.00550481 -0.00168559 0.00000000 0.00086373 0.00000000 0.00627988)
(0.00422920 -0.00126761 0.00000000 0.00078820 0.00000000 0.00537855)
(0.00314992 -0.00227693 0.00000000 0.00181901 0.00000000 0.00454698)
(0.00504860 -0.00362716 0.00000000 0.00327094 0.00000000 0.00868365)
(0.00547692 -0.00386968 0.00000000 0.00338788 0.00000000 0.00871295)
(0.00528272 -0.00371909 0.00000000 0.00301336 0.00000000 0.00749627)
(0.00350391 -0.00247433 0.00000000 0.00188792 0.00000000 0.00464611)
(0.00316655 -0.00246225 0.00000000 0.00208256 0.00000000 0.00566814)
(0.00273258 -0.00220317 0.00000000 0.00195118 0.00000000 0.00554124)
(0.00246274 -0.00206410 0.00000000 0.00188102 0.00000000 0.00518642)
(0.00212391 -0.00188032 0.00000000 0.00183918 0.00000000 0.00448026)
(0.00243143 -0.00191891 0.00000000 0.00164672 0.00000000 0.00468734)
(0.00232535 -0.00185046 0.00000000 0.00161352 0.00000000 0.00423987)
(0.00217206 -0.00182696 0.00000000 0.00167811 0.00000000 0.00371007)
(0.00241373 -0.00181570 0.00000000 0.00147379 0.00000000 0.00394138)
(0.00250204 -0.00189683 0.00000000 0.00155007 0.00000000 0.00373862)
(0.00270406 -0.00194023 0.00000000 0.00149592 0.00000000 0.00366794)
(0.00287862 -0.00197604 0.00000000 0.00144878 0.00000000 0.00343795)
(0.00303772 -0.00211291 0.00000000 0.00155363 0.00000000 0.00335045)
(0.00321020 -0.00243460 0.00000000 0.00194348 0.00000000 0.00343912)
(0.00320641 -0.00238228 0.00000000 0.00189554 0.00000000 0.00380397)
(0.00360636 -0.00246363 0.00000000 0.00180452 0.00000000 0.00413614)
(0.00409699 -0.00264833 0.00000000 0.00185531 0.00000000 0.00445180)
(0.00431816 -0.00253568 0.00000000 0.00163669 0.00000000 0.00449381)
(0.00431480 -0.00247222 0.00000000 0.00158743 0.00000000 0.00492504)
(0.00492081 -0.00303532 0.00000000 0.00209687 0.00000000 0.00552117)
(0.00533531 -0.00259676 0.00000000 0.00151893 0.00000000 0.00614023)
(0.00572823 -0.00230591 0.00000000 0.00119526 0.00000000 0.00613066)
(0.00584159 -0.00225074 0.00000000 0.00112661 0.00000000 0.00615524)
(0.00608622 -0.00205209 0.00000000 0.00098499 0.00000000 0.00650536)
(0.00677123 -0.00190809 0.00000000 0.00085831 0.00000000 0.00652393)
(0.00706343 -0.00149272 0.00000000 0.00067965 0.00000000 0.00689764)
(0.00757154 -0.00123635 0.00000000 0.00056898 0.00000000 0.00695721)
(0.00794005 -0.00092059 0.00000000 0.00053950 0.00000000 0.00733028)
(0.00838085 -0.00021681 0.00000000 0.00042610 0.00000000 0.00719956)
(0.00913278 -0.00005208 0.00000000 0.00039763 0.00000000 0.00735546)
(0.00997424 -0.00000650 0.00000000 0.00043959 0.00000000 0.00815092)
(0.01063065 0.00001913 0.00000000 0.00048681 0.00000000 0.00907304)
(0.01110466 0.00002446 0.00000000 0.00054240 0.00000000 0.00996441)
(0.01148968 0.00003743 0.00000000 0.00058252 0.00000000 0.01084061)
(0.01170655 0.00005282 0.00000000 0.00061866 0.00000000 0.01168465)
(0.01181038 0.00005040 0.00000000 0.00065117 0.00000000 0.01244385)
(0.01192718 0.00003324 0.00000000 0.00069302 0.00000000 0.01320117)
(0.01210646 0.00001970 0.00000000 0.00072598 0.00000000 0.01394789)
(0.01237530 -0.00000892 0.00000000 0.00075964 0.00000000 0.01469255)
(0.01264653 -0.00001665 0.00000000 0.00079313 0.00000000 0.01530978)
(0.01287348 -0.00003676 0.00000000 0.00082977 0.00000000 0.01585078)
(0.01318077 -0.00005101 0.00000000 0.00086779 0.00000000 0.01636218)
(0.01338802 -0.00003170 0.00000000 0.00087616 0.00000000 0.01679824)
(0.01343185 -0.00004559 0.00000000 0.00090338 0.00000000 0.01717767)
(0.01355026 -0.00005711 0.00000000 0.00091482 0.00000000 0.01759056)
(0.01360545 -0.00006721 0.00000000 0.00092761 0.00000000 0.01789728)
(0.01382863 -0.00011484 0.00000000 0.00093824 0.00000000 0.01814054)
(0.01413891 -0.00010870 0.00000000 0.00096352 0.00000000 0.01832409)
(0.01427985 -0.00011483 0.00000000 0.00097394 0.00000000 0.01848346)
(0.01450425 -0.00012189 0.00000000 0.00097800 0.00000000 0.01869783)
(0.01461456 -0.00011263 0.00000000 0.00098452 0.00000000 0.01880105)
(0.01473204 -0.00014937 0.00000000 0.00100764 0.00000000 0.01906324)
(0.01496600 -0.00015418 0.00000000 0.00100066 0.00000000 0.01927579)
(0.01505989 -0.00012555 0.00000000 0.00098839 0.00000000 0.01933436)
(0.01500571 -0.00013897 0.00000000 0.00098230 0.00000000 0.01936764)
(0.01503250 -0.00015711 0.00000000 0.00098571 0.00000000 0.01930950)
(0.01499483 -0.00014158 0.00000000 0.00097222 0.00000000 0.01930444)
(0.01493653 -0.00015551 0.00000000 0.00096410 0.00000000 0.01920738)
(0.01497722 -0.00018943 0.00000000 0.00098797 0.00000000 0.01910771)
(0.01521359 -0.00020914 0.00000000 0.00099802 0.00000000 0.01917224)
(0.01537340 -0.00018592 0.00000000 0.00099511 0.00000000 0.01932479)
(0.01537699 -0.00018491 0.00000000 0.00098753 0.00000000 0.01940436)
(0.01529761 -0.00019908 0.00000000 0.00098016 0.00000000 0.01962953)
(0.01526286 -0.00020196 0.00000000 0.00097117 0.00000000 0.01975868)
(0.01531262 -0.00023164 0.00000000 0.00096642 0.00000000 0.01980027)
(0.01558910 -0.00026071 0.00000000 0.00096659 0.00000000 0.02010169)
(0.01585131 -0.00026573 0.00000000 0.00098596 0.00000000 0.02052249)
(0.01599983 -0.00026394 0.00000000 0.00101899 0.00000000 0.02129468)
(0.01560182 -0.00009722 0.00000000 0.00106068 0.00000000 0.02252805)
(0.01444236 0.00069965 0.00000000 0.00119920 0.00000000 0.02458992)
(0.01436856 0.00197133 0.00000000 0.00134278 0.00000000 0.02393272)
(0.01415987 0.00236437 0.00000000 0.00138039 0.00000000 0.02412807)
(0.01314710 0.00322139 0.00000000 0.00177311 0.00000000 0.02557727)
(0.01330756 0.00373901 0.00000000 0.00189357 0.00000000 0.02463894)
(0.01342382 0.00460625 0.00000000 0.00238163 0.00000000 0.02462375)
(0.01295386 0.00536760 0.00000000 0.00293217 0.00000000 0.02460479)
(0.01160783 0.00531094 0.00000000 0.00330625 0.00000000 0.02930533)
(0.01047760 0.00556348 0.00000000 0.00373619 0.00000000 0.02925387)
(0.01015860 0.00575682 0.00000000 0.00363417 0.00000000 0.02252511)
(0.00776445 0.00515928 0.00000000 0.00395421 0.00000000 0.02675952)
(0.00840392 0.00518895 0.00000000 0.00362095 0.00000000 0.02751343)
(0.00650246 0.00463393 0.00000000 0.00368779 0.00000000 0.02650024)
(0.00494674 0.00381295 0.00000000 0.00342057 0.00000000 0.02288035)
(0.00584221 0.00454060 0.00000000 0.00378081 0.00000000 0.01812239)
(0.00559188 0.00368119 0.00000000 0.00255836 0.00000000 0.01902877)
(0.00423265 0.00302496 0.00000000 0.00235268 0.00000000 0.02001703)
(0.00518897 0.00334554 0.00000000 0.00242315 0.00000000 0.02300863)
(0.00432181 0.00340402 0.00000000 0.00294377 0.00000000 0.02597709)
(0.00215155 0.00234814 0.00000000 0.00273832 0.00000000 0.01967327)
(0.00329890 0.00269145 0.00000000 0.00260299 0.00000000 0.02381029)
(0.00206347 0.00224150 0.00000000 0.00256277 0.00000000 0.01502273)
(0.00179065 0.00206041 0.00000000 0.00256071 0.00000000 0.02033055)
(0.00233677 0.00198901 0.00000000 0.00195326 0.00000000 0.02197758)
(0.00084746 0.00131930 0.00000000 0.00186879 0.00000000 0.01416458)
(0.00146708 0.00136412 0.00000000 0.00148275 0.00000000 0.01830611)
(0.00233948 0.00175986 0.00000000 0.00137491 0.00000000 0.01937584)
(0.00174756 0.00119242 0.00000000 0.00083548 0.00000000 0.01367175)
(0.00335738 0.00222641 0.00000000 0.00151715 0.00000000 0.01245837)
(0.00629907 0.00421599 0.00000000 0.00293000 0.00000000 0.02270161)
(0.01026409 0.00680106 0.00000000 0.00475216 0.00000000 0.03433753)
(0.00927720 0.00639330 0.00000000 0.00453725 0.00000000 0.02516237)
(0.00647884 0.00279559 0.00000000 0.00138369 0.00000000 0.00822486)
(0.00748418 0.00357654 0.00000000 0.00175415 0.00000000 0.01320654)
(0.01545712 0.00546625 0.00000000 0.00204932 0.00000000 0.01546720)
(0.02026387 0.00096720 0.00000000 0.00037981 0.00000000 0.01463995)
(0.02583268 0.00175362 0.00000000 0.00030709 0.00000000 0.01289967)
(0.02834722 0.00003270 0.00000000 0.00023585 0.00000000 0.01380974)
(0.02776421 -0.00063909 0.00000000 0.00029922 0.00000000 0.01374449)
(0.02778552 -0.00079820 0.00000000 0.00034923 0.00000000 0.01388253)
(0.04214991 -0.00161816 0.00000000 0.00081434 0.00000000 0.01996901)
(0.04326402 -0.00186523 0.00000000 0.00094748 0.00000000 0.02052737)
(0.04284165 -0.00196740 0.00000000 0.00094180 0.00000000 0.01978660)
(0.03670822 -0.00375237 0.00000000 0.00113546 0.00000000 0.01401441)
(0.02390814 -0.00344439 0.00000000 0.00118736 0.00000000 0.01085075)
(0.01085945 -0.00320061 0.00000000 0.00176181 0.00000000 0.00952218)
(0.00651816 -0.00241614 0.00000000 0.00188565 0.00000000 0.00881660)
(0.00556000 -0.00369987 0.00000000 0.00315660 0.00000000 0.00793585)
(0.00567348 -0.00388534 0.00000000 0.00397942 0.00000000 0.01081596)
(0.00610782 -0.00412905 0.00000000 0.00404562 0.00000000 0.01073506)
(0.00624586 -0.00427424 0.00000000 0.00375740 0.00000000 0.00972202)
(0.00552556 -0.00389438 0.00000000 0.00318603 0.00000000 0.00780138)
(0.00424102 -0.00324104 0.00000000 0.00294027 0.00000000 0.00782682)
(0.00368234 -0.00300878 0.00000000 0.00285399 0.00000000 0.00761315)
(0.00367960 -0.00299319 0.00000000 0.00279978 0.00000000 0.00719233)
(0.00318037 -0.00276901 0.00000000 0.00275999 0.00000000 0.00617554)
(0.00355186 -0.00277858 0.00000000 0.00248132 0.00000000 0.00646729)
(0.00350803 -0.00276055 0.00000000 0.00247306 0.00000000 0.00588634)
(0.00358673 -0.00291206 0.00000000 0.00263641 0.00000000 0.00537370)
(0.00365517 -0.00273243 0.00000000 0.00229758 0.00000000 0.00552535)
(0.00376314 -0.00286015 0.00000000 0.00242555 0.00000000 0.00528114)
(0.00400423 -0.00294608 0.00000000 0.00241082 0.00000000 0.00523101)
(0.00441299 -0.00304791 0.00000000 0.00234892 0.00000000 0.00501850)
(0.00454751 -0.00323866 0.00000000 0.00253320 0.00000000 0.00494576)
(0.00485405 -0.00350982 0.00000000 0.00277843 0.00000000 0.00515474)
(0.00501648 -0.00361230 0.00000000 0.00287959 0.00000000 0.00542820)
(0.00532222 -0.00361373 0.00000000 0.00276167 0.00000000 0.00585974)
(0.00570728 -0.00371575 0.00000000 0.00276770 0.00000000 0.00618688)
(0.00620442 -0.00368423 0.00000000 0.00256487 0.00000000 0.00645860)
(0.00632590 -0.00363593 0.00000000 0.00249641 0.00000000 0.00684529)
(0.00681397 -0.00382279 0.00000000 0.00264305 0.00000000 0.00744303)
(0.00726903 -0.00335609 0.00000000 0.00210124 0.00000000 0.00791928)
(0.00777439 -0.00305757 0.00000000 0.00177976 0.00000000 0.00788751)
(0.00816854 -0.00296661 0.00000000 0.00166915 0.00000000 0.00804705)
(0.00855174 -0.00268091 0.00000000 0.00148664 0.00000000 0.00832795)
(0.00912358 -0.00237163 0.00000000 0.00132022 0.00000000 0.00854819)
(0.00941024 -0.00185892 0.00000000 0.00113736 0.00000000 0.00873122)
(0.01000568 -0.00151789 0.00000000 0.00103895 0.00000000 0.00886609)
(0.01031040 -0.00105060 0.00000000 0.00098610 0.00000000 0.00916019)
(0.01100389 -0.00037846 0.00000000 0.00091354 0.00000000 0.00922829)
(0.01201511 -0.00015450 0.00000000 0.00093003 0.00000000 0.00972987)
(0.01288878 -0.00010040 0.00000000 0.00103309 0.00000000 0.01073591)
(0.01349588 -0.00006942 0.00000000 0.00113809 0.00000000 0.01185298)
(0.01394661 -0.00007805 0.00000000 0.00124963 0.00000000 0.01295903)
(0.01428858 -0.00006941 0.00000000 0.00133883 0.00000000 0.01403733)
(0.01447994 -0.00005469 0.00000000 0.00141856 0.00000000 0.01504711)
(0.01455681 -0.00006771 0.00000000 0.00148877 0.00000000 0.01595221)
(0.01469469 -0.00010860 0.00000000 0.00156920 0.00000000 0.01689297)
(0.01492288 -0.00015320 0.00000000 0.00164113 0.00000000 0.01780876)
(0.01524169 -0.00021607 0.00000000 0.00171331 0.00000000 0.01870014)
(0.01554258 -0.00021607 0.00000000 0.00178363 0.00000000 0.01944522)
(0.01579401 -0.00025236 0.00000000 0.00185435 0.00000000 0.02010817)
(0.01614728 -0.00028330 0.00000000 0.00192266 0.00000000 0.02074398)
(0.01639270 -0.00025133 0.00000000 0.00194829 0.00000000 0.02124555)
(0.01653150 -0.00028725 0.00000000 0.00200608 0.00000000 0.02170603)
(0.01669784 -0.00029489 0.00000000 0.00203484 0.00000000 0.02221802)
(0.01681975 -0.00032971 0.00000000 0.00206252 0.00000000 0.02257003)
(0.01711445 -0.00040476 0.00000000 0.00208910 0.00000000 0.02284231)
(0.01750828 -0.00039278 0.00000000 0.00213325 0.00000000 0.02309927)
(0.01773077 -0.00039119 0.00000000 0.00215716 0.00000000 0.02333062)
(0.01797720 -0.00040533 0.00000000 0.00216457 0.00000000 0.02360312)
(0.01814151 -0.00039162 0.00000000 0.00217547 0.00000000 0.02376144)
(0.01835062 -0.00044488 0.00000000 0.00221601 0.00000000 0.02406764)
(0.01861667 -0.00044973 0.00000000 0.00220609 0.00000000 0.02434125)
(0.01876425 -0.00040088 0.00000000 0.00218355 0.00000000 0.02442012)