/*--------------------------------*- C++ -*----------------------------------*\
  =========                 |
  \\      /  F ield         | OpenFOAM: The Open Source CFD Toolbox
   \\    /   O peration     | Website:  https://openfoam.org
    \\  /    A nd           | Version:  7
     \\/     M anipulation  |
\*---------------------------------------------------------------------------*/
FoamFile
{
    version     2.0;
    format      ascii;
    class       volVectorField;
    location    "0";
    object      U_LES;
}
// * * * * * * * * * * * * * * * * * * * * * * * * * * * * * * * * * * * * * //

dimensions      [0 1 -1 0 0 0 0];

internalField   nonuniform List<vector>
15600
(
(0.06479959 -0.00022106 0.00000000)
(0.07037598 -0.00004361 0.00000000)
(0.06294230 -0.00072143 0.00000000)
(0.01408028 -0.00258867 0.00000000)
(0.00503975 -0.00024548 0.00000000)
(-0.00368835 0.00090117 0.00000000)
(-0.00319956 0.00083453 0.00000000)
(-0.00475828 0.00340493 0.00000000)
(-0.01174565 0.00859792 0.00000000)
(-0.01287509 0.00938788 0.00000000)
(-0.00973698 0.00705378 0.00000000)
(-0.00366364 0.00229272 0.00000000)
(-0.00544233 0.00393463 0.00000000)
(-0.00564707 0.00430206 0.00000000)
(-0.00524612 0.00365784 0.00000000)
(-0.00543690 0.00423594 0.00000000)
(-0.00525579 0.00364780 0.00000000)
(-0.00536386 0.00365911 0.00000000)
(-0.00533251 0.00382545 0.00000000)
(-0.00622868 0.00417437 0.00000000)
(-0.00626980 0.00423802 0.00000000)
(-0.00737772 0.00458000 0.00000000)
(-0.00729959 0.00467902 0.00000000)
(-0.00570984 0.00374243 0.00000000)
(-0.00692897 0.00690354 0.00000000)
(-0.01028817 0.00690636 0.00000000)
(-0.01147210 0.00650678 0.00000000)
(-0.01204015 0.00781001 0.00000000)
(-0.01244846 0.00720221 0.00000000)
(-0.01544523 0.00877436 0.00000000)
(-0.01458524 0.01296322 0.00000000)
(-0.02196081 0.01184518 0.00000000)
(-0.01958111 0.00870128 0.00000000)
(-0.01737209 0.00824159 0.00000000)
(-0.01813077 0.00818624 0.00000000)
(-0.01456338 0.00516135 0.00000000)
(-0.01972023 0.00378314 0.00000000)
(-0.01704052 0.00358403 0.00000000)
(-0.01997373 0.00345581 0.00000000)
(-0.01963981 0.00042323 0.00000000)
(-0.01842149 0.00015630 0.00000000)
(-0.02137502 0.00009181 0.00000000)
(-0.02483056 0.00010220 0.00000000)
(-0.02762960 0.00008836 0.00000000)
(-0.03019125 0.00005741 0.00000000)
(-0.03213684 0.00004914 0.00000000)
(-0.03386665 0.00004943 0.00000000)
(-0.03535602 0.00004077 0.00000000)
(-0.03671738 0.00003064 0.00000000)
(-0.03773710 0.00002111 0.00000000)
(-0.03829615 0.00001677 0.00000000)
(-0.03878014 0.00001155 0.00000000)
(-0.03907329 0.00000401 0.00000000)
(-0.03863099 0.00000357 0.00000000)
(-0.03874127 -0.00001378 0.00000000)
(-0.03847323 -0.00000792 0.00000000)
(-0.03795107 -0.00001237 0.00000000)
(-0.03723559 -0.00002011 0.00000000)
(-0.03698884 -0.00000616 0.00000000)
(-0.03651761 -0.00001738 0.00000000)
(-0.03581782 -0.00001368 0.00000000)
(-0.03552175 -0.00000831 0.00000000)
(-0.03465262 -0.00003191 0.00000000)
(-0.03351885 -0.00003741 0.00000000)
(-0.03237307 -0.00002804 0.00000000)
(-0.03107712 -0.00003998 0.00000000)
(-0.02998673 -0.00003014 0.00000000)
(-0.02872300 -0.00003117 0.00000000)
(-0.02801342 -0.00002483 0.00000000)
(-0.02697226 -0.00001990 0.00000000)
(-0.02665480 -0.00001106 0.00000000)
(-0.02625797 -0.00001787 0.00000000)
(-0.02600847 0.00000273 0.00000000)
(-0.02604136 -0.00000178 0.00000000)
(-0.02580487 -0.00001150 0.00000000)
(-0.02573576 0.00001004 0.00000000)
(-0.02619615 0.00002177 0.00000000)
(-0.02720008 0.00003798 0.00000000)
(-0.02842398 0.00001229 0.00000000)
(-0.03069449 0.00002195 0.00000000)
(-0.03694959 -0.00092617 0.00000000)
(-0.02370455 -0.00182726 0.00000000)
(-0.01225903 -0.00344703 0.00000000)
(-0.01261700 -0.00513659 0.00000000)
(-0.00604643 -0.00239606 0.00000000)
(-0.00384633 -0.00248247 0.00000000)
(-0.00472543 -0.00255097 0.00000000)
(-0.00944658 -0.00486069 0.00000000)
(-0.00537169 -0.00282432 0.00000000)
(0.00278460 0.00159907 0.00000000)
(-0.00053658 -0.00019355 0.00000000)
(0.00125932 0.00069543 0.00000000)
(-0.00011092 -0.00002750 0.00000000)
(-0.00000931 -0.00011537 0.00000000)
(-0.00027870 0.00001100 0.00000000)
(0.00046672 0.00018882 0.00000000)
(0.00003182 0.00000790 0.00000000)
(-0.00050322 -0.00027617 0.00000000)
(0.00009837 0.00005340 0.00000000)
(-0.00016759 -0.00017107 0.00000000)
(0.00022308 0.00021383 0.00000000)
(0.00156074 0.00013078 0.00000000)
(0.00024693 -0.00000759 0.00000000)
(0.00257198 0.00181666 0.00000000)
(0.00255715 -0.00016512 0.00000000)
(-0.00069540 -0.00041534 0.00000000)
(0.00707742 0.00326325 0.00000000)
(-0.00510551 -0.00344202 0.00000000)
(-0.00896943 -0.00561899 0.00000000)
(0.02259704 0.01666502 0.00000000)
(0.02360490 0.01738385 0.00000000)
(0.00519143 0.00387671 0.00000000)
(-0.02405855 -0.01039501 0.00000000)
(0.01234375 0.01146326 0.00000000)
(0.01964726 0.03379556 0.00000000)
(0.03241122 0.00190371 0.00000000)
(0.02102466 -0.00254781 0.00000000)
(0.06794046 -0.00038738 0.00000000)
(0.06867675 0.00135260 0.00000000)
(0.06388250 0.00002743 0.00000000)
(0.13028019 -0.00041854 0.00000000)
(0.13807905 -0.00064762 0.00000000)
(0.13112572 -0.00155803 0.00000000)
(0.07538203 -0.00520136 0.00000000)
(0.02997502 -0.00172306 0.00000000)
(-0.00497368 0.00137519 0.00000000)
(-0.01220920 0.00330467 0.00000000)
(-0.01278576 0.00939532 0.00000000)
(-0.01921341 0.01390252 0.00000000)
(-0.02022287 0.01471047 0.00000000)
(-0.01755421 0.01275184 0.00000000)
(-0.01184988 0.00847324 0.00000000)
(-0.01223774 0.00933710 0.00000000)
(-0.01172780 0.00887567 0.00000000)
(-0.01133236 0.00870631 0.00000000)
(-0.01097988 0.00908972 0.00000000)
(-0.01174700 0.00877007 0.00000000)
(-0.01220025 0.00948000 0.00000000)
(-0.01231655 0.01081536 0.00000000)
(-0.01466179 0.01081630 0.00000000)
(-0.01582046 0.01220129 0.00000000)
(-0.01840237 0.01323986 0.00000000)
(-0.01963264 0.01367205 0.00000000)
(-0.02142118 0.01490787 0.00000000)
(-0.02216659 0.02044143 0.00000000)
(-0.02617235 0.02029210 0.00000000)
(-0.03087492 0.02132891 0.00000000)
(-0.03582490 0.02426079 0.00000000)
(-0.03750448 0.02350306 0.00000000)
(-0.04016575 0.02457015 0.00000000)
(-0.04119915 0.03202786 0.00000000)
(-0.04666559 0.02509186 0.00000000)
(-0.04560234 0.02024554 0.00000000)
(-0.04580167 0.02022080 0.00000000)
(-0.04551192 0.01753233 0.00000000)
(-0.04770904 0.01466869 0.00000000)
(-0.04633012 0.01105561 0.00000000)
(-0.04593388 0.00930477 0.00000000)
(-0.04871133 0.00799960 0.00000000)
(-0.04831577 0.00230510 0.00000000)
(-0.05358286 0.00131005 0.00000000)
(-0.06256356 0.00106949 0.00000000)
(-0.07110258 0.00090955 0.00000000)
(-0.07829401 0.00073399 0.00000000)
(-0.08375068 0.00059365 0.00000000)
(-0.08858438 0.00050888 0.00000000)
(-0.09273390 0.00047319 0.00000000)
(-0.09617635 0.00035402 0.00000000)
(-0.09887274 0.00030918 0.00000000)
(-0.10063920 0.00017104 0.00000000)
(-0.10176976 0.00013941 0.00000000)
(-0.10291076 0.00010745 0.00000000)
(-0.10304658 -0.00001624 0.00000000)
(-0.10256775 -0.00002100 0.00000000)
(-0.10166082 -0.00012519 0.00000000)
(-0.10024820 -0.00013315 0.00000000)
(-0.09863024 -0.00015727 0.00000000)
(-0.09718680 -0.00018366 0.00000000)
(-0.09570695 -0.00012099 0.00000000)
(-0.09435842 -0.00016832 0.00000000)
(-0.09289454 -0.00015739 0.00000000)
(-0.09117152 -0.00015820 0.00000000)
(-0.08907019 -0.00030633 0.00000000)
(-0.08577619 -0.00039063 0.00000000)
(-0.08243487 -0.00034354 0.00000000)
(-0.07917899 -0.00037059 0.00000000)
(-0.07610595 -0.00031250 0.00000000)
(-0.07349379 -0.00030420 0.00000000)
(-0.07113611 -0.00021731 0.00000000)
(-0.06927966 -0.00020111 0.00000000)
(-0.06775822 -0.00013937 0.00000000)
(-0.06641100 -0.00014156 0.00000000)
(-0.06558004 -0.00000983 0.00000000)
(-0.06558821 -0.00003982 0.00000000)
(-0.06481440 -0.00007158 0.00000000)
(-0.06501834 0.00008368 0.00000000)
(-0.06597613 0.00020108 0.00000000)
(-0.06831657 0.00032524 0.00000000)
(-0.07048076 0.00023318 0.00000000)
(-0.07130892 -0.00021816 0.00000000)
(-0.06683398 -0.00446793 0.00000000)
(-0.05975985 -0.01017931 0.00000000)
(-0.06180126 -0.01042790 0.00000000)
(-0.05631327 -0.01571730 0.00000000)
(-0.04866872 -0.01604138 0.00000000)
(-0.04325523 -0.01812157 0.00000000)
(-0.03583933 -0.01882117 0.00000000)
(-0.04222619 -0.02160289 0.00000000)
(-0.03443511 -0.01973676 0.00000000)
(-0.01836663 -0.00962685 0.00000000)
(-0.01681776 -0.01145383 0.00000000)
(-0.01670860 -0.00965315 0.00000000)
(-0.01073113 -0.00665137 0.00000000)
(-0.00539186 -0.00511683 0.00000000)
(-0.00128233 -0.00153878 0.00000000)
(-0.00266434 -0.00132440 0.00000000)
(-0.00023364 -0.00025425 0.00000000)
(0.00134401 0.00069239 0.00000000)
(0.00611640 0.00370148 0.00000000)
(0.00581654 0.00366722 0.00000000)
(0.01082760 0.00692254 0.00000000)
(0.00579959 0.00529027 0.00000000)
(0.01144095 0.00778436 0.00000000)
(0.01789320 0.01282101 0.00000000)
(0.01188968 0.00971960 0.00000000)
(0.01584171 0.00959176 0.00000000)
(0.02233992 0.01533977 0.00000000)
(0.01997118 0.01191816 0.00000000)
(0.00218807 0.00201202 0.00000000)
(0.07508373 0.05404632 0.00000000)
(0.12636635 0.09192862 0.00000000)
(0.11247576 0.08295461 0.00000000)
(-0.01717321 -0.00533164 0.00000000)
(0.06589869 0.04713759 0.00000000)
(0.08038436 0.05761354 0.00000000)
(0.15136895 0.00866745 0.00000000)
(0.14337344 0.00804014 0.00000000)
(0.15790088 0.00345471 0.00000000)
(0.14133782 0.00239273 0.00000000)
(0.13064862 0.00029746 0.00000000)
(0.21118396 -0.00034039 0.00000000)
(0.21834476 -0.00182728 0.00000000)
(0.21105721 -0.00289640 0.00000000)
(0.15627401 -0.00806689 0.00000000)
(0.07228989 -0.00500722 0.00000000)
(0.00515089 0.00117593 0.00000000)
(-0.01910970 0.00642418 0.00000000)
(-0.02123283 0.01627089 0.00000000)
(-0.02665396 0.01914582 0.00000000)
(-0.02732211 0.01985379 0.00000000)
(-0.02537025 0.01849347 0.00000000)
(-0.02105350 0.01547175 0.00000000)
(-0.02033220 0.01567827 0.00000000)
(-0.01906078 0.01477699 0.00000000)
(-0.01845675 0.01463815 0.00000000)
(-0.01769150 0.01577647 0.00000000)
(-0.01922710 0.01474963 0.00000000)
(-0.01999417 0.01600068 0.00000000)
(-0.02088368 0.01843293 0.00000000)
(-0.02388473 0.01817916 0.00000000)
(-0.02644907 0.02073481 0.00000000)
(-0.02978972 0.02249591 0.00000000)
(-0.03296125 0.02443788 0.00000000)
(-0.03757904 0.02792995 0.00000000)
(-0.04136774 0.03360293 0.00000000)
(-0.04452913 0.03590646 0.00000000)
(-0.05048671 0.03670015 0.00000000)
(-0.05576118 0.03891753 0.00000000)
(-0.05870095 0.03790821 0.00000000)
(-0.06094114 0.03803705 0.00000000)
(-0.06588147 0.04393154 0.00000000)
(-0.06777156 0.03689625 0.00000000)
(-0.06933651 0.03181905 0.00000000)
(-0.06984629 0.02995595 0.00000000)
(-0.06994652 0.02656445 0.00000000)
(-0.07191820 0.02312824 0.00000000)
(-0.07158724 0.01774875 0.00000000)
(-0.07252882 0.01402521 0.00000000)
(-0.07364059 0.01050938 0.00000000)
(-0.07681845 0.00501261 0.00000000)
(-0.08620624 0.00332752 0.00000000)
(-0.09850173 0.00265830 0.00000000)
(-0.10951349 0.00227319 0.00000000)
(-0.11847195 0.00182558 0.00000000)
(-0.12557537 0.00146161 0.00000000)
(-0.13141369 0.00124465 0.00000000)
(-0.13642031 0.00113479 0.00000000)
(-0.14041484 0.00083060 0.00000000)
(-0.14327994 0.00068502 0.00000000)
(-0.14523326 0.00036106 0.00000000)
(-0.14611198 0.00029764 0.00000000)
(-0.14678285 0.00016533 0.00000000)
(-0.14606078 -0.00012895 0.00000000)
(-0.14489079 -0.00017602 0.00000000)
(-0.14293109 -0.00037214 0.00000000)
(-0.14089806 -0.00039723 0.00000000)
(-0.13869582 -0.00045695 0.00000000)
(-0.13620025 -0.00050316 0.00000000)
(-0.13383912 -0.00037043 0.00000000)
(-0.13156432 -0.00047140 0.00000000)
(-0.12885845 -0.00048712 0.00000000)
(-0.12610073 -0.00050242 0.00000000)
(-0.12266699 -0.00083718 0.00000000)
(-0.11787694 -0.00103916 0.00000000)
(-0.11308419 -0.00093350 0.00000000)
(-0.10850325 -0.00096506 0.00000000)
(-0.10422712 -0.00082791 0.00000000)
(-0.10050408 -0.00076798 0.00000000)
(-0.09754949 -0.00057182 0.00000000)
(-0.09489377 -0.00050578 0.00000000)
(-0.09281009 -0.00039529 0.00000000)
(-0.09085390 -0.00037413 0.00000000)
(-0.08946238 -0.00006946 0.00000000)
(-0.08917133 -0.00011220 0.00000000)
(-0.08837511 -0.00015370 0.00000000)
(-0.08837579 0.00019534 0.00000000)
(-0.08976166 0.00047960 0.00000000)
(-0.09200765 0.00072673 0.00000000)
(-0.09354930 0.00034302 0.00000000)
(-0.09256067 -0.00074856 0.00000000)
(-0.08615746 -0.00698762 0.00000000)
(-0.08462012 -0.01372380 0.00000000)
(-0.08391651 -0.01528655 0.00000000)
(-0.07907788 -0.02155770 0.00000000)
(-0.07805277 -0.02370431 0.00000000)
(-0.07619301 -0.02675367 0.00000000)
(-0.07129291 -0.03137626 0.00000000)
(-0.06245521 -0.03218133 0.00000000)
(-0.05298193 -0.03146116 0.00000000)
(-0.04868687 -0.02832829 0.00000000)
(-0.03449345 -0.02722039 0.00000000)
(-0.03239703 -0.02285007 0.00000000)
(-0.02105640 -0.01860359 0.00000000)
(-0.01172308 -0.01199998 0.00000000)
(-0.00924463 -0.00524462 0.00000000)
(-0.00348305 -0.00321829 0.00000000)
(0.00394385 0.00086470 0.00000000)
(0.01031490 0.00534350 0.00000000)
(0.01856204 0.01207858 0.00000000)
(0.01945459 0.01935344 0.00000000)
(0.02798471 0.02292661 0.00000000)
(0.02290821 0.02507918 0.00000000)
(0.03300263 0.03545698 0.00000000)
(0.04177480 0.03617561 0.00000000)
(0.03011554 0.03716271 0.00000000)
(0.04720403 0.04448543 0.00000000)
(0.06561072 0.05071953 0.00000000)
(0.07091060 0.05070367 0.00000000)
(0.07196704 0.05102720 0.00000000)
(0.17193344 0.12192124 0.00000000)
(0.24166256 0.17096374 0.00000000)
(0.25878398 0.18719454 0.00000000)
(0.13323680 0.06264680 0.00000000)
(0.19813598 0.10851529 0.00000000)
(0.28482211 0.12301193 0.00000000)
(0.31963434 0.03248468 0.00000000)
(0.32465066 0.03425584 0.00000000)
(0.28339953 0.01217423 0.00000000)
(0.23994020 0.00396391 0.00000000)
(0.21646497 0.00132033 0.00000000)
(0.29893541 -0.00047339 0.00000000)
(0.30228326 -0.00280855 0.00000000)
(0.29558337 -0.00436497 0.00000000)
(0.24376952 -0.01085000 0.00000000)
(0.13134764 -0.01010956 0.00000000)
(0.02880221 -0.00085976 0.00000000)
(-0.01986601 0.00932322 0.00000000)
(-0.02921498 0.02262086 0.00000000)
(-0.03330543 0.02389151 0.00000000)
(-0.03434111 0.02492756 0.00000000)
(-0.03251533 0.02376963 0.00000000)
(-0.03001718 0.02255571 0.00000000)
(-0.02783589 0.02107128 0.00000000)
(-0.02595393 0.02043381 0.00000000)
(-0.02529284 0.02022904 0.00000000)
(-0.02405301 0.02206860 0.00000000)
(-0.02653038 0.02076175 0.00000000)
(-0.02746682 0.02263323 0.00000000)
(-0.02963497 0.02590992 0.00000000)
(-0.03293095 0.02572545 0.00000000)
(-0.03607684 0.02936622 0.00000000)
(-0.04061519 0.03175892 0.00000000)
(-0.04549440 0.03466800 0.00000000)
(-0.05056477 0.03922827 0.00000000)
(-0.05607175 0.04446013 0.00000000)
(-0.06081196 0.04851047 0.00000000)
(-0.06623512 0.04958385 0.00000000)
(-0.07154863 0.05172037 0.00000000)
(-0.07680213 0.05162952 0.00000000)
(-0.07996973 0.05159503 0.00000000)
(-0.08428585 0.05366562 0.00000000)
(-0.08647232 0.04673752 0.00000000)
(-0.08910239 0.04183701 0.00000000)
(-0.09113862 0.03909146 0.00000000)
(-0.09226497 0.03451258 0.00000000)
(-0.09394223 0.02981764 0.00000000)
(-0.09406761 0.02332340 0.00000000)
(-0.09577804 0.01855170 0.00000000)
(-0.09714914 0.01341578 0.00000000)
(-0.10279505 0.00792113 0.00000000)
(-0.11428139 0.00568634 0.00000000)
(-0.12782483 0.00463360 0.00000000)
(-0.13961440 0.00389598 0.00000000)
(-0.14904740 0.00310105 0.00000000)
(-0.15632692 0.00247345 0.00000000)
(-0.16225138 0.00208425 0.00000000)
(-0.16702293 0.00184548 0.00000000)
(-0.17084115 0.00132999 0.00000000)
(-0.17330522 0.00103259 0.00000000)
(-0.17462381 0.00051088 0.00000000)
(-0.17507898 0.00040779 0.00000000)
(-0.17521912 0.00013316 0.00000000)
(-0.17384567 -0.00037613 0.00000000)
(-0.17167914 -0.00048168 0.00000000)
(-0.16915447 -0.00074496 0.00000000)
(-0.16631572 -0.00078968 0.00000000)
(-0.16338313 -0.00090244 0.00000000)
(-0.16013832 -0.00094573 0.00000000)
(-0.15714738 -0.00076319 0.00000000)
(-0.15406661 -0.00091799 0.00000000)
(-0.15046319 -0.00099609 0.00000000)
(-0.14671764 -0.00105093 0.00000000)
(-0.14217841 -0.00156935 0.00000000)
(-0.13659582 -0.00188531 0.00000000)
(-0.13089527 -0.00172927 0.00000000)
(-0.12548977 -0.00172727 0.00000000)
(-0.12064315 -0.00148784 0.00000000)
(-0.11637487 -0.00135324 0.00000000)
(-0.11287053 -0.00103855 0.00000000)
(-0.10987589 -0.00089097 0.00000000)
(-0.10741496 -0.00074959 0.00000000)
(-0.10499339 -0.00068350 0.00000000)
(-0.10330888 -0.00020149 0.00000000)
(-0.10245321 -0.00022693 0.00000000)
(-0.10162298 -0.00024063 0.00000000)
(-0.10158179 0.00028962 0.00000000)
(-0.10253895 0.00075056 0.00000000)
(-0.10431378 0.00104004 0.00000000)
(-0.10487719 0.00033437 0.00000000)
(-0.10278355 -0.00144397 0.00000000)
(-0.09775160 -0.00853405 0.00000000)
(-0.09764360 -0.01525324 0.00000000)
(-0.09629290 -0.01863545 0.00000000)
(-0.09295484 -0.02602490 0.00000000)
(-0.08951804 -0.02878684 0.00000000)
(-0.08608481 -0.03308513 0.00000000)
(-0.08428906 -0.03521455 0.00000000)
(-0.07221123 -0.03801303 0.00000000)
(-0.06213324 -0.03935315 0.00000000)
(-0.05734349 -0.03486278 0.00000000)
(-0.04777450 -0.03533112 0.00000000)
(-0.03771882 -0.02845855 0.00000000)
(-0.02771287 -0.02446432 0.00000000)
(-0.02033676 -0.01654978 0.00000000)
(-0.01081569 -0.00768031 0.00000000)
(0.00196496 -0.00188228 0.00000000)
(0.01298398 0.00476816 0.00000000)
(0.02399624 0.01256095 0.00000000)
(0.03392338 0.02421021 0.00000000)
(0.04095389 0.03778183 0.00000000)
(0.05148422 0.04606519 0.00000000)
(0.06087150 0.05209898 0.00000000)
(0.06983637 0.06824235 0.00000000)
(0.07849441 0.07577621 0.00000000)
(0.08236629 0.08071019 0.00000000)
(0.09314569 0.10183669 0.00000000)
(0.11531262 0.09727935 0.00000000)
(0.14786099 0.12374851 0.00000000)
(0.18001116 0.12766838 0.00000000)
(0.27028376 0.18790544 0.00000000)
(0.34010049 0.23543841 0.00000000)
(0.38339991 0.26773403 0.00000000)
(0.37538849 0.16674654 0.00000000)
(0.41704909 0.19388495 0.00000000)
(0.51008330 0.18075266 0.00000000)
(0.51277553 0.07905690 0.00000000)
(0.48707494 0.05928335 0.00000000)
(0.41898113 0.02227800 0.00000000)
(0.35129717 0.00767700 0.00000000)
(0.31112772 0.00245899 0.00000000)
(0.38572700 0.00003935 0.00000000)
(0.38287632 -0.00305948 0.00000000)
(0.37357150 -0.00581125 0.00000000)
(0.32757187 -0.01268864 0.00000000)
(0.20294988 -0.01554173 0.00000000)
(0.06773714 -0.00517359 0.00000000)
(-0.01372816 0.01016140 0.00000000)
(-0.03480089 0.02564751 0.00000000)
(-0.03970078 0.02852594 0.00000000)
(-0.04198445 0.03041353 0.00000000)
(-0.04048843 0.02959952 0.00000000)
(-0.03779330 0.02873662 0.00000000)
(-0.03498682 0.02704098 0.00000000)
(-0.03318546 0.02601942 0.00000000)
(-0.03134396 0.02622759 0.00000000)
(-0.03198673 0.02835213 0.00000000)
(-0.03334670 0.02714743 0.00000000)
(-0.03519100 0.02966304 0.00000000)
(-0.03881122 0.03328328 0.00000000)
(-0.04179060 0.03383602 0.00000000)
(-0.04601965 0.03808496 0.00000000)
(-0.05122971 0.04104241 0.00000000)
(-0.05712228 0.04501057 0.00000000)
(-0.06296198 0.05016911 0.00000000)
(-0.06935900 0.05507720 0.00000000)
(-0.07492170 0.05899419 0.00000000)
(-0.08018946 0.06126790 0.00000000)
(-0.08614547 0.06293145 0.00000000)
(-0.09183744 0.06258309 0.00000000)
(-0.09544057 0.06221694 0.00000000)
(-0.09899765 0.06142867 0.00000000)
(-0.10094913 0.05522822 0.00000000)
(-0.10510443 0.05013077 0.00000000)
(-0.10778803 0.04636573 0.00000000)
(-0.10953438 0.04084137 0.00000000)
(-0.11147040 0.03521388 0.00000000)
(-0.11285863 0.02841950 0.00000000)
(-0.11532127 0.02245521 0.00000000)
(-0.11808239 0.01667998 0.00000000)
(-0.12538776 0.01095519 0.00000000)
(-0.13761601 0.00819539 0.00000000)
(-0.15117612 0.00671869 0.00000000)
(-0.16278067 0.00558950 0.00000000)
(-0.17182069 0.00440075 0.00000000)
(-0.17866272 0.00348710 0.00000000)
(-0.18414805 0.00290675 0.00000000)
(-0.18841578 0.00250118 0.00000000)
(-0.19145462 0.00177849 0.00000000)
(-0.19334027 0.00128164 0.00000000)
(-0.19394356 0.00058252 0.00000000)
(-0.19393533 0.00042635 0.00000000)
(-0.19331907 -0.00000924 0.00000000)
(-0.19135651 -0.00075460 0.00000000)
(-0.18849183 -0.00091906 0.00000000)
(-0.18531952 -0.00123203 0.00000000)
(-0.18202867 -0.00128512 0.00000000)
(-0.17849646 -0.00146280 0.00000000)
(-0.17469046 -0.00150182 0.00000000)
(-0.17106208 -0.00129177 0.00000000)
(-0.16730494 -0.00149100 0.00000000)
(-0.16314318 -0.00165642 0.00000000)
(-0.15855046 -0.00178262 0.00000000)
(-0.15318928 -0.00245593 0.00000000)
(-0.14715695 -0.00285179 0.00000000)
(-0.14096160 -0.00266786 0.00000000)
(-0.13508273 -0.00260090 0.00000000)
(-0.12985904 -0.00223675 0.00000000)
(-0.12542413 -0.00201757 0.00000000)
(-0.12154410 -0.00158842 0.00000000)
(-0.11824983 -0.00134419 0.00000000)
(-0.11547381 -0.00116962 0.00000000)
(-0.11276844 -0.00105815 0.00000000)
(-0.11080233 -0.00041586 0.00000000)
(-0.10947899 -0.00038326 0.00000000)
(-0.10855443 -0.00034398 0.00000000)
(-0.10823349 0.00032327 0.00000000)
(-0.10884193 0.00095671 0.00000000)
(-0.10974726 0.00120896 0.00000000)
(-0.10952921 0.00018411 0.00000000)
(-0.10719808 -0.00205054 0.00000000)
(-0.10360669 -0.00927263 0.00000000)
(-0.10377713 -0.01582690 0.00000000)
(-0.10189274 -0.02044718 0.00000000)
(-0.09901294 -0.02787098 0.00000000)
(-0.09604692 -0.03184812 0.00000000)
(-0.09181385 -0.03611805 0.00000000)
(-0.08671344 -0.03803604 0.00000000)
(-0.07542117 -0.04097268 0.00000000)
(-0.06652922 -0.04252242 0.00000000)
(-0.06084983 -0.03895628 0.00000000)
(-0.05135504 -0.03769578 0.00000000)
(-0.03857840 -0.03163295 0.00000000)
(-0.02805321 -0.02580745 0.00000000)
(-0.01753439 -0.01590219 0.00000000)
(-0.00439893 -0.00693861 0.00000000)
(0.00780898 0.00052415 0.00000000)
(0.01993915 0.00901577 0.00000000)
(0.03478098 0.01885852 0.00000000)
(0.04637661 0.03250213 0.00000000)
(0.06281517 0.04955770 0.00000000)
(0.07610042 0.06278869 0.00000000)
(0.09425301 0.07208613 0.00000000)
(0.10836573 0.09127533 0.00000000)
(0.12193483 0.11051753 0.00000000)
(0.14376637 0.12435461 0.00000000)
(0.15653802 0.14982841 0.00000000)
(0.16891261 0.16086594 0.00000000)
(0.21413880 0.17460901 0.00000000)
(0.27446697 0.19239026 0.00000000)
(0.32916918 0.22736746 0.00000000)
(0.39860675 0.27304491 0.00000000)
(0.46515785 0.31543342 0.00000000)
(0.53940534 0.26951306 0.00000000)
(0.60496679 0.26873298 0.00000000)
(0.65822808 0.21277944 0.00000000)
(0.68129561 0.12640839 0.00000000)
(0.64017829 0.08588615 0.00000000)
(0.54589013 0.03447864 0.00000000)
(0.46222835 0.01405394 0.00000000)
(0.40753286 0.00478242 0.00000000)
(0.46974082 0.00097091 0.00000000)
(0.45994664 -0.00295128 0.00000000)
(0.44606637 -0.00703472 0.00000000)
(0.40068383 -0.01456590 0.00000000)
(0.28034952 -0.02006552 0.00000000)
(0.12056125 -0.01029568 0.00000000)
(0.00357771 0.00862164 0.00000000)
(-0.03635964 0.02584435 0.00000000)
(-0.04543606 0.03289876 0.00000000)
(-0.04902763 0.03553155 0.00000000)
(-0.04764338 0.03487398 0.00000000)
(-0.04513916 0.03455457 0.00000000)
(-0.04200672 0.03345163 0.00000000)
(-0.03988419 0.03242099 0.00000000)
(-0.03874813 0.03291801 0.00000000)
(-0.04007682 0.03471295 0.00000000)
(-0.04136267 0.03433991 0.00000000)
(-0.04395274 0.03687212 0.00000000)
(-0.04775952 0.04013508 0.00000000)
(-0.05117136 0.04195152 0.00000000)
(-0.05615381 0.04631824 0.00000000)
(-0.06145961 0.04999914 0.00000000)
(-0.06796758 0.05456347 0.00000000)
(-0.07416889 0.05979751 0.00000000)
(-0.08062280 0.06462635 0.00000000)
(-0.08664799 0.06834801 0.00000000)
(-0.09238025 0.07087737 0.00000000)
(-0.09774134 0.07180737 0.00000000)
(-0.10308254 0.07127333 0.00000000)
(-0.10732320 0.07071553 0.00000000)
(-0.11108646 0.06834288 0.00000000)
(-0.11332818 0.06226577 0.00000000)
(-0.11750508 0.05685494 0.00000000)
(-0.12095190 0.05219411 0.00000000)
(-0.12343150 0.04600182 0.00000000)
(-0.12593621 0.03980748 0.00000000)
(-0.12837058 0.03261470 0.00000000)
(-0.13172445 0.02600463 0.00000000)
(-0.13594978 0.01973572 0.00000000)
(-0.14424415 0.01393674 0.00000000)
(-0.15648577 0.01071769 0.00000000)
(-0.16943500 0.00880121 0.00000000)
(-0.18028982 0.00724478 0.00000000)
(-0.18850701 0.00564208 0.00000000)
(-0.19464678 0.00444036 0.00000000)
(-0.19943231 0.00365251 0.00000000)
(-0.20286919 0.00303715 0.00000000)
(-0.20520458 0.00214013 0.00000000)
(-0.20642741 0.00141592 0.00000000)
(-0.20640506 0.00056311 0.00000000)
(-0.20583920 0.00033743 0.00000000)
(-0.20449258 -0.00026878 0.00000000)
(-0.20203453 -0.00123779 0.00000000)
(-0.19866834 -0.00147359 0.00000000)
(-0.19506445 -0.00180993 0.00000000)
(-0.19133827 -0.00188284 0.00000000)
(-0.18736079 -0.00211842 0.00000000)
(-0.18319339 -0.00217228 0.00000000)
(-0.17899603 -0.00195086 0.00000000)
(-0.17477082 -0.00217126 0.00000000)
(-0.17010970 -0.00244715 0.00000000)
(-0.16486543 -0.00267255 0.00000000)
(-0.15887414 -0.00346332 0.00000000)
(-0.15258359 -0.00389393 0.00000000)
(-0.14623386 -0.00370886 0.00000000)
(-0.14013176 -0.00356164 0.00000000)
(-0.13471720 -0.00305110 0.00000000)
(-0.13013079 -0.00273463 0.00000000)
(-0.12602740 -0.00221208 0.00000000)
(-0.12248817 -0.00185986 0.00000000)
(-0.11944547 -0.00164694 0.00000000)
(-0.11653705 -0.00149956 0.00000000)
(-0.11424701 -0.00070122 0.00000000)
(-0.11256407 -0.00058913 0.00000000)
(-0.11146768 -0.00048623 0.00000000)
(-0.11084968 0.00029129 0.00000000)
(-0.11094406 0.00105629 0.00000000)
(-0.11112105 0.00122818 0.00000000)
(-0.11031869 -0.00002134 0.00000000)
(-0.10807796 -0.00253858 0.00000000)
(-0.10563133 -0.00957224 0.00000000)
(-0.10565674 -0.01603015 0.00000000)
(-0.10380956 -0.02135268 0.00000000)
(-0.10098538 -0.02860665 0.00000000)
(-0.09738814 -0.03337728 0.00000000)
(-0.09255520 -0.03793829 0.00000000)
(-0.08580977 -0.03934043 0.00000000)
(-0.07512912 -0.04219097 0.00000000)
(-0.06661972 -0.04414546 0.00000000)
(-0.05877978 -0.04037700 0.00000000)
(-0.04931728 -0.03687796 0.00000000)
(-0.03593690 -0.03127026 0.00000000)
(-0.02468356 -0.02498789 0.00000000)
(-0.01233228 -0.01524158 0.00000000)
(0.00106149 -0.00522524 0.00000000)
(0.01501637 0.00400950 0.00000000)
(0.02825047 0.01418258 0.00000000)
(0.04438349 0.02482538 0.00000000)
(0.05982481 0.04052079 0.00000000)
(0.07774434 0.05538190 0.00000000)
(0.09335028 0.06879520 0.00000000)
(0.11398107 0.08347813 0.00000000)
(0.13217374 0.10138638 0.00000000)
(0.14960731 0.12055049 0.00000000)
(0.17902473 0.14191125 0.00000000)
(0.20323172 0.17442792 0.00000000)
(0.21829207 0.19422003 0.00000000)
(0.26237234 0.20885432 0.00000000)
(0.33471734 0.23322337 0.00000000)
(0.37594957 0.25628809 0.00000000)
(0.43115545 0.29134718 0.00000000)
(0.49400475 0.32809732 0.00000000)
(0.62827021 0.35424644 0.00000000)
(0.70244186 0.30469527 0.00000000)
(0.76385330 0.24315023 0.00000000)
(0.77532416 0.15618136 0.00000000)
(0.73177619 0.10196721 0.00000000)
(0.65054323 0.04611174 0.00000000)
(0.56333781 0.02127325 0.00000000)
(0.50074936 0.00779638 0.00000000)
(0.54853910 0.00294108 0.00000000)
(0.53297026 -0.00267758 0.00000000)
(0.51514323 -0.00746934 0.00000000)
(0.46683905 -0.01597140 0.00000000)
(0.35685515 -0.02309833 0.00000000)
(0.18504165 -0.01563206 0.00000000)
(0.03248491 0.00444546 0.00000000)
(-0.03184189 0.02504672 0.00000000)
(-0.04858254 0.03582552 0.00000000)
(-0.05462224 0.03978861 0.00000000)
(-0.05502606 0.04030844 0.00000000)
(-0.05340671 0.04087228 0.00000000)
(-0.05021873 0.03996130 0.00000000)
(-0.04753062 0.03911285 0.00000000)
(-0.04704754 0.03959998 0.00000000)
(-0.04821899 0.04107768 0.00000000)
(-0.04980707 0.04150927 0.00000000)
(-0.05264909 0.04389157 0.00000000)
(-0.05627436 0.04696064 0.00000000)
(-0.06037347 0.04965929 0.00000000)
(-0.06534330 0.05405199 0.00000000)
(-0.07084141 0.05832825 0.00000000)
(-0.07729761 0.06297762 0.00000000)
(-0.08367813 0.06833712 0.00000000)
(-0.09014998 0.07283950 0.00000000)
(-0.09638639 0.07630867 0.00000000)
(-0.10162863 0.07870233 0.00000000)
(-0.10726271 0.07942841 0.00000000)
(-0.11246331 0.07822864 0.00000000)
(-0.11665840 0.07709105 0.00000000)
(-0.12035360 0.07399246 0.00000000)
(-0.12321135 0.06828820 0.00000000)
(-0.12752483 0.06233401 0.00000000)
(-0.13142356 0.05696647 0.00000000)
(-0.13455050 0.05058236 0.00000000)
(-0.13769359 0.04376965 0.00000000)
(-0.14107391 0.03628535 0.00000000)
(-0.14533737 0.02918898 0.00000000)
(-0.15073300 0.02260680 0.00000000)
(-0.15958553 0.01673803 0.00000000)
(-0.17143831 0.01313647 0.00000000)
(-0.18343373 0.01080897 0.00000000)
(-0.19322299 0.00879927 0.00000000)
(-0.20057300 0.00678483 0.00000000)
(-0.20583477 0.00529382 0.00000000)
(-0.20978524 0.00428933 0.00000000)
(-0.21238799 0.00344321 0.00000000)
(-0.21402290 0.00240608 0.00000000)
(-0.21458409 0.00144502 0.00000000)
(-0.21404301 0.00044901 0.00000000)
(-0.21286004 0.00013250 0.00000000)
(-0.21094009 -0.00063319 0.00000000)
(-0.20813114 -0.00180014 0.00000000)
(-0.20442142 -0.00212821 0.00000000)
(-0.20047645 -0.00246512 0.00000000)
(-0.19641585 -0.00258478 0.00000000)
(-0.19206633 -0.00284833 0.00000000)
(-0.18761094 -0.00294477 0.00000000)
(-0.18295975 -0.00273213 0.00000000)
(-0.17833830 -0.00294442 0.00000000)
(-0.17333420 -0.00334252 0.00000000)
(-0.16757030 -0.00370094 0.00000000)
(-0.16121878 -0.00456285 0.00000000)
(-0.15482250 -0.00499565 0.00000000)
(-0.14841867 -0.00481517 0.00000000)
(-0.14221812 -0.00458268 0.00000000)
(-0.13671032 -0.00391788 0.00000000)
(-0.13201145 -0.00350102 0.00000000)
(-0.12771095 -0.00289742 0.00000000)
(-0.12401665 -0.00244194 0.00000000)
(-0.12065851 -0.00218896 0.00000000)
(-0.11756925 -0.00199274 0.00000000)
(-0.11507899 -0.00105471 0.00000000)
(-0.11297854 -0.00086349 0.00000000)
(-0.11165701 -0.00067232 0.00000000)
(-0.11077539 0.00020364 0.00000000)
(-0.11038867 0.00105562 0.00000000)
(-0.10989876 0.00112892 0.00000000)
(-0.10863034 -0.00025362 0.00000000)
(-0.10665995 -0.00292101 0.00000000)
(-0.10492854 -0.00961569 0.00000000)
(-0.10475936 -0.01597564 0.00000000)
(-0.10286421 -0.02166557 0.00000000)
(-0.09981354 -0.02878427 0.00000000)
(-0.09576236 -0.03378177 0.00000000)
(-0.09008447 -0.03801224 0.00000000)
(-0.08253935 -0.03992742 0.00000000)
(-0.07220311 -0.04259530 0.00000000)
(-0.06378744 -0.04369400 0.00000000)
(-0.05512627 -0.03994912 0.00000000)