/*--------------------------------*- C++ -*----------------------------------*\
  =========                 |
  \\      /  F ield         | OpenFOAM: The Open Source CFD Toolbox
   \\    /   O peration     | Website:  https://openfoam.org
    \\  /    A nd           | Version:  7
     \\/     M anipulation  |
\*---------------------------------------------------------------------------*/
FoamFile
{
    version     2.0;
    format      ascii;
    class       volScalarField;
    location    "20000";
    object      Dk;
}
// * * * * * * * * * * * * * * * * * * * * * * * * * * * * * * * * * * * * * //

dimensions      [0 2 -3 0 0 0 0];

internalField   nonuniform List<scalar> 
15600
(
0.000458458095420246
0.000482808477383096
0.000462428249844805
0.000388364808970474
0.000296273655967512
0.000197858707013501
0.00011492932632218
5.90994687897614e-05
3.06540903920263e-05
2.13746737428223e-05
1.81022275414055e-05
1.50496709518517e-05
1.16777354208151e-05
8.90012560450927e-06
6.96928634879341e-06
5.70153561080815e-06
4.87778202622971e-06
4.35936278525896e-06
4.03039122867766e-06
3.80600466361754e-06
3.65922594964634e-06
3.5883497478753e-06
3.59918172353484e-06
3.70263224759607e-06
3.90771327498033e-06
4.21595100958084e-06
4.61716567688505e-06
5.1221722626364e-06
5.74404322290733e-06
6.48874023679852e-06
7.3581531072685e-06
8.34967713977706e-06
9.45907610254843e-06
1.06896442241412e-05
1.20778287872398e-05
1.36579214134309e-05
1.54117300764523e-05
1.73196312034082e-05
1.93592512876305e-05
2.15066231245469e-05
2.37460277972682e-05
2.60950535412621e-05
2.86593826398931e-05
3.17038668640797e-05
3.60130636618231e-05
4.29928553985197e-05
5.02534920164121e-05
5.71120523761618e-05
6.36205799294706e-05
6.98462857573108e-05
7.58125518074882e-05
8.15498190458524e-05
8.7070498304525e-05
9.23845087811595e-05
9.74948079686901e-05
0.000102403580549665
0.000107114529968539
0.000111635624148342
0.000115980209932994
0.000120074671475703
0.00012384644677653
0.000127261940813671
0.000130308216379015
0.000132980162815256
0.000135284762010762
0.000137246214982047
0.000138912471130818
0.000140362255876644
0.000141715715406618
0.000143141310419666
0.000144872169170296
0.000147200797078441
0.000150503832106437
0.000154930084065958
0.000160567404936403
0.00016346074031773
0.000156177683241856
0.000155740612295912
0.000161463100794691
0.000170712813008705
0.000182871652335104
0.000197465702406972
0.00021439602178234
0.00023360005960767
0.000255173356701508
0.000279226639440466
0.000306264943078533
0.000337250630252838
0.000372091718197417
0.000409841617553433
0.000449558903127407
0.000490172445589469
0.000530330787999819
0.000567961956716267
0.000600920174337166
0.00062600241636507
0.000646909426065935
0.000666132509925034
0.000685362245462573
0.000706203001634417
0.000730290858175544
0.000759916392477094
0.000798660293007926
0.000856227551380069
0.000934622987503243
0.00101886249043227
0.00110790258444174
0.00119988959778579
0.00129511428086275
0.00138452007755265
0.00145468112181677
0.00145945267996374
0.00133482554795716
0.00112533392659328
0.000926147562712266
0.000752358751278312
0.000616612037688478
0.000506688776808498
0.000457319056175852
0.000449378649865574
0.00250522212773688
0.00263215484183978
0.00252670252117865
0.0021302418377526
0.00162855046765666
0.00109015398884975
0.000634772136820671
0.000327351854888848
0.0001696906458414
0.000117583966935409
9.93217758009689e-05
8.2726266326516e-05
6.43510249770169e-05
4.90939941930954e-05
3.84267364138151e-05
3.14037543405803e-05
2.68320489882602e-05
2.39486962178757e-05
2.21170705791016e-05
2.08690033086903e-05
2.00487491773217e-05
1.96435496003726e-05
1.96838310556835e-05
2.02288250683198e-05
2.13287735634407e-05
2.29951669794022e-05
2.51731598485376e-05
2.79191469440426e-05
3.13054239289288e-05
3.5366963562592e-05
4.0116344696251e-05
4.55415095469174e-05
5.16207909053297e-05
5.83707498674839e-05
6.5986364879261e-05
7.46575324195896e-05
8.42926056404189e-05
9.47840958836251e-05
0.00010600909661942
0.000117835432678202
0.00013017809405163
0.000143138319097712
0.000157301636257216
0.000174201088083829
0.000198199817251761
0.000236298503384587
0.000275916383580354
0.000313398176419982
0.000348970068754355
0.000382992371646245
0.000415592777908756
0.000446934958983932
0.000477085320346327
0.000506096602864726
0.000533984171986772
0.000560759386771786
0.00058644232338421
0.000611076713779657
0.000634738282904962
0.000656962926459427
0.000677319637655497
0.000695731511644617
0.000712134452597135
0.000726507846268254
0.000738897545358551
0.000749443435247238
0.000758414175367171
0.000766245072368163
0.000773592562326246
0.00078137216069526
0.000790834922287942
0.000803522672009249
0.000821359663850269
0.000845083951121467
0.000873756893127207
0.000886420662044342
0.000851018017660205
0.000851041767874873
0.000883209751935522
0.000934159426558872
0.00100064685080231
0.0010802008805019
0.00117228420173179
0.00127659459903466
0.00139364172456229
0.00152413429230413
0.00167087988577824
0.00183858956528916
0.00202644859560594
0.00222945564423483
0.00244265197662022
0.00266039854674639
0.00287542587505206
0.00307681104085731
0.00325321051481412
0.00338908527117457
0.00350395520408101
0.00361054138904238
0.00371765151617132
0.00383378212355325
0.00396774396377829
0.00413187023703818
0.00434577228914891
0.00465969128365003
0.00508274953214917
0.0055383873709027
0.00601990584096296
0.00651743452148254
0.00703119197202217
0.00751360447078724
0.00789291078788479
0.00793221495073245
0.0073028797500066
0.00617939791364504
0.00509728070907417
0.00414296498875814
0.00339307029282756
0.00278738783279356
0.0025095423616729
0.00246023186429658
0.00609933446132545
0.00635294054243323
0.00613586219036602
0.00524156188843217
0.00404108546736448
0.00271878852700632
0.00158102948391606
0.000812900781315898
0.000417148414062739
0.000286037909289837
0.000240473526949209
0.000200492546417445
0.000156367675332796
0.000119478139512249
9.35289381459379e-05
7.63934985956207e-05
6.522003234225e-05
5.8150780344106e-05
5.36452357526855e-05
5.05764687935675e-05
4.85505814049821e-05
4.75288757693941e-05
4.75827422386222e-05
4.88547718585173e-05
5.14678952261299e-05
5.54554000951632e-05
6.06915120061744e-05
6.73072524422992e-05
7.54776389605587e-05
8.52917639880823e-05
9.67838931447859e-05
0.000109929051414947
0.000124681471194658
0.000141093985197852
0.000159629991360549
0.000180727948192297
0.000204181871497617
0.0002297325220079
0.000257085977556097
0.000285935349133947
0.000316114001395075
0.000347943484476356
0.000383004339370674
0.000425663812842924
0.000486716386812285
0.000577980348673165
0.000671840849122499
0.000760630967258177
0.000844683358004549
0.000924863768973893
0.00100149254078028
0.00107496264845981
0.00114543941753359
0.00121305620728553
0.00127786066658105
0.00133989111055135
0.00139920873181632
0.00145593357068285
0.00151005799706818
0.0015597888315406
0.00160517392736919
0.00164606205903629
0.00168236334118721
0.00171408983355597
0.00174140496766481
0.00176468271652508
0.00178458021722773
0.00180211746122826
0.00181877917810784
0.00183658460212254
0.00185817283007343
0.00188661663844405
0.00192518085056448
0.00197371486258267
0.00202392725850614
0.00203626588110379
0.0019784627570613
0.00199281416299258
0.00207126557040829
0.00218952216426279
0.0023410368533897
0.00252097957706552
0.00272827273963101
0.0029625497096074
0.00322509349693224
0.00351812286474737
0.00384811411105367
0.00422315283952354
0.00464034460449299
0.00508973784034581
0.00556146758620173
0.00604424488069651
0.00652274754754966
0.00697458598486186
0.00737661340565791
0.00770181240962094
0.00798743909703678
0.00825868385863634
0.0085336813870272
0.00883038333241478
0.00916801681292883
0.00957325980685072
0.0100885061144077
0.010814749515389
0.0117728826356292
0.0128169358230704
0.0139230392859305
0.0150672025808488
0.0162437340010362
0.0173548905895055
0.0182544713533885
0.0184880111071037
0.0174133534792908
0.0150579535091928
0.0126214225902637
0.0103512475202061
0.00849495847986757
0.00697671846932973
0.0062237648497204
0.00604319251353894
0.0107683833373677
0.0109968335681108
0.0106519416633046
0.00932259043598986
0.00738306954712249
0.00508063430315166
0.00296387196730252
0.00150474822911329
0.000749864534009978
0.000501795293076846
0.000418021459202715
0.000348186902357075
0.000272253137548988
0.000208441910875688
0.000163267160164321
0.000133338614212299
0.000113801927962394
0.000101387178177281
9.34401153921787e-05
8.80254713205198e-05
8.44362993470806e-05
8.2593375953224e-05
8.26197545194942e-05
8.47623165273721e-05
8.92324600577876e-05
9.60888390575993e-05
0.00010513481478476
0.000116590763347072
0.000130750516674027
0.000147763960456505
0.000167681991396966
0.000190455146389511
0.00021601426042594
0.00024448883071006
0.000276623544538038
0.000313031577145908
0.00035334028569773
0.000397085404192066
0.00044377919064634
0.000492985898015724
0.000544626556077898
0.000599603549013902
0.000661218400672718
0.000737714202536889
0.000844405283388997
0.000987173986101038
0.00113050727602539
0.00126496044424078
0.00139068647145846
0.00150934555194689
0.00162163134697541
0.00172827893538978
0.00182967506583441
0.00192613454457846
0.00201784296759628
0.00210495783009503
0.00218767570534541
0.00226631753649965
0.0023383468030569
0.00240435219944136
0.00246427012826674
0.00251804096945506
0.00256568728346748
0.00260736138554982
0.00264340383085454
0.00267441241822262
0.00270132234107532
0.00272549056596213
0.00274877813561628
0.00277357595654633
0.00280272177621414
0.00283901713339076
0.0028839816776144
0.00293356562467798
0.00297222979598337
0.0029708394092151
0.00293967836006333
0.00298717409324189
0.00310559959625658
0.00327340531614058
0.00348334231796435
0.00373082661548419
0.00401503258212275
0.00433645721798211
0.00469751878771798
0.00510249473788051
0.0055598364694096
0.006075566892192
0.00664447774432925
0.00725628064418497
0.00790049913011331
0.00856483357846139
0.00923111357294748
0.00987320202048881
0.0104671104417909
0.0109905165247916
0.0114804173219789
0.0119644172719904
0.0124637792568402
0.0130004398524231
0.0135991043924923
0.0142934267644528
0.0151358384366158
0.0162377678646345
0.0176253639127863
0.0191480108857133
0.0207562239079573
0.0224074925157177
0.0240736716707375
0.0256322383487016
0.0269076420488809
0.0274436701045575
0.0266190355569476
0.0240992793858743
0.0211331367419701
0.0180379761382439
0.015225840907132
0.0127605372993039
0.0113584812527965
0.0108579436872557
0.0155601957543395
0.0154566916309479
0.0148790921730998
0.0134321248111513
0.011213396067145
0.00822130407633807
0.00499144426399067
0.00252257880541783
0.00119865660047025
0.000760632780077148
0.000621838672478979
0.000515471151131895
0.000404000745660882
0.000310125729870064
0.000243209528405831
0.000198708914519196
0.00016964381562125
0.000151047320428624
0.000139088811809405
0.000130929737499067
0.00012550052673419
0.000122667307858495
0.000122612756454578
0.000125695717942112
0.000132210313702711
0.000142224642294031
0.000155482603857772
0.000172278989690239
0.000192983497263723
0.000217748335919016
0.000246563461127747
0.000279276350838023
0.000315740101257551
0.000356114354036161
0.000401192131761024
0.000451415819570923
0.000506139396927962
0.000564662218793693
0.000626413590806204
0.00069112493064239
0.000759270894292582
0.000832843523459889
0.000916882517377276
0.00102097823193247
0.00115583892077727
0.00131000438929494
0.00146260866289069
0.00160385127179277
0.00173406458918914
0.00185546949282216
0.0019692295987695
0.00207626626461512
0.0021772153058857
0.00227253431742989
0.002362567743461
0.00244759116945337
0.00252794258100222
0.00260167181244993
0.00266938917588377
0.00273137459019129
0.00278766357882229
0.00283832151804042
0.00288348441415799
0.00292339829644184
0.00295846390772473
0.00298928668499808
0.00301672690782956
0.00304194193376075
0.0030663902206097
0.00309175598125457
0.00311966041776454
0.00315099267741854
0.00318425235201016
0.00321327977396476
0.00322572588980991
0.00322033839970651
0.00323798194584714
0.003309808924385
0.00343782400549906
0.00361043160634699
0.00382202397830372
0.00407029433622445
0.00435505825276988
0.00467774820043667
0.00504129269717266
0.00545064772360694
0.00591289335044692
0.00642939430225762
0.00699441374511851
0.00760082176654484
0.00824084059201728
0.00890502173452977
0.00957793137698326
0.0102369291906731
0.010870570493658
0.0114684642589218
0.0120573215427418
0.0126590316523426
0.0132920788110917
0.013976031794123
0.0147335827786723
0.0155938626532889
0.0166004153596395
0.0178268684438787
0.019282798137169
0.0208732020217222
0.0225355822295477
0.0242179564827627
0.0258626510843264
0.0273653732831714
0.0285638419061997
0.0292029350413923
0.028930530663969
0.0275888973883203
0.0257029724541613
0.0233997311893029
0.0209189662686433
0.0184919593481526
0.0168321492413353
0.0159775852837204
0.0186165188527298
0.0180658080415207
0.0171874597219754
0.0159432817107714
0.0141728836838566
0.0114787913786074
0.00769085414463904
0.00405652971715608
0.0018695680427538
0.00107875027171489
0.000846485440871877
0.000694013443369204
0.00054463755457585
0.000419453739395237
0.000329609323156274
0.000269591134574315
0.000230361556344386
0.000204999348135841
0.000188609926568785
0.000177393944132076
0.000169894035809263
0.00016590197281299
0.000165654065736478
0.000169597576420086
0.000178062528124089
0.00019107355609874
0.000208304119656187
0.000230025998069772
0.000256526013177504
0.000287782173418595
0.000323538218454074
0.000363386862820994
0.000407000973277741
0.000454433839543242
0.000506160839181355
0.000562178232323246
0.00062177362480654
0.00068433924469171
0.000749706651275593
0.000818316796744281
0.000891621786063749
0.000972647513318569
0.00106673841644754
0.00118059157251856
0.00131446780236414
0.00144399917391495
0.00157729428024465
0.0016996888669607
0.00181307453467794
0.00191861496275703
0.0020176899672371
0.00211085821165417
0.00219876756475606
0.00228175878801888
0.00236016856600844
0.00243423228691646
0.00250285016092405
0.00256617996626414
0.00262463320693405
0.00267834276763794
0.00272737596011608
0.00277183594068665
0.00281188425181959
0.00284776907215104
0.0028798528742165
0.0029086399303939
0.00293479477708979
0.00295914203599096
0.00298261019014607
0.0030060903607802
0.0030300762398564
0.00305404946470983
0.00307521837547157
0.00308835835948585
0.00308795981189968
0.00308869536093562
0.00313304659531504
0.00321067639664076
0.00333162501162799
0.0034897926077607
0.00368099571798952
0.00390440254136827
0.00416004496201378
0.0044495399104677
0.00477553780550961
0.00514236170805296
0.00555488475219412
0.00601194440919623
0.00650848488788364
0.0070396696171662
0.00759979646422859
0.00818170707756526
0.00877128053236027
0.00935327986053524
0.00992332976235653
0.0104789383590206
0.0110382870972961
0.0116176019618147
0.0122318208481862
0.0128968614524615
0.0136312133377781
0.0144568146017931
0.0154052103684437
0.0165139004005878
0.0177732357850631
0.0191372508991448
0.0205490895350068
0.021963120669704
0.0233087262366676
0.0245181552532139
0.0254441406906843
0.0260088140537506
0.0259935386951059
0.0256560728708127
0.0250138328058119
0.0240994576196398
0.0227784203499425
0.0214227355377515
0.0202165923020002
0.0192942700010632
0.0192985390872517
0.0185271916980166
0.017457353736218
0.0164521251974483
0.0153460977036649
0.0137448549264959
0.0105482655453286
0.0061839014120016
0.00291188688083076
0.00150559636781519
0.00109206082994319
0.000874881980936297
0.000684954665236056
0.00052913558915546
0.00041684545326111
0.000341492584132071
0.000292039332290738
0.000259787603780916
0.000238753593472612
0.00022428107458212
0.000214528212004735
0.000209175962414362
0.000208474353222949
0.000212882316423013
0.000222667199461278
0.000237721288766707
0.000257604707695532
0.000282394314723589
0.000312085558295363
0.000346321699067187
0.000384520133250296
0.000426063134753964
0.000470572002821549
0.000518079924888207
0.000568751054177611
0.000622416448896408
0.000678828872226805
0.000737882999926222
0.000800088597957877
0.000866598019295217
0.00093947341595082
0.00102187357789562
0.00111785842002177
0.00122975083581103
0.00135013104380541
0.00145389094918947
0.00156849930619951
0.00167262525620685
0.00177079485573352
0.00186233407258449
0.00194883481023632
0.00203037698631094
0.00210756475976076
0.00218058059623267
0.00224971691328701
0.00231449403046119
0.00237459974985774
0.00243041888007823
0.00248215572637299
0.00252990029987288
0.0025737278201608
0.0026137479849203
0.00265011853085662
0.00268306439962815
0.00271289292069512
0.00274000524512794
0.00276489405611327
0.00278811758735897
0.00281021636386764
0.00283155402892948
0.00285198617228739
0.00287040885700392
0.00288406880702832
0.00288958834364193
0.00288654006375049
0.00289423964274396
0.00294704469940185
0.0030223607032759
0.00313318879009292
0.0032755789428825
0.00344622387485787
0.00364486576447759
0.00387152974844477
0.00412766714123336
0.00441546445290427
0.00473835956457573
0.005099544623056
0.00549701303468985
0.00592653871077851
0.00638447286188388
0.00686628662078166
0.00736590703525587
0.0078693129422196
0.00836875365547994
0.00886141741171916
0.00934838842123244
0.00984233610174285
0.0103552902616028
0.0108990609972473
0.0114862526876057
0.012131419894598
0.0128507574725224
0.0136671658117466
0.0145987691832187
0.0156262000874609
0.0167285069092165
0.0178602188206412
0.0189868102966807
0.0200386935396452
0.020977115299665
0.0216654542450936
0.0221184176461545
0.0221386487128027
0.0221913336601578
0.0221206808616998
0.022054819989602
0.0215828169485064
0.021262056190265
0.0207343408508791
0.0200220468420386
0.0184321790275944
0.01767638846603
0.0165914013051091
0.0157511080869934
0.0150886013561462
0.0145313369493436
0.012817320514987
0.00866577574841605
0.00444005266347136
0.00213579239536632
0.00137538504585476
0.00105339149312235
0.000815616874349924
0.000630338798535391
0.000497422775358807
0.000408072487892032
0.000349005220583311
0.00031024809225504
0.000284647985670875
0.000266907260568091
0.000254829671045693
0.000247927967854755
0.000246388066285533
0.000250565492039992
0.000260559813821695
0.000276073442647881
0.000296550229000023
0.00032177550347924
0.000351415820647551
0.000384868459585199
0.000421434598480331
0.000460573741178399
0.000502101607786313
0.000546160544083352
0.000592769736303723
0.000641884226734363
0.000693799260001053
0.00074881431775696
0.000807855175010093
0.000872339443660536
0.000944334160421527
0.00102640578834107
0.00112082377296806
0.00122653559288748
0.00133321012700555
0.00142113026543735
0.00152329092406681
0.00161500431939706
0.00170294084474285
0.00178499403246195
0.00186295822112292
0.00193658999343351
0.00200646438702507
0.00207266144174091
0.00213528271041693
0.0021937179277231
0.00224823318341254
0.00229904543002134
0.0023462876329503
0.00239003553403239
0.00243036802542616
0.00246739381708262
0.00250126031627737
0.0025321659818172
0.0025603671243757
0.00258617886325241
0.00260996074623323
0.00263207787325875
0.00265281128523409
0.00267220825680986
0.00268981760346182
0.00270441013057485
0.00271374996281233
0.00271612229188266
0.00271405926246145
0.00272662522327988
0.00277994534454586
0.00285089228535848
0.00295233122451541
0.00308132804688412
0.00323513370305602
0.00341365216401738
0.0036168534654851
0.00384594875656492
0.0041027032822752
0.00438978658447057
0.00470927043029309
0.00505899346545639
0.00543540540678615
0.00583549878667559
0.00625544105069371
0.00668903122545749
0.00712392513348597
0.00755658903567162
0.00798467124831787
0.00841063220316793
0.00884371041665549
0.00929304920056023
0.00976806846977438
0.0102788433065711
0.0108369142816563
0.0114545322943882
0.0121488966098439
0.0129287632514139
0.0137716660013038
0.0146674580408227
0.0155806523256601
0.0164858784484068
0.0173194882245211
0.0180602052715075
0.0185817574721982
0.0189381892053475
0.0189333598548224
0.0190738744546456
0.019150523618526
0.0194157208338387
0.0193190240434702
0.0195386281985779
0.0194896213150593
0.0190466593696155
0.0169328503424363
0.0162981463181454
0.0153120799455607
0.0145936310866105
0.0141560871214709
0.0141337314368348
0.0140384226019216
0.0110524890012944
0.00640765103698152
0.00308345069638442
0.00173783363931378
0.00123374576369799
0.000933781500169663
0.000717409136401295
0.000565262669805325
0.000463421658212585
0.000395783648906704
0.000351298679738881
0.000321531106732449
0.00030078732695558
0.0002865515450754
0.000278101527155395
0.000275470399641883
0.000278815563629267
0.000288032091906812
0.000302670320171323
0.0003221326988825
0.000345966570579336
0.000373653379709798
0.000404554081699641
0.000438072840589412
0.000473891026257964
0.000512030615046374
0.000552688795224613
0.000595813076424847
0.000641527226938544
0.000690443527665654
0.000743043701257731
0.000800390504720629
0.000863859861382349
0.000935213835736065
0.00101621634393553
0.00110760542177554
0.00120644681488767
0.00130248902068398
0.00138200657137516
0.00147581483515611
0.00155947406689197
0.00164056924172127
0.00171625944985202
0.00178841838968144
0.00185664490656889
0.00192148333680524
0.00198298554839726
0.00204089043408626
0.00209506426182218
0.00214575765958314
0.00219312021849565
0.00223725470541875
0.00227823235959793
0.00231613365264964
0.0023510634986183
0.00238315724745828
0.00241258798588531
0.0024395677135312
0.00246434160754227
0.00248716707127577
0.00250826990309274
0.00252775896822124
0.00254549798806777
0.0025609131476895
0.00257285834106382
0.00257969940091883
0.00258097051324198
0.00258073242362793
0.00259614283971988
0.00264701111023127
0.0027134396111076
0.00280682023666147
0.00292488594828005
0.00306526811690319
0.00322786969610146
0.00341260351450986
0.00362044889560283
0.0038528251788364
0.00411179443496843
0.00439869147681618
0.00471144541526196
0.00504701366493665
0.00540277003650825
0.00577531301621001
0.00615747501144504
0.00654023615080645
0.00692147446911341
0.00729923705970313
0.00767643764747451
0.00806013691279713
0.00845751350050019
0.00887624353798684
0.0093245697935202
0.00981184749064386
0.0103476929098783
0.0109454802688537
0.011609289061286
0.0123167037893317
0.0130619044035838
0.0138168403775839
0.0145624044916879
0.0152416694538
0.015842628298964
0.016249898298902
0.0165304189182632
0.0164955693823483
0.0166237202007534
0.0166949880050528
0.0170377680395496
0.0170662071266242
0.0174657955626855
0.0176500949540652
0.0174090416376894
0.0153356684372742
0.0148351316670774
0.0139835180393533
0.013370717258872
0.0130517274497551
0.0131358998020355
0.0141728784591034
0.012924111250544
0.00862440387491308
0.00440643357827089
0.00224276079307378
0.00144018090943008
0.00104698102123606
0.000792928657840455
0.00062008304233963
0.000505798631356427
0.000430579679298387
0.000381097382696237
0.000347709802697443
0.000324445057200299
0.000308464555518074
0.000298746919632329
0.000295101311108956
0.000297447762671791
0.000305510210406886
0.000318771192612695
0.000336665059211878
0.000358605158310536
0.000384030426907093
0.00041237979529987
0.000443213915164125
0.000476394909231193
0.000512046511980427
0.000550352211017492
0.000591240180491098
0.000634967616579752
0.000682273190435185
0.000733695102846704
0.000790283152370614
0.000853242740484037
0.000923942825345396
0.00100340824131853
0.00109130926713707
0.00118395416744531
0.00127242227015026
0.00134764280852977
0.00143549149230294
0.00151387687986503
0.00159023806359225
0.00166156784019144
0.00172967842970977
0.00179412808409019
0.00185541643519237
0.00191352400735137
0.00196811190570971
0.0020193150406729
0.00206732163714178
0.00211224840940545
0.00215418362524775
0.00219319723554811
0.0022293696094424
0.002262800464796
0.00229361278640196
0.00232195638658087
0.00234800529076614
0.00237194782902575
0.00239396256576378
0.00241417417926791
0.00243257744043661
0.00244893432155677
0.00246264729436197
0.00247273547437363
0.00247811159508286
0.00247918006102833
0.00248067320451449
0.00249747757196489
0.0025449208953568
0.00260716377143243
0.00269371878384637
0.00280284194819344
0.00293243950644884
0.00308235224536956
0.00325244042670393
0.00344347798700339
0.00365660308422421
0.00389340491758967
0.00415472702076643
0.0044386640732673
0.00474254940190013
0.00506399631400188
0.00539960229359485
0.00574172014078633
0.00608445083010559
0.00642593761718397
0.00676459777071239
0.00710340134996524
0.00744797316941154
0.00780413177643926
0.00817827793852698
0.00857732163337016
0.00900902604913258
0.00948121470228412
0.0100045866538882
0.0105807407929483
0.0111886441053219
0.011823981854795
0.0124640409839518
0.013093700744569
0.0136622361399709
0.0141619331932137
0.0144883631908834
0.0147088183254701
0.0146494274423756
0.0147360013526701
0.0147659171772905
0.0150868647819316
0.0151426632235416
0.0155542483394745
0.0158185543495159
0.015702149597533
0.013866553777251
0.0134795460363406
0.0127546451329756
0.0122390996089587
0.0119858218968244
0.0120157406313308
0.0134681153280509
0.0140291909069961
0.0108072774609183
0.00608300919978707
0.00296615119537455
0.00171017396322256
0.00117236408591481
0.000865744613247261
0.000667578032556616
0.000539498465598781
0.000456451985154108
0.000402125347871513
0.000365454114625537
0.000340077803406081
0.000322766783898433
0.000312139775851937
0.00030773318622475
0.000309228674130605
0.000316225585689465
0.000328195154760766
0.000344625849794837
0.000364878460688466
0.000388423533940468
0.000414799905643072
0.00044369636024151
0.000475080357111684
0.000509103930391089
0.000545921592095886
0.000585485056251442
0.000628140845349327
0.000674647219754463
0.00072554144498274
0.000781789089825734
0.000844386101899734
0.000914320825331253
0.00099203245897678
0.00107654349703234
0.00116407636223405
0.0012473362048007
0.00132040445599127
0.00140385952882908
0.00147877790620063
0.00155180719151973
0.00162013243965522
0.00168540170394123
0.00174720386373999
0.00180598979509527
0.00186162114117847
0.00191390020718302
0.0019630193447802
0.00200913283314367
0.00205233977591275
0.00209272082121261
0.0021303455013147
0.00216529286130101
0.0021976567556673
0.00222754813981692
0.00225509587440208
0.00228044157495038
0.00230372723612159
0.0023250702169332
0.00234452150420781
0.00236200100936596
0.00237721976592354
0.00238960837692156
0.00239837325001681
0.00240288068082119
0.00240411139706814
0.00240697572970084
0.00242420485976704
0.00246803733631298
0.00252650088019586
0.002607253582383
0.00270897608371775
0.00282978378329097
0.00296943560932752
0.00312774254410175
0.00330530001697015
0.00350301467462523
0.00372210545554029
0.00396308252770093
0.00422421589937748
0.00450311746025069
0.00479754678169472
0.00510361837239603
0.00541428831298107
0.0057256873888838
0.00603595203754625
0.00634381343958438
0.0066521232175289
0.00696552010614949
0.00728885690495857
0.00762758355736811
0.00798761756460195
0.0083755343175742
0.00879789631889973
0.00926345063302919
0.0097724066200214
0.0103056059325661
0.010859019261809
0.0114137497450955
0.0119570828828327
0.012443655085895
0.012867180404604
0.0131337283608283
0.0133052379440498
0.0132265945319071
0.0132687124105661
0.0132543330892773
0.0135202738988825
0.0135696114331159
0.0139325940479583
0.0142015748025835
0.0141573091409716
0.0125889820116706
0.0122905833023545
0.0116693481633597
0.0112455881693248
0.011016254525377
0.011020160064783
0.0122872927359339
0.0143095206986411
0.0125783860005225
0.00800298304032158
0.00396759619915741
0.00208889760074246
0.00133249334185169
0.000949375855452042
0.000717108223754113
0.000571457061244509
0.000478904486579125
0.000419045594379931
0.000378927281691778
0.000351493153150464
0.000332996887811377
0.000321634449398958
0.000316633919873654
0.000317446162479999
0.000323570299095835
0.000334479929792894
0.000349705984935463
0.000368607338475408
0.000390712307007121
0.000415647874084953
0.00044319287061341
0.000473368300181222
0.000506324164062588
0.000542196091237747
0.000580981828442813
0.000623078306374025
0.000669210121623072
0.000719886101364476
0.000775956289042324
0.000838208989793055
0.000907304229941269
0.000983257786604406
0.00106475792857787
0.00114828524809211
0.00122805387036302
0.00130012977032266
0.00138035280176857
0.00145303923524283
0.00152375360410533
0.00159005634043403
0.00165337611495053
0.00171336892702452
0.00177045081985243
0.00182431990235753
0.00187502276445213
0.00192271619481927
0.00196753258539392
0.00200956104824353
0.00204887789586587
0.0020855522989274
0.00211966118457955
0.00215129232672072
0.00218054532013447
0.00220753037119675
0.00223236149563284
0.00225514284716188
0.00227594412403347
0.00229476266778384
0.00231147045663084
0.00232575925767254
0.00233711323328353
0.00234492006474418
0.0023489043810238
0.00235040794004609
0.00235424366403703
0.00237126163226481
0.00241160303881235
0.00246666002880915
0.00254243965171584
0.00263795954082445
0.00275150141745551
0.00288273996014576
0.00303143815040845
0.00319803602654371
0.00338324610931266
0.00358799376332719
0.00381255899505556
0.00405537189242283
0.0043142501259623
0.0045869866196594
0.00486892131026262
0.00515460756975473
0.00544101791712695
0.0057263298632899
0.00600953263354884
0.00629328519220604
0.00658152220746545
0.00687839183250925
0.00718861815213987
0.00751735809566396
0.00787027577010601
0.00825301441315494
0.00867284380267608
0.0091291697511404
0.00960481808943724
0.0100955297731278
0.0105851413544385
0.0110622790416014
0.0114860840170135
0.0118501102963906
0.0120701477353611
0.0122005305574913
0.0121062856281692
0.0121077969891143
0.0120550707758406
0.012259020190634
0.012291168101519
0.0125908784731023
0.012832385606594
0.0128286560729369
0.0114998192935737
0.0112679062492526
0.0107280213263647
0.0103905807976832
0.0101501540065065
0.0102104246271129
0.010977037656629
0.0138790991921781
0.013697395333366
0.00993104194452488
0.00527293784498941
0.0026294331472377
0.00155234865067615
0.00105722709253869
0.000777552224810093
0.000608278863249832
0.000503196985568477
0.000436272794659906
0.000391964008019004
0.000362081580184146
0.000342190144406949
0.000329988078004984