/*--------------------------------*- C++ -*----------------------------------*\
  =========                 |
  \\      /  F ield         | OpenFOAM: The Open Source CFD Toolbox
   \\    /   O peration     | Website:  https://openfoam.org
    \\  /    A nd           | Version:  7
     \\/     M anipulation  |
\*---------------------------------------------------------------------------*/
FoamFile
{
    version     2.0;
    format      ascii;
    class       volTensorField;
    location    "20000";
    object      gradU;
}
// * * * * * * * * * * * * * * * * * * * * * * * * * * * * * * * * * * * * * //

dimensions      [0 0 -1 0 0 0 0];

internalField   nonuniform List<tensor> 
15600
(
(0.0213162726300378 -0.000126469052411936 -3.31086906729153e-23 15.2280720119078 -0.0209115813951171 -4.39313553820346e-23 -9.06533622968231e-22 8.27343954641034e-25 5.76111054914739e-44)
(0.035324964957449 -0.00293129842671365 1.59145082655701e-20 15.9961287727082 -0.0407190020273919 -3.36505198748453e-22 2.86902125921593e-21 -1.48810747381522e-23 6.71436393117667e-41)
(0.20784200595183 -0.0127742520642124 5.47206266659419e-20 17.2361921619944 -0.219408529618876 6.95606531760177e-19 -1.96213582991162e-21 1.40512114343731e-23 -6.71892035512037e-41)
(0.694169001102823 -0.0451079335555104 -2.68659353583656e-19 16.2629297456285 -0.686627292114344 -3.62175746451798e-19 0 0 0)
(1.02976995073729 -0.100210783185962 1.17297993790603e-19 12.5863604436917 -1.03883485890202 1.76177652964371e-18 4.29441170699416e-21 -5.03294995395423e-22 -3.93931913362078e-39)
(0.960316645037505 -0.135427173594383 3.42311916015726e-18 7.37929316556673 -0.972934614156281 8.44326285106161e-20 -5.87055323644754e-21 7.95258633384347e-22 -4.88389913804026e-38)
(0.247294382324272 -0.0356446522869392 -5.63816140125311e-18 1.72075719949042 -0.280321182922242 -2.51276661728778e-17 -6.87493878924128e-18 1.12027555084841e-18 1.00280603503476e-34)
(-0.773263108831881 0.250346168293721 2.09718417123094e-18 -2.29314393951862 0.733116238085392 7.77545282609673e-20 1.18880052861874e-21 -4.31973909638559e-22 -3.24074820101959e-38)
(-1.41352230815425 0.532488489158124 3.17699409097746e-17 -3.71773527665358 1.37840943247758 8.45069256495972e-17 -1.9195443907937e-21 5.9295300073178e-22 8.49807219191179e-38)
(-1.60642177926737 0.692070823196981 1.17368768057237e-18 -3.71126226087796 1.58130775152453 7.41036471207623e-21 0 0 0)
(-1.65211903637672 0.784204195013139 4.55347608211583e-17 -3.45470131840695 1.62835399655899 9.45588804104845e-17 1.87783742280125e-21 -8.94151689084808e-22 -9.76464721255916e-38)
(-1.57915320844659 0.803560816781922 -6.52124934029028e-18 -3.0779058481172 1.55852290322674 -1.68099081420114e-19 -1.85096774199926e-21 8.81357412976266e-22 9.62492640895831e-38)
(-1.46661301060493 0.784197441424817 3.20101534969416e-17 -2.71946002647155 1.44913563322573 2.20718242455546e-19 7.45292861021179e-22 -3.96266356969921e-22 -2.24659501495498e-37)
(-1.34613279569665 0.743887511632246 4.47627208562862e-17 -2.41539563487864 1.33189346060533 1.0813442022243e-16 2.15571689829749e-17 -1.18869297581439e-17 -9.66171681853068e-34)
(-1.23515378255199 0.694447635354028 6.70719484112421e-18 -2.17801930950025 1.22333949680204 9.93349276165653e-17 -1.95161489253191e-17 1.09617002508071e-17 8.89204234186399e-34)
(-1.13287701119806 0.638599617416356 5.50118969101927e-17 -1.99232760734912 1.12318620262043 1.01334135867881e-16 -1.78593046241768e-17 1.00682492523781e-17 9.06759027847478e-34)
(-1.04225699923954 0.581068055857761 -2.86539910279196e-16 -1.85346978113076 1.03428112903812 -5.38659430176827e-16 0 0 0)
(-0.971163720427746 0.532931321844527 -1.82375594817724e-16 -1.75579943871417 0.96465445330632 -3.2630789330721e-16 9.81372155339462e-22 -5.28432982029271e-22 2.45276004293363e-37)
(-0.917668979640192 0.496051729978442 2.37411344088847e-16 -1.68521364341451 0.912002297051073 4.37755886827853e-16 -1.49422204655466e-17 8.08631936967732e-18 3.87970216835647e-33)
(-0.872708449918928 0.465383160578062 4.08143109622474e-17 -1.62567965460347 0.867822679899228 -7.82731826751043e-19 0 0 0)
(-0.835927759576152 0.440566758933335 -5.68292092693456e-17 -1.57663205570514 0.831706213492382 -1.08741342378027e-16 1.38910630838226e-17 -7.32775265870501e-18 9.57926467335541e-34)
(-0.80681046604205 0.421133868690931 -2.09423666450939e-17 -1.53761978563617 0.803201593982561 3.72711307259041e-19 1.69978573103665e-21 -8.83592609387715e-22 -4.79200185259188e-37)
(-0.786486406639316 0.40751900737981 2.03400724691761e-16 -1.51114742309484 0.783458254708486 3.46524098080634e-16 -1.32588598824022e-17 6.874028881819e-18 3.04564131198258e-33)
(-0.776398510950121 0.400261534211267 1.23606417772028e-16 -1.50045811410937 0.773866083983484 2.3845450935207e-16 -3.32406477510936e-21 1.69767086060261e-21 1.00670666303118e-36)
(-0.777269875260102 0.399464410893709 -2.2778747851284e-16 -1.50781397613367 0.775168532455585 -3.50347045849109e-16 3.25071853312026e-21 -1.66021136863001e-21 -9.84493452545146e-37)
(-0.785310745118433 0.402427297815548 -7.26289921611681e-15 -1.5279336346032 0.783413986281746 -1.03018738112081e-19 -1.3359678186397e-17 6.84982869751492e-18 -1.81846897844642e-33)
(-0.795017500478117 0.404251527200518 8.83640412527228e-15 -1.55850549806693 0.793412599037014 3.27401234399034e-14 -3.8716099875161e-15 1.97099646595564e-15 8.20703347314942e-29)
(-0.806683762228237 0.404217311938472 2.25133287367282e-14 -1.60393771218454 0.805333974784225 3.12272694664913e-14 -4.02154842454469e-15 2.019131428288e-15 7.74400162892318e-29)
(-0.819229922564125 0.401512818772574 7.32376670937154e-15 -1.66421006413133 0.818077452626788 -2.72369194805742e-16 0 0 0)
(-0.830454395416326 0.39483107620772 7.37112369086074e-17 -1.73745594763505 0.829450889760618 1.25075665689029e-16 0 0 0)
(-0.837531511053943 0.382730945255863 -3.83246388862179e-17 -1.82084985614656 0.836640843149041 -5.53358420718411e-17 7.79888753392175e-18 -3.58293897297234e-18 2.37800327409801e-34)
(-0.837367212864909 0.363950457671803 8.51455831827534e-19 -1.91113694251252 0.836617943366616 7.05241315600961e-20 -7.80235948983429e-21 3.46374900555876e-21 1.02603405874761e-36)
(-0.82704299074406 0.337750767905453 -2.27083756496332e-17 -2.00486891117814 0.82645173104172 -5.66892575222955e-17 8.43101434003214e-18 -3.47490915176775e-18 2.38257371959566e-34)
(-0.806301345923361 0.30513316278155 -1.40936857245111e-17 -2.10427310575155 0.806019514201149 5.84379214996118e-19 0 0 0)
(-0.77899095578154 0.269667490588425 -6.61121739019832e-17 -2.21679469200699 0.779113044645643 -1.90509620236635e-16 9.3536789388818e-21 -3.09620870877143e-21 -2.11365703164369e-39)
(-0.746120560508521 0.233588130047154 6.04470859912778e-17 -2.33998734782796 0.746455442428208 1.92327794286278e-16 5.9766951660546e-22 1.19987628367308e-22 4.17915842185599e-39)
(-0.70457421541316 0.196729805257203 -1.55609223959605e-17 -2.46628024557999 0.705163517385401 7.26331163263148e-19 -9.59329481088052e-21 2.8633304072897e-21 -2.06998191370085e-39)
(-0.6531432663211 0.159773656384059 1.98247313272072e-15 -2.59205593622526 0.653987797510481 -1.90721300591023e-17 -1.03959297800638e-17 2.6221671209002e-18 2.26985562611489e-34)
(-0.591063212000739 0.123678042142846 4.95982737203089e-16 -2.71389380237305 0.592213576781273 -7.48372035362795e-15 1.36036634309467e-15 -2.96812988093581e-16 3.79650724526752e-30)
(-0.51837845956762 0.0896640278395864 -3.18078887551588e-15 -2.829815120407 0.519884456799031 -6.86158643922754e-15 1.4254086496135e-15 -2.61812782163962e-16 3.41250829589653e-30)
(-0.435978371071302 0.0590929869645776 -2.00344610080625e-15 -2.94001439174972 0.437806701789113 2.00170652646084e-16 -5.79303839936088e-18 8.62432538834967e-19 3.90112667323938e-34)
(-0.345214216012925 0.0332328440158406 -7.297895042548e-18 -3.05145961320188 0.347645052090102 -1.01641425724462e-16 0 0 0)
(-0.245863888718725 0.0129824693563091 -6.68904896729344e-18 -3.16693533705568 0.249330666698368 -8.85528697672668e-17 0 0 0)
(-0.146140543514451 8.55584819284453e-05 3.56032054044696e-18 -3.30609122258266 0.147029210736808 2.34954491296754e-19 6.65339429877995e-21 -1.69955899490614e-22 1.80113324753957e-38)
(-0.0524444543040583 -0.00307757183735675 -3.40268433541351e-20 -3.66504565138799 0.0592683806603451 -4.96967352621183e-18 -1.42255615652293e-20 2.21859628477727e-22 -3.60002841468774e-38)
(-0.029149495941155 -0.000804754806765825 -2.45527942724115e-15 -4.17358122204549 0.0324328692772066 6.2004817222257e-17 7.57656764787843e-21 -5.2013075561474e-23 1.80008096729749e-38)
(-0.0224508761952082 -9.56330674516307e-05 -2.49950698804058e-15 -4.55478171230162 0.0256306864873002 7.54396307852601e-15 -2.60377959554084e-15 1.46619660623887e-17 4.35403924279202e-30)
(-0.0180077825525688 -7.34492582061077e-05 2.45584417464399e-15 -4.8584318582702 0.0206326130263761 7.10131688979828e-15 -2.78488563270613e-15 1.18182957139815e-17 4.03420069149383e-30)
(-0.0146064853414968 -5.80720291646758e-05 2.49949085476965e-15 -5.10056522575482 0.0169968002025821 -5.3858135544532e-17 9.93204121281606e-21 -1.9059355810832e-23 8.45798228322928e-35)
(-0.0119981444452656 -5.18598548958632e-05 9.25135517986947e-22 -5.29776720544388 0.01410048209363 2.01681462900534e-19 0 0 0)
(-0.00987460204129744 -4.68577184463146e-05 -1.75695965040249e-20 -5.45808971462268 0.0117715319881938 1.59705812934032e-19 1.11664636259127e-20 -1.37537452035455e-23 -5.36616041964627e-43)
(-0.00812643534915316 -4.44665152948345e-05 -2.62285239440279e-15 -5.5887236528664 0.00981554260332202 3.75886077237289e-17 -1.11664636253081e-20 1.37537452022424e-23 5.36616024334692e-43)
(-0.00663248943036393 -4.30141022685988e-05 -2.68745724759046e-15 -5.69408434586576 0.00813409993212942 7.39097554366026e-15 -3.13348147684947e-15 4.47719196323215e-18 4.09154926813976e-30)
(-0.00533169595543047 -4.24671513499868e-05 2.62283480894827e-15 -5.77769116578485 0.00664711503986781 7.2812319282091e-15 -3.18428506377935e-15 3.66270527194012e-18 3.99433134757795e-30)
(-0.00417380206864617 -4.23076521034404e-05 2.68747481718703e-15 -5.84204448616203 0.00530752981930276 -2.90372123047704e-17 0 0 0)
(-0.00312812051918659 -4.24112961012089e-05 -5.76566155112862e-31 -5.88913548379036 0.00408040929060222 4.13725176569672e-33 0 0 0)
(-0.00217165921529961 -4.26117375339232e-05 2.56362308145912e-21 -5.92051946375505 0.00294327772225375 -1.37967943704401e-23 -6.54787598209188e-31 3.25486842977601e-34 1.74238193559961e-61)
(-0.0012899222828937 -4.28746019188084e-05 -2.56346729368864e-21 -5.93749513641292 0.00187972673581864 5.34852839490912e-20 1.52631722271294e-21 -4.49606505374557e-25 -6.589612571782e-46)
(-0.000473643423813054 -4.30927162186489e-05 -2.56362308145898e-21 -5.94118829274341 0.000879312573846893 -3.79931453321909e-20 -1.52631722271294e-21 4.49606505374557e-25 6.589612571782e-46)
(0.000281474499870388 -4.31249911725027e-05 2.56346729426505e-21 -5.93262620055776 -6.1444243800322e-05 -1.54718207458727e-20 0 0 0)
(0.000975462772720409 -4.28917844842009e-05 2.80911560726765e-21 -5.91280673873795 -0.000941375000847247 5.03932567027318e-24 0 0 0)
(0.00160509985304058 -4.23589676741752e-05 -2.80959095496152e-21 -5.88276329174886 -0.00175629746579483 2.54561504999374e-20 1.51621460209978e-21 2.75684635969483e-25 2.01066407388565e-45)
(0.00216456096374862 -4.1483422346607e-05 -2.80911560726771e-21 -5.84359461090012 -0.00249951108777985 -2.54806188053242e-20 -1.51621460209968e-21 -2.75684635969465e-25 -2.01066407388551e-45)
(0.00264541998113564 -4.02218166301852e-05 2.80959095496167e-21 -5.7965049470395 -0.00316139428502312 1.51205352200118e-23 0 0 0)
(0.00303697794169018 -3.85361330432732e-05 0 -5.74283737601926 -0.00372998772547565 1.41923266788966e-19 0 0 0)
(0.00332706958529085 -3.64240032704632e-05 0 -5.68409732695722 -0.00419136543965618 -1.42110214255041e-19 0 0 0)
(0.00350267605980691 -3.38597364126989e-05 0 -5.62195803922181 -0.00453163453247032 0 0 0 0)
(0.00355319685491557 -3.09832732732554e-05 0 -5.55825122440903 -0.004736627257173 0 0 0 0)
(0.00347409716840712 -2.78661363228484e-05 0 -5.49487189217947 -0.00480251837730137 0 0 0 0)
(0.00326980717678354 -2.48456984692948e-05 -2.71547207636402e-20 -5.43364524011319 -0.00473161240989899 -4.87133676827442e-22 0 0 0)
(0.00299110396894308 -2.25287863118521e-05 2.71635128926732e-20 -5.37602535960028 -0.00457520429897725 -2.45636969288835e-19 -1.11834109444436e-20 -1.22471804250702e-23 2.97517260739758e-43)
(0.00282973606768718 -2.78380706971943e-05 4.06158083630323e-15 -5.32188019570408 -0.00443768413219785 8.76799650733214e-17 1.11834109444432e-20 1.22471804250697e-23 -2.97517260739748e-43)
(0.00267242154562567 -2.33956357944048e-05 8.2571272262896e-15 -5.26757760035737 -0.00468773865185969 -1.11604660045745e-14 2.90513570549485e-15 2.58651204695416e-18 6.09865827886414e-30)
(0.00366559359457185 -4.83282279017627e-05 1.34731556936343e-16 -5.21083478534836 -0.00550550228693822 -2.36636167027397e-14 5.73971503161923e-15 6.06349704244775e-18 2.60809296294303e-29)
(0.0107146532314458 -0.00116016305968517 -8.25600103495022e-15 -5.10870977545573 -0.0110944056858872 -1.25701349363454e-14 2.8091489473501e-15 6.08649012796071e-18 6.98535745585787e-30)
(0.0515244820409639 -0.00499238631034899 -4.19638373873288e-15 -4.85770382816572 -0.0549619890140272 -1.15663717100207e-16 5.90793121601076e-19 6.66541951030537e-21 3.3388937054695e-37)
(0.198091528561268 -0.000896861975412788 -8.77173156807612e-18 -4.59094521441061 -0.19481650607576 -2.65953038446726e-19 0 0 0)
(0.345688715481494 0.0169873520657564 5.41202017450214e-18 -4.47091396345626 -0.340633681701412 -7.09742406649469e-17 -4.36231493856574e-18 -3.32075408180645e-19 -6.9242001919766e-35)
(0.492836134463911 0.0453587006418229 4.15281946534074e-15 -4.39053169874198 -0.485544391002716 -5.17204290837447e-17 0 0 0)
(0.636824561419433 0.0833972351134618 5.81828140383497e-15 -4.32683662577358 -0.627383635961469 -1.20236152880786e-14 2.18219788468645e-15 3.16314460363605e-16 5.97985205740077e-30)
(0.775590117017397 0.130297656866336 -1.81892667573133e-15 -4.26182647410535 -0.76395647191439 -1.35456642481839e-14 2.13742493100334e-15 3.83098232398041e-16 6.88438902434591e-30)
(0.906372692060486 0.184758162444736 -4.05577694038165e-15 -4.18549401985306 -0.892416721151981 -4.50863878522456e-16 -1.66805392108276e-17 -3.55486941119945e-18 -9.0394801750454e-34)
(1.02613802526881 0.24505456774682 3.31568384220689e-17 -4.09111935634438 -1.00979975246818 6.79438676460701e-19 -1.76438589580336e-20 -4.45496793266112e-21 -2.00789595414401e-41)
(1.13147306351047 0.308931829403873 -1.15719517777898e-16 -3.97334427024634 -1.11264301465995 4.10966373941495e-16 1.7929756932005e-20 4.52715544612315e-21 2.04043154551325e-41)
(1.21866919229812 0.373646767275952 1.30640899916638e-16 -3.82780267553831 -1.19733542614842 -4.15416186505896e-16 1.68431530529431e-20 5.27622521427814e-21 -2.58708347453646e-41)
(1.28369907911548 0.435867797701542 1.46677974756725e-16 -3.65092758617612 -1.25990867958116 -4.22611708942756e-16 -1.71830568559748e-20 -5.38270225039765e-21 2.63929219751079e-41)
(1.32306608955677 0.491947023124042 6.59161059276615e-20 -3.4423646915708 -1.2967588815794 2.73022444760787e-21 0 0 0)
(1.32728927946986 0.533356115588141 -3.39846891383064e-17 -3.19923246771118 -1.29878059381334 -1.39891586126301e-18 0 0 0)
(1.28645564253606 0.550970060220135 -1.98657340264289e-17 -2.91001056318784 -1.25636164024082 1.2816496345248e-16 -1.23536145768405e-17 -5.3327522374406e-18 5.37754669560375e-34)
(1.19530373804889 0.539391025849368 -1.11960503080271e-16 -2.56356538620466 -1.16439724865542 3.20804302422675e-16 5.91568260080862e-21 2.53328227541578e-21 -1.30458292793764e-36)
(1.05052789104483 0.494924480150122 4.0094453866645e-16 -2.15268235330386 -1.01984083358886 -9.21298370821003e-16 9.26760321073426e-18 4.39052375068208e-18 3.96394748735487e-33)
(0.850934545973705 0.415691121031163 2.29259727340002e-16 -1.67287801105195 -0.821562124013092 -4.69573991560542e-16 5.08843808574919e-21 2.23234011335758e-21 9.39059735234808e-40)
(0.596581290742958 0.301496263259934 -6.8742919393362e-17 -1.12029241824065 -0.569858146338667 -1.49361289267178e-18 0 0 0)
(0.291147792548335 0.154837459776616 3.43491471972488e-16 -0.495794663041543 -0.26820446088043 -6.73904573098824e-16 9.966990113683e-22 3.69795660662725e-22 2.80995225747445e-36)
(-0.0610829988207518 -0.020238818468433 6.95378917667466e-17 0.200491161426539 0.0787623786534694 2.0159976878411e-18 -1.0187377275657e-21 -3.77972473846464e-22 -2.8720850976041e-36)
(-0.445912226513598 -0.214643744513664 6.59998801544549e-17 0.950148449056982 0.457995345558429 1.97745279840938e-18 0 0 0)
(-0.855409799251353 -0.42369372520092 1.85868284480062e-14 1.73894870184291 0.861358597869833 2.14742762062599e-16 -1.52243599216279e-17 -7.5411672866169e-18 2.61474766818488e-33)
(-1.29323897614082 -0.650593500334102 5.99924404610574e-14 2.56930392987406 1.29274588401166 -8.19052348927448e-14 -6.41678916771676e-15 -3.22873010421294e-15 2.03012687967124e-28)
(-1.76403947469413 -0.899334766815236 2.46988144408111e-14 3.44434546454859 1.75665010308893 -8.46195348462713e-14 -8.62062435222593e-15 -4.39653175994855e-15 2.13075285060218e-28)
(-2.27585460649826 -1.17589576342758 -1.77320247013507e-14 4.37316454053105 2.26087643714726 -1.38681207773582e-15 5.34202347619187e-21 2.77677007539297e-21 -3.63781981851476e-40)
(-2.83932497940512 -1.48803386554196 5.67141578194578e-16 5.36888870086974 2.81586262918103 -9.49437062799276e-16 -4.74427027298303e-17 -2.48824140494742e-17 8.39782050391346e-33)
(-3.4712117667573 -1.84709788267228 1.43844617089813e-16 6.45470756650295 3.43769977932532 -2.68375475401509e-16 0 0 0)
(-4.19361063458697 -2.26801384880795 -5.95149280877063e-17 7.66280143423738 4.14808944552795 5.1238552439898e-19 6.81934955334106e-17 3.69147379156037e-17 1.21296646163133e-35)
(-5.05324357551004 -2.77920016684021 4.90759883439768e-17 9.06969518674252 4.99113354759251 3.87332432421992e-19 -2.85415873889713e-21 -1.54869165067143e-21 -3.17793603449106e-37)
(-6.10060073774534 -3.39345041084566 6.57529594279196e-16 10.8148565184777 6.01417949635948 -1.07748575606308e-15 -9.69408020111235e-17 -5.39089497727303e-17 9.65651872372491e-33)
(-7.28244035503764 -4.04473886921711 -8.31895920364012e-16 12.9251613887666 7.16956652354164 1.37087333631058e-15 0 0 0)
(-8.53330000426 -4.66468651963468 4.0263197524546e-16 15.3859593095608 8.39110104879548 -7.3768914247996e-16 4.91015406781543e-21 2.55759897382344e-21 2.55201808477764e-37)
(-9.79216680765935 -5.18782596483591 -2.36459447128945e-16 18.2233532223934 9.62078003844074 4.90659359315913e-16 7.59223316911283e-22 2.67672294059956e-22 2.21843473069561e-37)
(-10.9848533614297 -5.54241525211645 4.24712536018498e-17 21.4804428812649 10.7841846375402 -1.54986893412332e-16 -1.88211656767588e-16 -9.44878932689825e-17 1.36005951176563e-33)
(-11.970880466925 -5.63172942801022 -3.10250886071503e-17 25.1444913343058 11.7461533954997 4.92926811371956e-19 -1.36808998148483e-20 -6.41068480390347e-21 -4.60520134792224e-37)
(-12.5437058699454 -5.34531475206688 5.36641677230975e-18 29.1619257103313 12.3011876990253 -8.16855925267408e-20 -1.75457433199294e-20 -6.66684902179328e-21 -8.4244366878257e-38)
(-12.3601262325247 -4.5899857776832 -3.15132761049573e-17 33.14202420548 12.1207981482111 8.39056913282948e-17 -1.3778299300711e-16 -5.03839600308783e-17 -3.48779392127307e-34)
(-11.0287002817206 -3.3715586813028 -4.21740328991164e-18 36.2442909394272 10.8174659600953 9.08438253806496e-20 0 0 0)
(-8.25575108146969 -1.92140551767685 1.43439199462439e-18 36.3850854838277 8.13118484097251 -6.41014980132185e-18 1.45127881957282e-16 3.24269553103243e-17 -2.55993406340032e-35)
(-5.20665861169318 -0.865087663618161 3.62824848807208e-18 33.2552542591634 5.14134313339527 -3.12920795461044e-17 2.61484876295401e-21 1.40833418954286e-21 1.85249522828208e-38)
(-2.80029719346807 -0.314924561861742 -2.14111403419655e-18 28.4936205735457 2.78153309424347 1.92270205158638e-17 2.14150041133268e-20 2.32792312735117e-21 -3.0582174024716e-39)
(-1.27338070895438 -0.0937335068551884 -5.37663029579968e-19 23.8045021226742 1.26305475977114 1.14137599502846e-17 -1.15978283797248e-17 -6.15336733046327e-19 -5.55644787122174e-36)
(-0.346165858201658 -0.0200786416929098 3.43692077058856e-19 19.0540974306868 0.359291831541584 1.88466740307005e-18 0 0 0)
(-0.0558757579805825 -0.00371258316426746 0 15.6328612868843 0.0520593370284454 -7.00306468603707e-22 0 0 0)
(0.00250129375277759 -0.000215976789656045 5.86862954861799e-24 14.9345037124271 -0.00511302661509708 7.06843768113212e-22 0 0 0)
(0.0385983025175769 -0.00190403069113176 -3.1872071629526e-23 16.1319493721803 -0.0343468588016392 -1.07913323041315e-22 2.73637825548209e-21 -6.36118180322153e-24 -7.50143899215232e-47)
(0.0785207741228654 -0.00831097581744671 2.32686678195785e-20 16.4793407622926 -0.0777101991591548 7.5130229945794e-22 -2.73637825548202e-21 6.36118180322138e-24 7.50143899215215e-47)
(0.213269647258038 -0.0290668394724677 -7.63978890383621e-20 17.1506360990647 -0.222104380330414 -6.46664244815779e-19 -4.09714281171378e-18 5.24115573418807e-20 -3.36607173355442e-39)
(0.599573674510745 -0.0620793718531198 3.89875659261976e-19 16.5868992424128 -0.589710160588591 1.42143828390328e-18 1.57007599957244e-17 -6.0869507326192e-19 5.19747174837276e-37)
(0.936453195266302 -0.100052348403977 -5.04983800587029e-20 14.0482634949646 -0.939167933995006 -1.29283520871052e-18 -2.55933997962777e-17 1.89642703531836e-18 -3.94825520747466e-37)
(1.01128451475086 -0.119553767403079 -5.15970498821659e-18 9.72050089129658 -0.992838907095739 -1.18106898613638e-19 0 0 0)
(0.539680700784007 -0.0400098759986904 -1.24770826607305e-17 4.34512930980941 -0.511343966867357 -5.58723306389268e-17 6.63481653898274e-18 -1.0812213218965e-18 -9.67449830835336e-35)
(-0.342819416447379 0.1919542118323 4.84875608787346e-18 -0.259450286405458 0.378283770242764 1.00990478556613e-19 4.03309119996936e-21 -1.50033832090374e-21 3.63520010548299e-43)
(-1.02345984309695 0.438086630105693 1.50352292977531e-17 -2.50719628577579 1.05309339735146 4.05606275888083e-17 -4.03914057116986e-21 1.50258872958023e-21 -3.6406526662449e-43)
(-1.28967948370664 0.58663628162284 4.31212900456554e-21 -2.97793869280799 1.31654752987592 8.08029566670322e-23 0 0 0)
(-1.37453074932794 0.672759465948054 -4.37959377053918e-17 -2.91268302501953 1.3963453045214 -9.12140731533206e-17 4.98021777173627e-21 -2.45334756623548e-21 1.98238684811664e-41)
(-1.34263500812451 0.696272755817589 1.45781606359043e-16 -2.66423744303703 1.36150345024688 2.83891673032004e-16 -7.1590582454087e-21 3.59510235372454e-21 -3.73311356357624e-41)
(-1.27108446467319 0.68839889308288 -2.44114628291113e-17 -2.39988577063151 1.28668546345602 -1.38672541571385e-19 2.20809427146596e-21 -1.15488039864019e-21 1.74577429681226e-41)
(-1.18643471728784 0.661633928934637 -3.68738231532682e-16 -2.16435088738719 1.19948554729426 -7.0601749850783e-16 -2.07890587901644e-17 1.14633728243583e-17 9.31907367249192e-34)
(-1.10350820586131 0.62449190728726 3.45352652265676e-16 -1.97415736691198 1.114264543825 5.18327422862952e-16 1.88200390161828e-17 -1.05707130357671e-17 -8.574692720475e-34)
(-1.02409996820383 0.579775175542597 7.0539691562607e-17 -1.82322089827977 1.03302097113882 2.17460854002715e-16 1.72220389363473e-17 -9.70898835616324e-18 -8.74403545496019e-34)
(-0.952172722774149 0.532475531047101 5.57913131386082e-17 -1.70994040245759 0.959392328252757 1.99377703621075e-16 -3.12503636558612e-17 1.74847561750458e-17 -2.8642671949954e-33)
(-0.894484108136615 0.492426042128728 2.59456608763522e-16 -1.62944790176144 0.900670081881949 3.1023736000119e-16 -2.95656649801401e-17 1.62917318575306e-17 -3.07601260863133e-35)
(-0.850125953437309 0.461074463302312 -1.71445451725732e-17 -1.57096640607836 0.855383153900927 -8.73518515622827e-17 4.27419737855195e-17 -2.3176799124303e-17 -6.7138875420137e-33)
(-0.81298176417256 0.434899230304643 -2.69121580323112e-16 -1.5227621792912 0.817544417217536 -3.30184792322957e-16 0 0 0)
(-0.783149853595311 0.414071929012316 -3.01790149316458e-16 -1.48392742177777 0.787082276134646 -5.70918793637193e-16 -1.33985584880609e-17 7.06793586164325e-18 -9.23373256212337e-34)
(-0.760592127445546 0.398428605261584 6.60925532419832e-17 -1.45453516164972 0.763934313913117 -1.84626433334912e-18 -9.60168118109321e-21 5.01263611194267e-21 1.48891826012951e-36)
(-0.7464172213381 0.388492318784377 6.76467740496195e-18 -1.43667571619231 0.749225385369332 1.24310225021289e-17 1.28063616280253e-17 -6.6394675943945e-18 -2.94029141261524e-33)
(-0.741717216685943 0.384630312352504 -3.64861098297658e-16 -1.43287437130709 0.744029090421189 -5.71558224508182e-16 1.98348353485463e-22 -8.17494790748214e-23 2.93723429465079e-36)
(-0.746293521275669 0.386340802960848 1.69583934719315e-16 -1.44423168804473 0.748373251260819 3.32627272426499e-16 -2.5385895993721e-17 1.31023679763183e-17 -6.23520806179455e-35)
(-0.757127264035862 0.390975118186474 1.11952218053875e-14 -1.46719336804076 0.758903584692897 2.11165090695983e-16 -1.2820912528731e-17 6.63143420353103e-18 5.07330644305196e-33)
(-0.769857650112553 0.39439271237288 4.69124432850554e-14 -1.50053724253253 0.771426182794468 7.00558946536049e-14 3.76393048140117e-15 -1.9160734211488e-15 -7.9862378061496e-29)
(-0.784099702495568 0.395740907718702 2.55124818978951e-14 -1.5470834995392 0.785501784023037 7.27016232926036e-14 3.8496282027553e-15 -1.9327118191897e-15 -7.40002250654398e-29)
(-0.798477780227068 0.393950269565892 -1.0932480751065e-14 -1.60673885636318 0.799774871695694 4.06548711536684e-16 0 0 0)
(-0.810812152133819 0.387636018171956 -7.81667265319373e-17 -1.67786495268773 0.81207219712948 -1.20726304264991e-16 0 0 0)
(-0.818512655676226 0.375414174175036 -5.89749168865993e-17 -1.75812771558231 0.819771682773424 -1.29040799143001e-16 -7.51485910572289e-18 3.45257084161768e-18 -2.30387883303046e-34)
(-0.818891748786619 0.356202705245774 -1.16848740765256e-18 -1.84501188001386 0.820201753118366 -3.58482986744049e-20 2.3806748335445e-20 -1.01437436475526e-20 1.53402022088008e-36)
(-0.810082372326193 0.329782026878438 1.84256639756613e-17 -1.93678852060448 0.811276673893848 4.66771039428957e-17 -8.15607638765659e-18 3.36191527123814e-18 -2.31329143700032e-34)
(-0.792114050356283 0.297509647994795 6.73594180206141e-17 -2.03547647271623 0.793111892691644 1.80968264085196e-16 0 0 0)
(-0.767014117168201 0.262324622028976 8.20657607774458e-17 -2.14461617741364 0.767986609543432 1.73434689405529e-16 -1.76277021837778e-17 6.25181096995128e-18 -3.89757700397342e-35)
(-0.735199961832741 0.225964872970429 -9.03556415827017e-17 -2.26157916446511 0.736053708335791 -3.58955831304797e-16 1.83902989245137e-17 -5.92325521086081e-18 7.0548447439266e-34)
(-0.694421858608829 0.18850199403169 9.84870764559675e-19 -2.38103219466974 0.695221055319778 2.57367735952356e-19 2.75372448327832e-20 -8.34891369637264e-21 -1.49016559195596e-36)
(-0.643905837280789 0.150847791794004 -2.90279094785081e-15 -2.50001498408576 0.644603189788296 6.94758111183856e-17 1.00602029515981e-17 -2.53698732467021e-18 -2.64774448785688e-35)
(-0.58326008239974 0.114097948730222 -6.82148048102943e-15 -2.61629381381956 0.583829366023856 -1.79051685980724e-14 -1.32417272547261e-15 2.88711560328363e-16 -3.69888298692439e-30)
(-0.512869110657498 0.0795755329611383 -4.77948163395744e-16 -2.72914003336351 0.513254663750561 -1.86576206199969e-14 -1.36371052698832e-15 2.50286299039016e-16 -3.25703869873288e-30)
(-0.43399013107232 0.0486790480267818 2.87288265389221e-15 -2.84027955255938 0.433978061674824 -1.18675621967314e-16 1.67123886248614e-17 -2.50784587334052e-18 -6.43808138888044e-34)
(-0.347630621522527 0.0225277327330794 -1.89173667452499e-17 -2.95487861847822 0.347558969321504 9.14871395150433e-17 -1.15513691119294e-17 1.3358351771755e-18 -1.44905754032885e-35)
(-0.255977017612 0.00247494495451638 2.11565346866751e-17 -3.08316703797155 0.256140018050224 1.2658766823962e-16 -6.02694910780892e-18 4.86212087920996e-19 4.01551072725781e-35)
(-0.173333569988813 -0.0090309617701298 5.86940666293567e-18 -3.26746023053121 0.167907671087918 -3.13429692827171e-19 1.65888543593889e-20 -1.6263637031529e-21 3.83435094559047e-37)
(-0.0950310061271113 -0.00883140285559582 3.24191157788988e-20 -3.56505331675098 0.0959351907106222 4.79308167989818e-18 -2.30981383378228e-21 -3.09588757210131e-22 -8.87141126679125e-42)
(-0.0714839375327253 -0.00300234136836857 3.40290482095517e-15 -3.90449766585897 0.0682477883223161 -8.55976885490394e-17 2.16951608554825e-20 -2.89929157307273e-22 -7.26084606651541e-40)
(-0.0550112730543812 -0.00124832587459037 3.41074644777675e-15 -4.15991551536377 0.0528013311735575 2.24466535211597e-14 2.5264117930834e-15 -1.42168583997142e-17 -4.22816509355004e-30)
(-0.0437251042254473 -0.000911292151847441 -3.40292786830788e-15 -4.35872776792279 0.0415434038250466 2.2989650280522e-14 2.67288376219524e-15 -1.13328568248269e-17 -3.86538997076239e-30)
(-0.0350840432065449 -0.000686879441771416 -3.41074574584424e-15 -4.51337923168263 0.0332170835760788 7.34460701853504e-17 -2.83969580615379e-20 9.90041708537643e-23 -3.34206702426584e-42)
(-0.0284364582206329 -0.000543866768074958 2.3170525514332e-20 -4.63517667366147 0.0267321830354918 6.65607565170818e-21 2.83969580615375e-20 -9.90041708537628e-23 3.34206702426579e-42)
(-0.0230280234453011 -0.00044150524102958 -1.08999192769562e-20 -4.73029476267378 0.0215465270645525 -3.36925014982584e-19 -5.82449891631316e-31 1.25610509792485e-33 1.70103642545227e-50)
(-0.0185569460030478 -0.000369928368385438 3.561395613251e-15 -4.80366615248212 0.0172675939876426 -5.07710580346159e-17 1.53413417854708e-20 -2.73813950263827e-23 -5.81279251687755e-35)
(-0.0147291562998717 -0.000317791176462067 3.62348834595598e-15 -4.85850968213756 0.0136444945419242 2.39901845567873e-14 3.03227854209686e-15 -4.33139571683409e-18 -3.96204695722938e-30)