/*--------------------------------*- C++ -*----------------------------------*\
  =========                 |
  \\      /  F ield         | OpenFOAM: The Open Source CFD Toolbox
   \\    /   O peration     | Website:  https://openfoam.org
    \\  /    A nd           | Version:  7
     \\/     M anipulation  |
\*---------------------------------------------------------------------------*/
FoamFile
{
    version     2.0;
    format      ascii;
    class       volScalarField;
    location    "20000";
    object      k;
}
// * * * * * * * * * * * * * * * * * * * * * * * * * * * * * * * * * * * * * //

dimensions      [0 2 -2 0 0 0 0];

internalField   nonuniform List<scalar> 
15600
(
1.36332993565011e-06
1.43574136213804e-06
1.37578453240029e-06
1.1566353806313e-06
8.83776112243069e-07
5.89998754144863e-07
3.41038806849666e-07
1.73752806519179e-07
8.9812626151126e-08
6.30601321622674e-08
5.43782523597587e-08
4.65258416670021e-08
3.74927988636509e-08
2.99100412358611e-08
2.46842863724506e-08
2.14091688462091e-08
1.95099338002837e-08
1.85708743961199e-08
1.82272436832894e-08
1.82169439326311e-08
1.84842130745352e-08
1.9080125781631e-08
2.00965778885119e-08
2.16619964837047e-08
2.39051522134404e-08
2.69270510296806e-08
3.08089651161726e-08
3.57503623940666e-08
4.19731754021133e-08
4.96737329793725e-08
5.90339099667391e-08
7.02060196894279e-08
8.33211665134867e-08
9.85551957320944e-08
1.16287046653263e-07
1.36831870949564e-07
1.60054681065903e-07
1.85725126054208e-07
2.13490850062206e-07
2.4288760109008e-07
2.73457788248868e-07
3.05062695451611e-07
3.38564019436638e-07
3.76697625788518e-07
4.28413093936546e-07
5.11396329300086e-07
5.97760979434494e-07
6.79342966947227e-07
7.56761344234736e-07
8.3081558134341e-07
9.01783804537874e-07
9.70028106497238e-07
1.03569611300574e-06
1.09890581206909e-06
1.1596923828121e-06
1.21808181184659e-06
1.27411815132667e-06
1.32789617901372e-06
1.37957465447231e-06
1.42827792351517e-06
1.4731428673741e-06
1.51376987614454e-06
1.55000506284494e-06
1.58178763664517e-06
1.60920064650852e-06
1.63253196145164e-06
1.65235193549754e-06
1.66959700076287e-06
1.68569628584324e-06
1.70265361631104e-06
1.72324203276765e-06
1.75094086210789e-06
1.79023018060516e-06
1.84288006821281e-06
1.90993551669398e-06
1.94453848189134e-06
1.85562461900107e-06
1.83972687623593e-06
1.88742181045909e-06
1.96570255089513e-06
2.06499885899467e-06
2.17726342901739e-06
2.2986138479323e-06
2.42547177971738e-06
2.55583997534584e-06
2.68772393788203e-06
2.82286323212759e-06
2.96983199406816e-06
3.12769995925251e-06
3.28714184396658e-06
3.44051085237146e-06
3.58075061951672e-06
3.70037780926794e-06
3.78875417197216e-06
3.83697429062098e-06
3.82844190025546e-06
3.78358235172595e-06
3.71830404882077e-06
3.64305899908788e-06
3.5661034864968e-06
3.49419553040955e-06
3.43539447263834e-06
3.40094479571282e-06
3.42328341510005e-06
3.50810666224397e-06
3.60736859742239e-06
3.72204867003421e-06
3.85132163063167e-06
4.00292154800398e-06
4.1583528110117e-06
4.29123520168302e-06
4.27590578613131e-06
3.9245377701676e-06
3.3394234103829e-06
2.7617159373215e-06
2.24424218749913e-06
1.83638098792909e-06
1.50745766911717e-06
1.35994274210881e-06
1.33633012902093e-06
4.40429899680479e-05
4.63060772010968e-05
4.44416501619148e-05
3.74005812698793e-05
2.86075681574933e-05
1.91433392977142e-05
1.1113274406199e-05
5.69341226536627e-06
2.94689297752353e-06
2.05725976180363e-06
1.76936416680208e-06
1.51641649007679e-06
1.22472341665737e-06
9.77695210066198e-07
8.06264602739877e-07
6.98330991226987e-07
6.35410312320862e-07
6.03974999682542e-07
5.92155618903391e-07
5.91363409338492e-07
5.9959193134645e-07
6.18399408151226e-07
6.50710975136581e-07
7.00659907336539e-07
7.72437096960689e-07
8.69397982065709e-07
9.94142746664829e-07
1.15303069728039e-06
1.35327733488982e-06
1.60132412012738e-06
1.90316313399221e-06
2.26385082209728e-06
2.68773073410408e-06
3.18037020302896e-06
3.75387561471213e-06
4.41881895682336e-06
5.17125140929512e-06
6.00379086641175e-06
6.90505745098968e-06
7.85994381470106e-06
8.85343087367674e-06
9.8807047509788e-06
1.09695229659234e-05
1.22076369671458e-05
1.38750413855634e-05
1.65482426441477e-05
1.93370526978019e-05
2.19735935810844e-05
2.44754228137955e-05
2.68684439041743e-05
2.91616291633214e-05
3.13667200125129e-05
3.34884982729623e-05
3.55308016139067e-05
3.74947823200246e-05
3.93812942277107e-05
4.11917701460709e-05
4.29292782391222e-05
4.45990976948172e-05
4.61685329490029e-05
4.76071778691758e-05
4.89094624642991e-05
5.00706873599065e-05
5.10891821775221e-05
5.19679318916518e-05
5.27165285036638e-05
5.33536392782538e-05
5.39096901070713e-05
5.44307825019103e-05
5.49813825914379e-05
5.5650001144453e-05
5.65463571972715e-05
5.78091097140963e-05
5.94938327186131e-05
6.15616166883117e-05
6.25188507797433e-05
5.98589475002544e-05
5.94664578189229e-05
6.10567551819513e-05
6.36118241461575e-05
6.68298680065949e-05
7.04572154073268e-05
7.43696580821555e-05
7.84545228982449e-05
8.26479354790012e-05
8.68914781191834e-05
9.12478434920425e-05
9.59751423896559e-05
0.000101030030273553
0.00010611740018802
0.000110997611592267
0.000115448973496185
0.000119230661376307
0.000122007425363156
0.000123495756700944
0.000123209200204478
0.000121792899494712
0.000119736987965289
0.000117366936123812
0.00011494262575618
0.000112679969469501
0.000110837095925937
0.000109783264617619
0.000110521466345622
0.00011319886946128
0.000116342614044294
0.000119968105376316
0.000124048686345253
0.000128806903434528
0.00013365892757825
0.00013775376452195
0.000137224915088619
0.000126354749549774
0.000107430486569403
8.89082140988399e-05
7.23362822530585e-05
5.92630476671201e-05
4.87071426011131e-05
4.39864194516199e-05
4.3220991223754e-05
0.000319129855884906
0.00033369103254197
0.000321740481630688
0.000271910013644294
0.000208635005292601
0.00014025369399377
8.19146074069062e-05
4.23336544736535e-05
2.18976576771204e-05
1.518629563397e-05
1.30142322262562e-05
1.1168140612807e-05
9.042042398487e-06
7.22677153765258e-06
5.95804711745997e-06
5.15569674279953e-06
4.68582524178774e-06
4.4482416643529e-06
4.35603425225372e-06
4.34637255689781e-06
4.40304342233504e-06
4.53670923164131e-06
4.76839132496865e-06
5.12814916130996e-06
5.64680369391342e-06
6.34961730476479e-06
7.25549154202314e-06
8.40997158150451e-06
9.86578927169927e-06
1.16704310546839e-05
1.3868151115411e-05
1.64963914547345e-05
1.95869964523676e-05
2.31789439281335e-05
2.73582277526637e-05
3.2203435156267e-05
3.76884817962764e-05
4.37595305654843e-05
5.03335118287092e-05
5.72995040926981e-05
6.45462625980534e-05
7.20339731734179e-05
7.99506568483436e-05
8.89212375071883e-05
0.000100923895016431
0.000120074317714585
0.000140067524144474
0.000158961661898812
0.000176864907261258
0.000193967943047326
0.000210338132578207
0.000226063369651113
0.000241180342017199
0.000255719158140527
0.000269690127089734
0.000283100996852465
0.000295963264717814
0.000308299736497765
0.000320103957314111
0.000330992668002136
0.000340969778529115
0.000349996424248232
0.000358046186475465
0.000365113959728353
0.000371226934243358
0.00037645778153803
0.000380941078659897
0.000384891296967775
0.000388627202377447
0.000392588828092556
0.000397365112417519
0.000403662246702569
0.000412302519426072
0.000423442739623162
0.000435829975721511
0.000439987737326509
0.00042466956527429
0.000424099231379417
0.0004359843016188
0.00045413413336592
0.000476606597055616
0.000501761457423855
0.000528775575667515
0.000556925833333617
0.000585800080993534
0.000615084058000371
0.000645263369645616
0.000677856312425009
0.000712440153730809
0.000747111010281027
0.000780334489426666
0.000810677776899824
0.000836506454745282
0.000855618912270744
0.000866158376671083
0.000865352314646772
0.000857062562536672
0.000844380828616041
0.000829418924707019
0.000813894405500996
0.000799272274002741
0.000787292345768827
0.00078045524465876
0.000785102136815295
0.000802270890319142
0.000822968933370589
0.00084683756876045
0.000873561901444634
0.00090435683345001
0.00093544331343929
0.00096149704103416
0.000959062661385047
0.00089352353382667
0.00076362231419856
0.000634871401883034
0.000519309592036113
0.00042764428950614
0.000353196133273595
0.000319834675522918
0.000314447077217946
0.00114714252690328
0.00118719341495071
0.00115173309091762
0.000985108669667689
0.000766024465244699
0.000523633341509731
0.000310954109721393
0.000163539940137741
8.44370743689259e-05
5.7885826322971e-05
4.93620330416057e-05
4.23744540952336e-05
3.43952978415373e-05
2.75317341913813e-05
2.26982513044823e-05
1.96270484848826e-05
1.78212408898959e-05
1.68939090985905e-05
1.65212255236623e-05
1.64666264586727e-05
1.66628446147457e-05
1.71468079139417e-05
1.79959320681105e-05
1.93223148282622e-05
2.12416757040709e-05
2.38499647716611e-05
2.72165601153284e-05
3.1506557635206e-05
3.69135826317116e-05
4.3611532300777e-05
5.17604249362799e-05
6.14925365041474e-05
7.29155574764383e-05
8.61571058977881e-05
0.000101511555847407
0.000119248900467005
0.000139259527771283
0.000161326282060338
0.000185129242143084
0.000210252340538777
0.00023628245571587
0.000263048117064496
0.000291143187796643
0.000322784507543538
0.000364811888155234
0.000430525088723684
0.000498269624618803
0.000561826180369657
0.000621555622498883
0.000678214445562572
0.000732088561109969
0.000783538452319047
0.000832731189384043
0.000879811451515255
0.000924849558162388
0.000967901369637436
0.00100903019817463
0.00104834053636426
0.00108464456702046
0.00111817351727603
0.00114885241879748
0.00117660613214118
0.00120139646991218
0.00122324640789847
0.00124227092260275
0.00125871381210623
0.0012729926533398
0.00128574734130373
0.00129789960861952
0.00131068716887366
0.00132569449173197
0.00134469092479187
0.00136938476111859
0.00139912719013278
0.00142813290733047
0.0014336210805644
0.00139991264321001
0.00140707663259527
0.00144655808634116
0.0015032919298806
0.00157211537543771
0.00164867002214867
0.00173074575004458
0.00181649237233716
0.00190489666111069
0.00199537044861555
0.0020893985946481
0.00219036785479054
0.00229659748037924
0.00240304098668454
0.00250563263188413
0.00260048575432338
0.00268285161897891
0.00274645728803088
0.00278671336461285
0.00279713802800932
0.0027863787928501
0.00276228858703681
0.00273044790605711
0.00269555430664896
0.00266180627636236
0.00263422558637631
0.00261998101700797
0.00263619182801743
0.00268666645067285
0.00274820592307572
0.00281792637791793
0.00289387023552889
0.00297837709162471
0.00306031014000447
0.00312608927746319
0.00311615721225875
0.00294653272501998
0.00256045669988887
0.00215963226373848
0.00179521515842018
0.00150341356736221
0.00126243563404353
0.00115339012021736
0.00113587633589757
0.00267019437860512
0.00272751869793778
0.00266238436282173
0.00232996340648882
0.00186785673187513
0.00132830172104569
0.000822366750091659
0.000449490336805609
0.000234240559394002
0.000157337336257124
0.000133185457233205
0.000114159074660475
9.28978293069807e-05
7.44968680427819e-05
6.14312975080222e-05
5.30849503637032e-05
4.81591518231157e-05
4.55742733923043e-05
4.44960417370829e-05
4.42852827720886e-05
4.47443487007554e-05
4.59609772898775e-05
4.81348474459359e-05
5.15586052100516e-05
5.65332792078171e-05
6.33058557433803e-05
7.20456009016712e-05
8.31574228496542e-05
9.71136863229813e-05
0.000114323177994372
0.000135140468859993
0.00015982768466617
0.000188562130169827
0.000221549482847585
0.000259376072689686
0.000302533941696989
0.000350593860452739
0.000402886389718229
0.000458546381266856
0.000516559618449968
0.000576003871742763
0.000636550152735665
0.000699595078141525
0.000770340966227282
0.000863033225238658
0.00100138331836744
0.00113971943412106
0.00126762124935747
0.00138591699676728
0.00149669881698042
0.00160079493451398
0.00169918696097926
0.0017923791262582
0.00188081590312568
0.00196476272114794
0.00204443043345592
0.00212002616858162
0.00218992083395217
0.0022545993100117
0.00231420641348047
0.00236869056343474
0.00241801548339397
0.00246220093325212
0.00250136044324353
0.00253574872688734
0.00256581708836491
0.00259227864141001
0.00261617499417859
0.00263894643712362
0.00266244778646796
0.00268890781141156
0.0027205433931856
0.00275887518622372
0.00280134794749493
0.00283744993349744
0.00283944655119787
0.00280221377957962
0.00282862580436373
0.00290305651458699
0.00300529334067081
0.00312750341305321
0.00326325700487747
0.0034092312378259
0.00356280833186967
0.00372263232399851
0.00388817359631767
0.00406174355415152
0.00424709451925591
0.0044407603407491
0.00463524734508404
0.00482444794535069
0.00500235066405142
0.00516100129243585
0.00528984027382424
0.00538479493861813
0.00543635442884256
0.00545545216858201
0.0054531159896847
0.00543740986294458
0.0054153054108754
0.0053932914977204
0.00537922980783571
0.00538430463989936
0.005434007727035
0.00553556656190759
0.00565522928376874
0.00578505769478177
0.00591941891385863
0.00605977827102433
0.00618661918248714
0.00628020670742217
0.0062523169389094
0.00598994360936053
0.00534058314081001
0.00460945115932282
0.003920068477221
0.0033637078978908
0.00289921769601871
0.00268647318456396
0.00265313500894253
0.00454257317575637
0.00458493719879628
0.00449485811877844
0.0040441481883697
0.00337764740085008
0.00254173492117599
0.00168139286609988
0.000982375556413406
0.000536452603680555
0.000350093636084205
0.000292505640228362
0.000250056814586246
0.000204008030669835
0.000163992572829757
0.000135308227720836
0.00011685989395101
0.000105918549995728
0.000100003520098195
9.74301954698266e-05
9.67700983144066e-05
9.75510611985371e-05
9.99310471749324e-05
0.000104316770186679
0.000111311006669362
0.00012152092515599
0.000135421102356873
0.000153298895799849
0.000175884290817213
0.000203998223787127
0.000238273935015143
0.000279168598348644
0.000326893741410559
0.000381456332447732
0.000442906747297565
0.000511950936626095
0.000589039676447786
0.000673054349397362
0.000762623117248455
0.000856244825031689
0.000952433025122954
0.00105012094953534
0.001149412276639
0.00125328100519932
0.00137049285883943
0.00152052114200789
0.00172923759637721
0.00193144039095192
0.00211632742561749
0.00228517437393056
0.00244180663488341
0.00258772022344863
0.00272461672955998
0.00285340768201215
0.00297488791947526
0.00308956870952876
0.00319784065271623
0.00329834794541544
0.00339143673422706
0.00347759873240198
0.00355693671041005
0.00362946930776832
0.00369523543509566
0.00375433805449574
0.00380698843784786
0.00385356006941092
0.0038946494808325
0.00393114391630039
0.00396428385119072
0.00399571336646335
0.00402744908388066
0.0040617380800836
0.00410048883297906
0.00414430025275332
0.00418906109228
0.0042225666064955
0.00422100833102641
0.00419393792074769
0.00424149684535808
0.00434503367477731
0.00448355192976677
0.00464776797166043
0.00483038671865769
0.00502746917548684
0.0052360849604451
0.00545475578837399
0.00568311798453331
0.00592373937269168
0.00617953574658457
0.0064455832813546
0.00671324179007846
0.00697532319954172
0.00722451046937797
0.00744933836212809
0.00763918111059048
0.00779089383683082
0.0078942425351592
0.00796044310956264
0.00800183208395395
0.0080276736413265
0.00804607383680619
0.00806470579445982
0.00809275691745545
0.00814311626624871
0.008243340013197
0.00840201071120635
0.00858286503046623
0.00877292060671484
0.00896246045511689
0.00914997746489385
0.00931035697344169
0.00942083020202896
0.00938175046392654
0.00907642531857489
0.00829699898108444
0.00733656226362017
0.00637230020504204
0.00557548925197188
0.00490880909996868
0.00458937627100021
0.00452692716920237
0.00633159502590743
0.00633844570807909
0.00622603756217837
0.00573130690927467
0.00496823541504309
0.00395395450456591
0.00280831343903455
0.00178437714571565
0.00105551810295627
0.000680238384120898
0.000556381292688878
0.000474284034831581
0.000388053991046889
0.000313035094878516
0.000258619348125962
0.000223285536102596
0.000202069610084334
0.000190270271372486
0.00018484246094869
0.000183043523915686
0.000183898106237136
0.000187619759325117
0.000194892719945536
0.000206743439608621
0.000224160592909476
0.000247837750500465
0.00027808598997408
0.000315888813554761
0.000362269365110627
0.000417828513249755
0.00048279240149678
0.000556964576696439
0.000639890307323244
0.000731299388471183
0.000831872518774774
0.000941841270800491
0.0010594615567326
0.0011829371215324
0.00131057956392433
0.00144103701336926
0.00157378851243195
0.00171001108685471
0.00185444110792918
0.00201803947688289
0.0022206203165344
0.0024822605802187
0.00273064921133376
0.0029566508177943
0.0031619461915275
0.00335161708515823
0.00352766966766558
0.00369229691445673
0.00384671332016106
0.00399195654704944
0.00412872937153588
0.00425644925052637
0.00437484651928221
0.00448475187746206
0.00458650056926641
0.00468022245389456
0.00476599908102827
0.00484393428793797
0.00491419843843977
0.00497707460700377
0.00503301277372964
0.00508268853088984
0.00512706390033782
0.00516743549786794
0.00520545562817646
0.00524305371263125
0.00528221418306668
0.00532431561334156
0.00536909282913058
0.00541175451545037
0.0054406144624907
0.00543807080909449
0.0054247453024877
0.00549022894684429
0.00561601302887812
0.0057817696296691
0.00597740612077253
0.00619529986219725
0.00643111132006581
0.00668175115348437
0.00694565252225657
0.00722253496488116
0.00751487604410827
0.0078245536029257
0.00814564371494131
0.00846897110515046
0.00878672043533729
0.00909039100699317
0.009364699520007
0.00960318636874596
0.0098015398379853
0.00995023639716564
0.0100601267480802
0.0101440655491705
0.0102119922982747
0.0102726832678755
0.0103345026697637
0.0104072403807567
0.0105043903965268
0.0106525683924161
0.0108600576158639
0.0110921974318819
0.0113325031837809
0.0115681487368377
0.0117939491501748
0.0119817941380827
0.0121063601383095
0.0120668071508254
0.0117509052065028
0.0109487413711821
0.00988714534893417
0.00874791173841958
0.00775922913755811
0.00691695590642087
0.00647392719963268
0.00634588571604851
0.00790837551304735
0.00786610820278792
0.00772755309064712
0.00722462193326695
0.00643727730785057
0.00535984886881479
0.00404808048811641
0.00278235512722534
0.00180489845236439
0.00118848157979792
0.000944901029606142
0.000802664740950145
0.00065898322718651
0.000534395769397827
0.000442652389334361
0.000382264065784264
0.000345186591368964
0.000324000969384758
0.000313583685197178
0.000309274421361773
0.000309290780677307
0.000313818708338499
0.000323828729092624
0.00034080497816075
0.000366084627602353
0.000400448532289104
0.000444042903790378
0.000497901956867053
0.000562977597375475
0.000639545987752317
0.000727363011902946
0.000825718296876905
0.000933766409330402
0.00105109107260833
0.00117839408951039
0.00131572694295027
0.001461067353849
0.00161258628151785
0.00176880816640936
0.00192887977161481
0.00209307118212837
0.00226359667788499
0.00244623126383843
0.00265212276049566
0.00289829913235016
0.00319712798982754
0.00347836405122615
0.00373404053066924
0.00396630623327996
0.00418073948490397
0.00437967354520836
0.00456553041077792
0.00473971163766068
0.00490338295065616
0.00505701427774015
0.00519971939199772
0.00533243438652121
0.00545576449905766
0.00557000858837833
0.00567533206345162
0.00577186613479781
0.00585976487354684
0.00593924842849337
0.00601064866284531
0.00607446071285715
0.00613139636050943
0.00618243485982813
0.00622885471917762
0.00627222758574964
0.00631430346961656
0.00635674197428715
0.00640043514170618
0.00644454310858951
0.00648424991776242
0.00650932900180583
0.00650782661666177
0.00650750010253062
0.00658744532267501
0.00673057708459236
0.0069175012018418
0.00713761384200972
0.0073831322370578
0.00764939717927621
0.00793318767644418
0.00823282968475765
0.00854802809443025
0.00888101217577211
0.00923273209409382
0.00959657568164576
0.00996306854159253
0.010323930465216
0.0106684981315346
0.0109804385470471
0.0112568108515538
0.0114919360463841
0.0116773256357579
0.0118232918954504
0.0119428455473625
0.012046334228206
0.0121429776708006
0.0122415908780178
0.0123522680694284
0.0124887040629596
0.0126757528140397
0.0129206866489957
0.0131915704031551
0.0134698060847499
0.0137405088775744
0.0139949455922873
0.0142034155267833
0.0143376413418661
0.0142995229690125
0.0139815343154497
0.0131992485009087
0.0121157699170803
0.0108980806580675
0.00978170788521219
0.00879541635899206
0.00821440954848222
0.00798394704375581
0.00930714002428516
0.00920363668975869
0.00903080555841317
0.00852602393327058
0.00774226258196374
0.00666238965762661
0.00528367180870378
0.00386724007645092
0.00272244364112599
0.00188961084769968
0.00145957024608721
0.00122881188600819
0.00101521332335259
0.000829059207472825
0.000689592095804461
0.000596014338553379
0.000536943730609272
0.000502289957093249
0.000484030290071615
0.000475089529090121
0.000472567799841802
0.000476466549534818
0.000487969584562624
0.000508955824960632
0.000540998507684127
0.000584810456092663
0.000640251437241544
0.000708251254941807
0.000789519494676633
0.000883916753942131
0.000990751377955373
0.00110895311558183
0.00123751456409187
0.00137604952803666
0.00152527758811541
0.00168511459126872
0.00185351153517919
0.00202880450726175
0.00220987693094847
0.0023964159264916
0.00258935964587953
0.00279155659672092
0.00300896338643951
0.00325163651512208
0.00353308173314935
0.00385934218762655
0.00416586486366782
0.00444486311373081
0.00469898484267344
0.00493375775331934
0.00515173190851512
0.00535539641286739
0.00554627196197898
0.00572565031039876
0.00589310771801052
0.00604894019431176
0.00619409583030411
0.00632909617630604
0.00645424283642057
0.00656973620898266
0.00667574876502662
0.00677247486819436
0.0068601722796916
0.00693920591718925
0.00701009547167106
0.00707356228415501
0.00713056972402759
0.00718233986072923
0.00723032579093911
0.00727607387510069
0.00732093720214936
0.00736543183935307
0.00740841249977266
0.00744541717439995
0.0074679385191947
0.0074685566467215
0.00747947250000729
0.00757112938576538
0.00772816125268461
0.00793211886986308
0.0081720549384451
0.00844007378320893
0.00873123527061368
0.00904218058051716
0.00937110405101577
0.00971762087850465
0.0100836427917278
0.0104693349034655
0.0108675880847983
0.011268728087377
0.0116640346461092
0.0120392967082826
0.0123812243963493
0.0126876668739713
0.0129521661529857
0.0131672776646889
0.0133427604406064
0.0134915873329536
0.0136243413616417
0.0137505393036765
0.013879291764591
0.0140208440710353
0.014188900732634
0.0144064361764685
0.0146794900008115
0.0149788547624874
0.015284709192677
0.0155808288100039
0.015855309213586
0.0160774782458143
0.0162158368404008
0.0161759753261683
0.015853985147636
0.0150971330772366
0.0140238301848369
0.0127895031060623
0.0116073551830738
0.0105237223062537
0.00981590832910697
0.00946650633794248
0.0105804918431041
0.0104078698579286
0.0101918337689231
0.00968063278272277
0.00890747780616788
0.00784236990819578
0.00646150014810233
0.0049568961832257
0.00372831283796102
0.00274699927377147
0.00209001047927682
0.00173246499294148
0.00143797226743642
0.00118409175040613
0.0009896262678552
0.000856044968523775
0.000770070178669108
0.000718106911543866
0.000688978494073636
0.000672995791393756
0.000665912150241282
0.000667343749433751
0.000678548538146321
0.000701672680796677
0.00073841209413339
0.000789337633613102
0.000854036087105002
0.000933276854552262
0.00102748251877933
0.00113614060379115
0.00125822778140057
0.00139247865496917
0.0015378632432528
0.00169407140423193
0.00186179580467464
0.00204085520703726
0.00222930140115682
0.00242569286772664
0.00262926771470043
0.00284014622791565
0.00305969437883021
0.00329097908330828
0.00353956287557521
0.00381394871610237
0.00412455599100775
0.00447295797070102
0.00480069973832695
0.00509965347538734
0.00537289889545007
0.00562564006696976
0.00586057699200603
0.00608018836254375
0.00628606808704926
0.00647937184909889
0.00665941460991042
0.00682730045542285
0.006983842209689
0.00712953383770945
0.00726469469552806
0.00738955887735765
0.00750433497527202
0.0076092510381349
0.00770459401725532
0.0077907509287193
0.00786825201223462
0.00793781089662697
0.00800035518585282
0.00805703043814885
0.00810915709016599
0.00815808145248879
0.00820489270888282
0.00824984147130154
0.0082916762858161
0.00832647740128082
0.00834741691252359
0.00835059579434363
0.00837099010639426
0.0084722477080008
0.00864063785449826
0.00885863754128838
0.00911507089883023
0.00940194236611158
0.00971405503900338
0.0100478990010261
0.010401515261742
0.0107743751804197
0.0111680436689378
0.0115820173389278
0.0120088079723125
0.0124385755648545
0.0128615275275315
0.0132607247161769
0.0136272046506588
0.013958069809207
0.0142465485278789
0.0144861616803546
0.0146861533193188
0.0148593444375994
0.0150164303484168
0.0151671187432058
0.0153207014105607
0.0154874778839806
0.0156810399964893
0.0159225455828732
0.0162167913206994
0.0165369992193693
0.0168626476892102
0.0171766128212811
0.0174642230863746
0.0176940553250012
0.0178313702338252
0.0177852646957943
0.0174548564842051
0.0167141746057033
0.0156616939849881
0.0144399862505239
0.0132344352836326
0.0120985765812965
0.0112938676914213
0.0108319171246202
0.0117605253552144
0.0115177054802058
0.0112533131918242
0.0107287508135615
0.00996688241512794
0.00891358952256251
0.00756755251811716
0.00601016595828944
0.00476327372565941
0.00370042642566536
0.00283056533712516
0.00229795872183913
0.00190576666060675
0.0015790539616832
0.00132581493453628
0.00114851451409258
0.00103217163244137
0.000959916627381683
0.000917369739381828
0.000892303836960059
0.000878990291862308
0.000876442280150609
0.000885807604328403
0.000909339639027848
0.000948773854199549
0.00100454418688851
0.00107604813888024
0.00116389220929577
0.00126823230219605
0.0013882617753621
0.00152273232465261
0.00167028603772562
0.00182991989591341
0.002001385296384
0.00218531919575074
0.00238147941324376
0.00258806324338634
0.00280383882384963
0.00302833141962191
0.00326195051722716
0.00350626263736511
0.00376425273832533
0.00404081145918152
0.00434289413116961
0.00467854568670571
0.0050462732857699
0.00539296244020424
0.00571004608518458
0.00600088588579108
0.00627026755840866
0.00652098700895572
0.00675548292674271
0.0069754174241319
0.00718150827571813
0.00737355108919445
0.00755284734411582
0.00772015242461906
0.00787595914645552
0.00802061128370202
0.00815437554688296
0.00827749323115363
0.00839022140675103
0.00849287010462696
0.00858584051499844
0.0086696635825549
0.00874503370426406
0.0088128306183079
0.00887411336830158
0.00893006742029646
0.00898185384246753
0.00903034420837307
0.00907561587798178
0.00911644562251741
0.00914952902379833
0.00916956145520743
0.00917537480060633
0.00920370721430347
0.00931291247148542
0.00949069946076769
0.00972045631740368
0.00999086821565801
0.0102938450866221
0.0106239510601018
0.0109775117918422
0.0113523966424663
0.0117478936508944
0.012165210431193
0.0126032609602969
0.0130542518702904
0.0135081609625054
0.0139529849940452
0.0143717770357701
0.0147586907906504
0.0151097622988857
0.0154181858094295
0.0156783522436726
0.0158990431037237
0.0160928549758291
0.0162705014850372
0.0164417981935565
0.0166161261768517
0.0168037666804491
0.0170181046128397
0.017278577130446
0.0175888165235547
0.0179241481932735
0.0182636476110201
0.0185895610226979
0.0188848223630159
0.0191172933540769
0.0192491314721795
0.0191923951578571
0.018849250220892
0.0181165828177504
0.0170839592815966
0.0158852120051291
0.0146798507427104
0.0135239176222538
0.0126545447144184
0.0120995175209395
0.0128621880878981
0.0125540413369872
0.0122402981008294
0.0116975947722236
0.010946263085754
0.0098984251608335
0.00860283399733473
0.00701446616996772
0.00576980681293088
0.00469703927792232
0.00366813746896473
0.0029245174573088
0.00240951098540437
0.00200178734401248
0.00168576154010746
0.00146163569770498
0.00131226070300454
0.00121743980721923
0.00115954007296012
0.00112393340953887
0.00110330824315697
0.00109585064785021
0.00110238906725264
0.0011251129221808
0.00116573538121228
0.00122459197663606
0.00130098331191871
0.00139537834185851
0.00150771922452275
0.00163698709275455
0.00178178893520809
0.00194072814558443
0.00211283495865352
0.00229789707093322
0.00249648792865105
0.00270832995039326
0.00293176476439384
0.00316572970083504
0.0034099533840544
0.00366500251459958
0.00393247094862024
0.00421508312919718
0.00451697890077573
0.00484376114025865
0.00520173157288555
0.005587240316648
0.00595154791988116
0.00628574632484215
0.00659329653749075
0.00687856095305936
0.00714438071247854
0.00739314549333244
0.00762664315797822
0.0078448423060263
0.00804852404366328
0.00823884921007779
0.00841655055048302
0.00858213342838844
0.00873596936731652
0.00887835686286105
0.00900956749435576
0.00912988393170583
0.00923963473549762
0.00933922944011842
0.009429192709388
0.00951019203254878
0.00958305213968723
0.00964874150865689
0.00970831438974405
0.00976276527565123
0.00981279058421331
0.00985836560008552
0.00989837975302039
0.00993015087150123
0.00994970798260727
0.00995802924355431
0.00999299964897473
0.0101088177914232
0.0102944291849442
0.0105341195124046
0.0108165104263675
0.0111334232804776
0.011479197763864
0.011849983539693
0.012243462894615
0.012658710850189
0.0130965765714534
0.013555451819271
0.014027281836781
0.0145016764402618
0.014963469497278
0.0153989719618851
0.0158030742716473
0.0161710749116947
0.0164963101449934
0.0167739501341251
0.0170123653248063
0.0172238773781505
0.0174191416121621
0.0176080120912032
0.0177998799341379
0.0180049465498129
0.0182363111868646
0.0185117822111155
0.01883394176506
0.0191799428348514
0.0195286186687996
0.0198617652601067
0.0201602555833446
0.0203911949882328
0.0205138359308359
0.0204425929923314
0.0200831305807856
0.0193520871199918
0.0183353321770292
0.0171612386795782
0.0159677002563138
0.0148110969160655
0.0139028685917926
0.0132770917842623
0.0138924755922901
0.0135258031204674
0.0131663075409864
0.0126040181466761
0.0118618840224469
0.0108175837714338
0.00957130776751791
0.00797128548314288
0.0067250929579546
0.00569185720915727
0.00457841616537264
0.003623628957065
0.00295233192736761
0.00244986510028249
0.00206465577496818