/*--------------------------------*- C++ -*----------------------------------*\
  =========                 |
  \\      /  F ield         | OpenFOAM: The Open Source CFD Toolbox
   \\    /   O peration     | Website:  https://openfoam.org
    \\  /    A nd           | Version:  7
     \\/     M anipulation  |
\*---------------------------------------------------------------------------*/
FoamFile
{
    version     2.0;
    format      ascii;
    class       volScalarField;
    location    "20000";
    object      k_conv;
}
// * * * * * * * * * * * * * * * * * * * * * * * * * * * * * * * * * * * * * //

dimensions      [0 2 -3 0 0 0 0];

internalField   nonuniform List<scalar> 
15600
(
-7.80128315522815e-07
-1.60250019833689e-06
-5.47982891833002e-07
-1.04244555790791e-07
-1.06602841689815e-07
-7.52294874980087e-08
-1.50664344046304e-08
9.96155983642049e-09
3.61484012937642e-09
-1.64078644914711e-09
-1.0229810771059e-08
-1.11491886621743e-08
-8.18381063183074e-09
-4.82085393702526e-09
-2.71612545010162e-09
-1.4142777041498e-09
-5.14528762708748e-10
2.7638694760009e-11
8.12311796283661e-13
-2.07681960498409e-11
-4.58502509181979e-11
-7.79191349735231e-11
-1.20635197156084e-10
-1.75756148551502e-10
-2.4349608801531e-10
-3.23742283185194e-10
-4.29249057088258e-10
-5.66887921631813e-10
-7.39553560712241e-10
-9.50474456896017e-10
-1.19988875313746e-09
-1.48690505285186e-09
-1.81709391497192e-09
-2.22512163437615e-09
-2.7194163534968e-09
-3.24022859089146e-09
-3.76636907699435e-09
-4.26629186396563e-09
-4.70938049941138e-09
-5.08210131071595e-09
-5.43474357878996e-09
-5.95724758386348e-09
-7.01927207803788e-09
-1.00636313329953e-08
-1.86249472644947e-08
-2.18635937210418e-08
-2.24891740400821e-08
-2.27295434120923e-08
-2.28236449137896e-08
-2.27221529902099e-08
-2.25234149391821e-08
-2.22060867401244e-08
-2.17936854936134e-08
-2.12820102105198e-08
-2.06862489685298e-08
-2.00277245533541e-08
-1.93372708778196e-08
-1.86489067113858e-08
-1.75982708226236e-08
-2.88373670561922e-08
-5.96744703640666e-08
-8.91108874740951e-08
-1.16407875573174e-07
-1.40738129787694e-07
-1.61223386755565e-07
-1.7697934216668e-07
-1.87225321530004e-07
-1.9132231708096e-07
-1.89267432878544e-07
-1.8156113389833e-07
-1.7096202846853e-07
-1.64771255392587e-07
-1.80529190179472e-07
-2.23234051547642e-07
-5.4663615709173e-07
-1.20334294977044e-06
-7.22856689437462e-07
-4.07068507343178e-07
-3.29931148233624e-07
-3.39553054344791e-07
-4.11976581109991e-07
-5.26875891557275e-07
-6.82776843161725e-07
-8.73421734382202e-07
-1.10108310569854e-06
-1.35442982423704e-06
-1.61757238079696e-06
-1.94265170401743e-06
-2.35733278889514e-06
-2.83372032374682e-06
-3.34242673017565e-06
-3.84804024682826e-06
-4.32457845913185e-06
-4.71101318484675e-06
-4.96474680564979e-06
-4.93824452391898e-06
-4.82002981677259e-06
-4.66536728315652e-06
-4.51134727167212e-06
-4.392918341388e-06
-4.33684286312221e-06
-4.39930310432843e-06
-4.67594112269547e-06
-5.52649841307626e-06
-6.84128891220959e-06
-7.81290430832644e-06
-8.84704566134128e-06
-9.93291560864189e-06
-1.12060120704166e-05
-1.22410964916759e-05
-1.24978075074697e-05
-9.40050674144526e-06
-6.92113704270339e-07
-6.92931204501196e-07
-6.16856657342213e-07
-4.67603563181094e-07
-2.99455045998023e-07
-1.93672697891135e-07
-6.69791683059126e-08
-1.94721799185673e-07
-1.33086290596841e-05
-3.00823529780763e-05
-1.23757813641837e-05
-7.19208432287332e-06
-7.36512333036112e-06
-5.51179289922131e-06
-2.05155447099905e-06
1.06979311630354e-06
3.54586018238023e-07
1.03499391150212e-07
-1.08815796825649e-07
-1.65636989193263e-07
-1.24337456481418e-07
-7.18506008282083e-08
-3.8596367221191e-08
-1.7850787887474e-08
-2.6536439396146e-09
2.92801977784036e-09
6.26800213952789e-10
-1.28456347234465e-09
-3.4971404310335e-09
-6.29784756641339e-09
-9.9476318425736e-09
-1.45751164402568e-08
-2.02230030883802e-08
-2.71020922181068e-08
-3.60193172357216e-08
-4.75037017324725e-08
-6.18865986718025e-08
-7.95025651910925e-08
-1.00484067193353e-07
-1.24910508125696e-07
-1.53398382509451e-07
-1.87868228569736e-07
-2.28517419174394e-07
-2.72047386208426e-07
-3.16646470518992e-07
-3.59796142669815e-07
-3.99010643166506e-07
-4.33275198906525e-07
-4.66186954362694e-07
-5.12503496520729e-07
-6.12240768652295e-07
-8.60176577322521e-07
-1.39038129947072e-06
-1.60938251088587e-06
-1.67966385531932e-06
-1.72068970302778e-06
-1.74783427306392e-06
-1.75960558614536e-06
-1.76290396326875e-06
-1.75648231470017e-06
-1.74234804263519e-06
-1.72046734181478e-06
-1.69223546812914e-06
-1.6596223304829e-06
-1.62529799352918e-06
-1.59227981648895e-06
-1.68774932920607e-06
-2.33018641350674e-06
-2.92373335354612e-06
-3.47482400458102e-06
-3.97042270082363e-06
-4.39702951231927e-06
-4.74182095578618e-06
-4.99410232891545e-06
-5.14784053838338e-06
-5.20424099416576e-06
-5.17996862285776e-06
-5.1127152304407e-06
-5.09222815618221e-06
-5.28774194708887e-06
-6.08825559120037e-06
-8.11148187726057e-06
-1.40345956063827e-05
-2.20171083340425e-05
-1.50722902912939e-05
-1.038190139969e-05
-9.74974006105074e-06
-1.07155009357558e-05
-1.28532986281314e-05
-1.58350973721485e-05
-1.96068702372077e-05
-2.40764406741561e-05
-2.92476136676611e-05
-3.49728020844153e-05
-4.11384478630547e-05
-4.85006589994023e-05
-5.73920642099167e-05
-6.73050150831226e-05
-7.76790896472582e-05
-8.78877943425052e-05
-9.73988978547149e-05
-0.000105191344438078
-0.000110267340613099
-0.00010994056979502
-0.000107865005877537
-0.000105087810779687
-0.000102275188519863
-0.000100078598268524
-9.90738275258758e-05
-0.000100305623695413
-0.000105792838645828
-0.000121731021764954
-0.000146397465994579
-0.00016729952566958
-0.000188847822925937
-0.000211573235052994
-0.000237193049140083
-0.000259895735004056
-0.000268629357722553
-0.00022368126742439
-7.90573455238526e-05
-4.93657750385769e-05
-4.20830429729845e-05
-3.24045197778759e-05
-2.1186774232028e-05
-1.33978318990431e-05
-5.02789179265595e-06
-1.01642989656715e-06
-5.22774810419741e-05
-0.000142912910181844
-7.77791667949813e-05
-5.95718470502961e-05
-5.4355828532851e-05
-4.1329059546855e-05
-1.65877050799703e-05
9.6465956470513e-06
5.29461555205624e-06
1.33411385981752e-06
1.60587358952156e-07
-4.56631101471023e-07
-3.66836286617743e-07
-1.8960493338117e-07
-8.10366302305838e-08
-1.23991389292459e-08
4.57657345952641e-08
4.2175618352282e-08
1.74940055912043e-08
-3.78882418866438e-09
-2.81175890704086e-08
-5.83761500982649e-08
-9.6787802255801e-08
-1.4447684524734e-07
-2.02560679665312e-07
-2.74450824837078e-07
-3.66314478315791e-07
-4.82860168687734e-07
-6.28409037599476e-07
-8.07154271973917e-07
-1.0214916774946e-06
-1.27333561434784e-06
-1.56775935895918e-06
-1.91639007159978e-06
-2.32028372282525e-06
-2.7584699553713e-06
-3.21475483982566e-06
-3.66318270674402e-06
-4.07807580454197e-06
-4.44482633744047e-06
-4.7892156659118e-06
-5.24953545091208e-06
-6.17245524933862e-06
-8.20629653843203e-06
-1.23008341582801e-05
-1.40095235229612e-05
-1.50079926892458e-05
-1.57002822124512e-05
-1.62542737644188e-05
-1.66436254154149e-05
-1.69477850483271e-05
-1.71518006118161e-05
-1.72819806071006e-05
-1.73390771599097e-05
-1.73391855939278e-05
-1.7303513609593e-05
-1.72597705728523e-05
-1.72167212727851e-05
-2.07209705916822e-05
-2.35116740299304e-05
-2.60526473320189e-05
-2.82993894190487e-05
-3.02094883882405e-05
-3.17469764244804e-05
-3.28893833420964e-05
-3.36372502148481e-05
-3.4028267206136e-05
-3.41559955723885e-05
-3.42063421004796e-05
-3.45035980735911e-05
-3.5622506045594e-05
-3.85161916834576e-05
-4.49596836752714e-05
-5.73872460100066e-05
-7.9394809754254e-05
-9.93311862402352e-05
-7.88677004385419e-05
-6.56397300653661e-05
-6.77147159470304e-05
-7.64933284331691e-05
-9.01563794349624e-05
-0.000107519383162574
-0.000128282133483057
-0.000152164412668231
-0.000179175826337271
-0.000209117055336937
-0.000242114623489484
-0.000280376432491099
-0.000324539391775477
-0.00037258504249215
-0.000422248239242485
-0.000471096599145348
-0.000516993947518319
-0.000556805068350988
-0.000582991597537615
-0.00058652237887981
-0.00058266783876085
-0.000575568454508484
-0.000567870749440867
-0.000562357569625102
-0.000561856223526015
-0.000571156987020051
-0.000600131118031338
-0.000674549187777482
-0.000788570988833173
-0.000895596844135538
-0.00100311865917466
-0.00111420395738035
-0.00123259625309051
-0.00134110598429674
-0.0013904334919577
-0.0012491510692495
-0.00071327379297326
-0.000445042675266028
-0.000337719937047472
-0.000248976392277428
-0.000156619883820251
-9.55584397104799e-05
-3.1616855901757e-05
-7.98288912836149e-06
-6.41157506309087e-05
-0.000304410624717194
-0.00023390816909456
-0.000216746937718645
-0.000165631849944059
-0.000127159354153026
-6.04367315487756e-05
2.88696029373565e-05
3.41495333082064e-05
8.32222166207487e-06
3.9489632438565e-06
4.70550116205348e-07
1.51434311639518e-07
2.61116525131627e-07
2.97794586916059e-07
3.26893331742666e-07
4.0504510301594e-07
2.59428751862666e-07
1.40158481073745e-07
3.58188215619127e-08
-8.15042915291494e-08
-2.25188093366866e-07
-4.04522778812466e-07
-6.2439040342832e-07
-8.92466041727214e-07
-1.22477805230153e-06
-1.64413537363775e-06
-2.16930638868647e-06
-2.82149903783549e-06
-3.62062838357913e-06
-4.57796881293995e-06
-5.70041025577966e-06
-6.99816314876377e-06
-8.50396136068236e-06
-1.02244108609638e-05
-1.20861911449242e-05
-1.40251541042059e-05
-1.59226426339132e-05
-1.76614702440502e-05
-1.91538438229042e-05
-2.0457908755363e-05
-2.20314166942082e-05
-2.49447702718923e-05
-3.15202506673335e-05
-4.55444351519313e-05
-5.01824216167943e-05
-5.46661919371322e-05
-5.78089852481406e-05
-6.05179367173297e-05
-6.25459976793325e-05
-6.42984207943584e-05
-6.56811539935025e-05
-6.68289621390648e-05
-6.7738206182417e-05
-6.84731412817435e-05
-6.91145577531705e-05
-6.97822066961054e-05
-7.80540229981944e-05
-8.29393493076887e-05
-8.71479585725886e-05
-9.06109824334661e-05
-9.32987192162712e-05
-9.52004158161574e-05
-9.63384243359405e-05
-9.67856590578326e-05
-9.6689163697995e-05
-9.63011507772185e-05
-9.6021817721073e-05
-9.6457826496685e-05
-9.85035191137199e-05
-0.000103433204240522
-0.00011296077957578
-0.000129003267955806
-0.0001521178081736
-0.000178301348485936
-0.000195562934527549
-0.000184718089710539
-0.000179684926255803
-0.000196187389877331
-0.000223089354040823
-0.000257323976371835
-0.000297470172001339
-0.000343042697609643
-0.000393913527341894
-0.000450367421146545
-0.000513043205783097
-0.000582643206572646
-0.000660587308329855
-0.000746734604873631
-0.000838355181084359
-0.000932319491583547
-0.00102545761861286
-0.00111606778659401
-0.00120416483403662
-0.00126025631200526
-0.00128521727637272
-0.00130011636176115
-0.00131045846315392
-0.00131984819930104
-0.00133257221793744
-0.00135377482800332
-0.00139211243602049
-0.00146669149920208
-0.00162023516293772
-0.00184704533228045
-0.00208253742161475
-0.00231777682228122
-0.00255673455752024
-0.00279611000102793
-0.00302635331099451
-0.00315314727572485
-0.00303649738606574
-0.00229581874392703
-0.00158486257466138
-0.00109983515540153
-0.000734122988456508
-0.000400445677893079
-0.000223928679470101
-2.54801380805496e-05
1.49202766506914e-05
5.44113451596824e-05
-0.000359726901330235
-0.000425094963198574
-0.000440464597489984
-0.000239803636520323
-0.000153747128418269
-9.8719586870532e-05
2.44146798299615e-05
0.000140205477174002
3.48797910168043e-05
1.5656359318424e-05
6.99114455108046e-06
4.27231041372099e-06
3.19532752174014e-06
2.37443055521893e-06
1.88345555705189e-06
1.70844302997886e-06
1.02576606286276e-06
6.37051569365114e-07
3.00321357532549e-07
-7.04862277358916e-08
-5.18248284635382e-07
-1.07142165092677e-06
-1.74459370292868e-06
-2.56319235103784e-06
-3.56753481709573e-06
-4.81458845989567e-06
-6.34939622313368e-06
-8.22580107031984e-06
-1.04886357417414e-05
-1.31496509436212e-05
-1.61963901371236e-05
-1.96073925760603e-05
-2.34340526027892e-05
-2.7674096101905e-05
-3.21218890873417e-05
-3.66276597049806e-05
-4.08876335253507e-05
-4.46310736577641e-05
-4.764296992537e-05
-5.00089115931297e-05
-5.25763996570275e-05
-5.74984752854053e-05
-7.00368370087744e-05
-9.55332331726753e-05
-9.9947920415102e-05
-0.000111062551340319
-0.000118128798611544
-0.000124574438602855
-0.000129325906929453
-0.000133564819636134
-0.000136993804380364
-0.000139976949113808
-0.000142488704019534
-0.000144654361891504
-0.000146635883553686
-0.000158437541239766
-0.000162927316196705
-0.000165922220797091
-0.000167901802042482
-0.000168858400652359
-0.000168825120030194
-0.000167873003337534
-0.000166132488201268
-0.000163816633512526
-0.000161251179939921
-0.000158908991211644
-0.000157451468106224
-0.000157761037145196
-0.000160965726925966
-0.000168348150995057
-0.000181072238166921
-0.000199023207615514
-0.00021893344805969
-0.000234901201917903
-0.000252770133834916
-0.00027285276036263
-0.000289758851359799
-0.000324746082988306
-0.00036846557147159
-0.000418170921899682
-0.000473085431053671
-0.000532906401030676
-0.00059788672951913
-0.00066865558457396
-0.000746559462502845
-0.000831767911724368
-0.00092356568707249
-0.00102123902723421
-0.00112281803207439
-0.00122596008694875
-0.00132867859214409
-0.00144556699783262
-0.00154241857679367
-0.00161225196508263
-0.00165632642279727
-0.001693868945577
-0.00172902196233839
-0.00176474260949591
-0.00180483480240151
-0.00185444653878094
-0.00192203209937943
-0.00202789883927078
-0.00221032858888919
-0.00246886142413701
-0.00276742094546521
-0.00307646470071849
-0.00339944687264093
-0.00371892329784565
-0.00406205208631084
-0.00430931161601631
-0.00444247008248767
-0.00398918975850401
-0.00313587752394946
-0.00218496915706059
-0.00135844402968097
-0.000534617202675553
-0.000163748416136733
0.000207356981899036
0.000199301238771445
8.4371162550562e-05
-0.000355524529596507
-0.000578998652964976
-0.000622880126674527
-0.000155736720183364
0.000116841868517545
8.4342817643373e-05
0.000106620827844831
0.000280686084795784
0.000114518948473413
4.3241281789375e-05
2.85675739860541e-05
1.79935089582681e-05
1.26257115983177e-05
8.80526051344226e-06
6.46021061069744e-06
4.66856842413909e-06
3.1107249942459e-06
2.11275371508213e-06
1.27286860234523e-06
3.74202087642016e-07
-6.92895754923567e-07
-1.99871785472585e-06
-3.57265755606576e-06
-5.4625427237668e-06
-7.72663438197131e-06
-1.04623652688368e-05
-1.37245867271392e-05
-1.75771810745017e-05
-2.2050275758506e-05
-2.70879693736222e-05
-3.25807503520571e-05
-3.84182913814126e-05
-4.46787103327322e-05
-5.13302037652483e-05
-5.80510324248836e-05
-6.473911063899e-05
-7.09913429472988e-05
-7.65458627239303e-05
-8.12285277312056e-05
-8.53385998790931e-05
-9.02693916924185e-05
-9.93062944869917e-05
-0.000118597161425343
-0.000147544290290909
-0.000150053310996848
-0.000170374901318221
-0.000181410273572219
-0.000191515090610576
-0.00019841144107175
-0.000204354231663608
-0.000208886099777335
-0.00021264609115722
-0.00021562653270714
-0.000217988885033288
-0.000228733406081454
-0.000231997268701522
-0.000232548747187909
-0.000232228283548646
-0.000230896090370202
-0.000228581482216364
-0.00022535775811582
-0.000221346062070916
-0.000216737504405315
-0.000211815184924571
-0.000206980419508471
-0.000202777580501781
-0.000199913581277617
-0.000199247594402051
-0.000201732627159125
-0.000208186531612348
-0.000218837315563629
-0.000232236630858639
-0.000244397959814083
-0.000255606245201196
-0.000286880499447689
-0.000330182365534203
-0.000364778307947569
-0.000413201290374872
-0.000467301410720291
-0.000525379658015505
-0.000587082016641771
-0.000652390276167727
-0.000721751754042414
-0.000795932101931307
-0.000876277988428891
-0.000961916883989055
-0.00105101328884989
-0.00114292980267633
-0.00123649340667023
-0.00133029276570684
-0.00142754255286316
-0.00155460738824083
-0.00163319067082542
-0.00169952767974916
-0.00174717137908649
-0.00179102728952614
-0.0018335358520913
-0.00187683234664148
-0.00192379915209364
-0.00197861490006345
-0.00204791122571139
-0.00214890922956252
-0.00231017523469332
-0.00253538561188471
-0.00282040929593237
-0.00313404970720894
-0.00348172694296007
-0.00383868353875646
-0.00426471000333443
-0.00463346240599509
-0.00504558689186496
-0.00500412179204793
-0.00447555127948872
-0.00345186000659995
-0.00238193661971282
-0.000981306943674765
-0.00023274804106637
0.000428246838096526
0.000455971337852203
6.67924912806561e-05
-0.000407327173109657
-0.000715736608125562
-0.000846337903499127
-0.000155882213337372
0.000531759111467491
0.00057900982867794
0.000443695976358085
0.000469346527894828
0.000314220308293041
0.000108210787305712
8.0448869896306e-05
5.08278322606356e-05
3.50484039877556e-05
2.39494258050252e-05
1.70743358590294e-05
1.1282284634917e-05
7.85574413198264e-06
5.68938635397681e-06
3.94200445503392e-06
2.14654492850913e-06
6.48488144217827e-08
-2.44731117607669e-06
-5.42429478050683e-06
-8.90777900131745e-06
-1.29275432087591e-05
-1.75951726296133e-05
-2.29057873745333e-05
-2.88714101732402e-05
-3.54583163479373e-05
-4.25203700636173e-05
-4.98984455255983e-05
-5.751998721867e-05
-6.55962556149139e-05
-7.4103671025673e-05
-8.28005493581478e-05
-9.17880793777135e-05
-0.000100655294433495
-0.000109284307155053
-0.000117691629242564
-0.000126555918300235
-0.0001377541236994
-0.00015462213121502
-0.000180438657694633
-0.000205731757944976
-0.000209049472961135
-0.000235171490920026
-0.000247227607690178
-0.000257993157073279
-0.000264487153696483
-0.000269713127768231
-0.000273197319436008
-0.000275729182448616
-0.000277360658104342
-0.000282243219719129
-0.000287100824244696
-0.000285390779321729
-0.000283170354006167
-0.000280105829246737
-0.000276144211128369
-0.000271329359398282
-0.000265749055472449
-0.000259541825458119
-0.000252916103217968
-0.000246168135516787
-0.000239700718528442
-0.00023403577677988
-0.000229811743290989
-0.000227742476791826
-0.000228509605136171
-0.000232501218255065
-0.000239397367537719
-0.000247646709684153
-0.000254623753145452
-0.000267302455303689
-0.000313588875441809
-0.000369614172856586
-0.000416070831081468
-0.000473371748200225
-0.000533859520067208
-0.000596797622793465
-0.000661938949696072
-0.000729492334111522
-0.000799946506539071
-0.000874055760487588
-0.000952879313258189
-0.00103475916221969
-0.00111752407997032
-0.00120075402291396
-0.00128381107299492
-0.00136596307172999
-0.00147499813263452
-0.00157507284240629
-0.0016438771759811
-0.00170250413883533
-0.00174720247390345
-0.00178934248526556
-0.00182984950885017
-0.0018700632357101
-0.00191198406279192
-0.00195871618882594
-0.00201518691828348
-0.00209514697777495
-0.00222085839271109
-0.0023990199469194
-0.0026421523861527
-0.00292802688946957
-0.00326489592358661
-0.00362953087129016
-0.00409776037320918
-0.00455250288258126
-0.00515815753966667
-0.0054453836595856
-0.00536925838196533
-0.00462161796163653
-0.00367530518223162
-0.00203877648339432
-0.000964090944539548
6.96218346872531e-05
0.000385096069028933
-0.000172788439835649
-0.000586933413303001
-0.000906870972117523
-0.00113922732129531
-0.000402408326370574
0.000728382213945837
0.00109738289971172
0.00102995472627872
0.00077113391039692
0.0006698661031159
0.000236633798808496
0.000140089266814876
0.000112217203478421
7.7523236071255e-05
5.28795122239836e-05
3.62240217479158e-05
2.37151148749158e-05
1.71121578347274e-05
1.29810062629157e-05
9.80333958301629e-06
6.70531457235319e-06
3.22936323178245e-06
-8.83127339706533e-07
-5.64479133282777e-06
-1.10339836497563e-05
-1.70061754355945e-05
-2.36681611497852e-05
-3.09082045135516e-05
-3.87015700813015e-05
-4.70191722137529e-05
-5.57508453532304e-05
-6.48532371021528e-05
-7.44122526205398e-05
-8.47026714188906e-05
-9.56241086717264e-05
-0.00010708081789892
-0.000119305366341659
-0.000131906289175588
-0.000144960546820086
-0.000158729510227105
-0.0001741942021699
-0.00019320572820412
-0.000217895640447194
-0.000247514569150431
-0.000266748455836382
-0.000272405138233425
-0.000298723421483788
-0.000309165467193453
-0.000318050851764176
-0.000322483689493052
-0.000325599777507419
-0.00032700566818629
-0.000327469484115954
-0.000326308927527997
-0.000333693633680347
-0.000330099160778083
-0.000326403334812804
-0.000322122741107912
-0.000317084138238641
-0.000311266856245462
-0.000304717838482689
-0.000297525470423282
-0.000289827435484332
-0.000281825995822305
-0.000273801410548081
-0.000266123542061139
-0.000259254561289179
-0.000253731767018309
-0.000250112599007651
-0.000248855890496707
-0.000250098293957365
-0.000253388840779769
-0.00025773371759626
-0.000262366129538004
-0.000278899677858539
-0.000336974128008985
-0.000399829282803921
-0.000454394570130217
-0.000517777404235474
-0.000582572335359121
-0.00064872853908088
-0.000715964370355503
-0.000784637160894489
-0.00085520838831178
-0.000928348680823518
-0.00100478527587616
-0.0010824080015675
-0.00115905385706428
-0.00123448858254838
-0.0013084372817132
-0.00138069616844024
-0.00150756188187721
-0.001576015697957
-0.00163602208244758
-0.00168755393371278
-0.00172822075949552
-0.0017669070094526
-0.00180327590023713
-0.00183796802628605
-0.00187224810288628
-0.00190830630470921
-0.00194979016361466
-0.00200757208648331
-0.00210068042992424
-0.00223857079768886
-0.00243974797097657
-0.00269264941117333
-0.00300777570890214
-0.0033684776157736
-0.0038551786860016
-0.00437027371363713
-0.00509945853424448
-0.00562882995479074
-0.00598930746176552
-0.00551884043696579
-0.00478600548148505
-0.00322656901468505
-0.00205709084023769
-0.000808537968075695
-0.000136701481840183
-0.000653945492609242
-0.00091402880746331
-0.00118514721810083
-0.00145341778199887
-0.000781092782973601
0.000610090511321044
0.00141669666858399
0.00159617418947072
0.00137927980103004
0.000974888651331565
0.000460300974751715
0.000238349368426966
0.000186340072765441
0.000142498264811964
9.63515670482092e-05
6.20277915435402e-05
4.38496979226802e-05
3.25074487594055e-05
2.54106224466282e-05
2.01680605369073e-05
1.5345081126731e-05
1.01446133004839e-05
4.13712077714782e-06
-2.6606359274043e-06
-1.013475683492e-05
-1.81861542591482e-05
-2.69252383092035e-05
-3.61377331527406e-05
-4.58209821383437e-05
-5.60178422510515e-05
-6.67239644900694e-05
-7.80352266211146e-05
-9.01277820267004e-05
-0.000103178009581733
-0.000116982053788016
-0.0001316332050223
-0.000147447352582882
-0.000164135979956009
-0.00018197523935885
-0.00020140285228801
-0.000223433505051134
-0.000249373343913152
-0.00027971238895789
-0.000310647612064668
-0.000324372978797211
-0.000332000267799175
-0.000355225714927097
-0.000363157398687091
-0.000369275635568845
-0.000371316180420138
-0.000372116613862524
-0.000371417536364066
-0.000370007072400614
-0.000371755196577239
-0.000370145312430504
-0.00036521939597805
-0.000360019566323542
-0.000354254425535521
-0.000347820608936738
-0.000340709522701718
-0.00033296443311304
-0.000324666271513094
-0.000315941326710925
-0.000306972874639415
-0.000298010672119715
-0.00028937711758047
-0.000281463723069543
-0.000274707433279271
-0.000269535532820198
-0.000266262072512444
-0.000264934705070593
-0.000265239894010065
-0.000266966508813608
-0.000271028670650107
-0.000291724043436779
-0.000358036304870845
-0.000424729655977679
-0.000485000896867217
-0.000552719629922629
-0.000620630143525535
-0.000689110361572311
-0.000757796336843254
-0.00082712494397594
-0.000897501033581884
-0.000969478123760675
-0.00104348148784132
-0.00111719215245535
-0.00118859630310727
-0.001257595620907
-0.00132416849931474
-0.00140922618159236
-0.00151701404842582
-0.001572742191201
-0.00162568627956329
-0.00167157162066654
-0.00170863234417687
-0.00174403746549414
-0.00177641561575139
-0.00180582120589059
-0.00183292840734665
-0.00185921593310112
-0.00188741808613555
-0.00192620151114477
-0.00199317870972716
-0.00210039551763508
-0.00226714664829488
-0.00249135536441271
-0.00278504377529101
-0.00314022345356048
-0.00363636199134683
-0.00419972364847205
-0.00501483491285568
-0.00573027098216193
-0.00655923802843635
-0.00617661589765604
-0.00561867301825261
-0.00423779445861674
-0.00308838675764026
-0.00182298945261316
-0.000931804792454723
-0.00127436382915358
-0.001357311110008
-0.00150340362884785
-0.00176932872943505
-0.00116157209416088
0.00025161590579694
0.00155365007642558
0.00191554485966286
0.0021222047444877
0.00127416803974512
0.000804525418204958
0.000375466006291017
0.000263781247958854
0.000198255397636025
0.000141351186013993
9.96606073714892e-05
7.1841938016069e-05
5.42343217295717e-05
4.3067522747146e-05
3.50297197995427e-05
2.80298954888447e-05
2.08052021601221e-05
1.26839008590218e-05
3.66992293931822e-06
-6.0544562169468e-06
-1.63888869037766e-05
-2.74236886244786e-05
-3.88445314105211e-05
-5.06852159715612e-05
-6.30612469086221e-05
-7.60718977502328e-05
-8.99115622791292e-05
-0.000104777514852709
-0.000120702211655935
-0.000137445867698115
-0.00015530882380577
-0.000174665541261745
-0.000195365922956364
-0.00021781578227757
-0.000242489779026556
-0.000270183087199148
-0.000301417577137153
-0.000335242580285342
-0.000366151356925794
-0.000375639544342625
-0.00038431678425509
-0.000403524098156977
-0.000409037547880787
-0.000412451947652508
-0.000412347912294411
-0.000411101601680869
-0.000408585295874873
-0.000405091005556645
-0.000407259761690132
-0.00040118466640735
-0.000395199091976272
-0.000388889607932128
-0.000382063505510438
-0.000374650001079001
-0.000366642956528555
-0.000358077416107376
-0.000349021655858316
-0.000339584087628486
-0.000329921849908428
-0.00032024721893762
-0.000310830238481369
-0.000301992451903578
-0.000294083242633833
-0.000287434127666078
-0.000282284848340288
-0.00027870951428858
-0.000276671576151592
-0.000276746047688658
-0.000281164646876268
-0.000305532926211456
-0.00037724202558442
-0.000446162333006209
-0.000510490817266564
-0.000581365430192721
-0.000651616673050866
-0.000721849114099887
-0.000791604543732809
-0.000861343693805533
-0.000931401154249585
-0.00100219916675046
-0.0010739072114398
-0.00114415775105337
-0.00121114315146989
-0.00127485864712561
-0.00133542966499276
-0.00144376842128175
-0.00151852248706004
-0.00156891341575133
-0.00161634527743332
-0.0016578812492069
-0.00169200639890944
-0.0017246872245552
-0.00175370195015169
-0.00177861875115269
-0.00179963343425867
-0.00181768970023286
-0.00183487026369248
-0.00185819966073989
-0.00190490164254405
-0.00198931899524499
-0.00212930002055556
-0.00233067505918004
-0.00260645877113591
-0.00295782810250762
-0.00346130928369087
-0.00406773530004829
-0.00495086084475402
-0.00581656493690573
-0.00673049365418887
-0.00664173158643366
-0.00622800231289086
-0.00503830122528244
-0.00393239317243852
-0.00273754929447364
-0.00178406414164491
-0.00192395079252101
-0.00185944066046895
-0.00187809205303104
-0.0020927439344305
-0.00149119547599385
-0.000243473696869786
0.00158891255385487
0.00194548101542881
0.00294286036905011
0.00173082711964296
0.0010622841992457
0.000556220519756457
0.000368192807090404
0.000277316750981499
0.000201880773690138
0.000144907727082551
0.000105949128761595
8.08349243372372e-05
6.45571302363204e-05
5.29955178467625e-05
4.33948401857361e-05
3.39321635859343e-05
2.36220942886331e-05
1.23680756551376e-05
3.59668383929032e-07
-1.23462140489299e-05
-2.57730640406942e-05
-3.95181364548069e-05
-5.36449108357789e-05
-6.83255220744499e-05
-8.37467859887077e-05
-0.00010016525351395
-0.000117772516036783
-0.000136481812836465
-0.000156075109350286
-0.000177032740214155
-0.00019976593913961
-0.000224245653439172
-0.000250917917295118
-0.000280169627762317
-0.000312436227241906
-0.000347460584137976
-0.000383268067260882
-0.000413657854641346
-0.000420111245379904
-0.000429105012817535
-0.000444555453296365
-0.000448026635120638
-0.000449122915404586
-0.000447244172179331
-0.000444316449811517
-0.000440368308705591
-0.000434557368173728
-0.000435106306708913
-0.000428346787909665
-0.000421558924485838
-0.00041445011782634
-0.000406881416765837
-0.000398797056499797
-0.000390187810358298
-0.000381077323981177
-0.000371517734616648
-0.000361595580487946
-0.000351438048114202
-0.000341217171630611
-0.000331150685716266
-0.000321495931247678
-0.000312530911514383
-0.000304523704922807
-0.000297694156414879
-0.000292215196292413
-0.000288381784360909
-0.000287462706023977
-0.000292644251659093
-0.000319965317398317
-0.000394954792040459
-0.000465133025659819
-0.000532319966547285
-0.000605487326224856
-0.000677515479796161
-0.000749082670791148
-0.00081963597881604
-0.000889616058177411
-0.00095927994791213
-0.00102891444108515
-0.00109847800659934
-0.00116565833634937
-0.00122887483011237
-0.00128818014869235
-0.00134939383207498
-0.00147319390505255
-0.00151913213740624
-0.00156510841169973
-0.0016082332618163
-0.00164641829703151
-0.00167820441523577
-0.00170869406945971
-0.0017349621447967
-0.0017561731425126
-0.00177212477105744
-0.00178336832135321
-0.00179151405170027
-0.00180238491186164
-0.00183340554737477
-0.00190080831138467
-0.00202014489976011
-0.00220385481126082
-0.00246557703074406
-0.00281542503439006
-0.00332688565699466
-0.00397417638638422
-0.00491747655141263
-0.00590897818793916
-0.00688806195664172
-0.00699365019307888
-0.00667978832518009
-0.00566035976844073
-0.0046028465073021
-0.00349065462479587
-0.00256472618211768
-0.00253202328695834
-0.00242312965272376
-0.00227757531016358
-0.00242065727201305
-0.00177003064665062
-0.000778410999370627
0.00153218359992131
0.00177065257474657
0.00349822130181299
0.00241489646617646
0.00117604823476947
0.000794063599388509
0.000489002604424873
0.000364289755376601
0.000268492617110668
0.000195240897736334
0.000144082444815471
0.000110515242097979
8.82499310423974e-05
7.25231405274152e-05
5.99765800100656e-05
4.81809415074135e-05
3.57751761298721e-05
2.24513099946548e-05
8.32385521284216e-06
-6.63184310527319e-06
-2.234492637558e-05
-3.83509247274584e-05
-5.47303645451562e-05
-7.169105833431e-05
-8.9484575968458e-05
-0.000108401810632416
-0.000128624033404351
-0.000149984489071909
-0.000172309981104633
-0.000196214871173459
-0.000222127720199519
-0.000250098689942616
-0.000280540146331542
-0.00031367282191514
-0.000349536707872033