/*--------------------------------*- C++ -*----------------------------------*\
  =========                 |
  \\      /  F ield         | OpenFOAM: The Open Source CFD Toolbox
   \\    /   O peration     | Website:  https://openfoam.org
    \\  /    A nd           | Version:  7
     \\/     M anipulation  |
\*---------------------------------------------------------------------------*/
FoamFile
{
    version     2.0;
    format      ascii;
    class       volScalarField;
    location    "20000";
    object      nut;
}
// * * * * * * * * * * * * * * * * * * * * * * * * * * * * * * * * * * * * * //

dimensions      [0 2 -1 0 0 0 0];

internalField   nonuniform List<scalar> 
15600
(
3.64875585970924e-10
3.84255459455514e-10
3.68382505222031e-10
3.1002419260053e-10
2.37265170478542e-10
1.58339595781278e-10
9.10792087184612e-11
4.59750900513499e-11
2.36825720212337e-11
1.6743751434766e-11
1.47014774322344e-11
1.29450574352986e-11
1.08337697710817e-11
9.04649603652663e-12
7.86856167045537e-12
7.2351957047317e-12
7.0231462447513e-12
7.12006899958839e-12
7.4188621921727e-12
7.84737192981474e-12
8.40340344973927e-12
9.13082901276767e-12
1.00991065877367e-11
1.14058824709967e-11
1.31614229581767e-11
1.54783456438788e-11
1.85021105621862e-11
2.24568700777027e-11
2.7603773970217e-11
3.42243901320217e-11
4.26262164926504e-11
5.31277629818337e-11
6.60548138371357e-11
8.17783432442966e-11
1.00766534381266e-10
1.23376495637409e-10
1.49598719440488e-10
1.79244233543248e-10
2.11890987646123e-10
2.46877195827009e-10
2.83421068707368e-10
3.20968582065347e-10
3.59962519177864e-10
4.02824651310695e-10
4.58678002798647e-10
5.47471394671651e-10
6.39928404529603e-10
7.2726537181837e-10
8.10145018304702e-10
8.8942321047854e-10
9.65397694266547e-10
1.03845610519258e-09
1.10875648290106e-09
1.17642513854114e-09
1.24149973285335e-09
1.30400808560468e-09
1.36399735648861e-09
1.42156900910639e-09
1.47689300228528e-09
1.52903191119055e-09
1.57706173068487e-09
1.62055466146785e-09
1.65934596101853e-09
1.69337055018316e-09
1.72271733638834e-09
1.74769449558866e-09
1.76891261588324e-09
1.78737418744934e-09
1.80460915287852e-09
1.82276269217728e-09
1.84480346256556e-09
1.87445623060646e-09
1.91651710738817e-09
1.97288103834834e-09
2.04466673135592e-09
2.08191086751826e-09
1.98428379116079e-09
1.95590311115677e-09
1.98567038893534e-09
2.03709833224921e-09
2.09862939929682e-09
2.16059213493687e-09
2.21798101484513e-09
2.26653282010165e-09
2.30395769276781e-09
2.32838599592997e-09
2.34166570697876e-09
2.35371298186773e-09
2.3661521880275e-09
2.37281206583481e-09
2.36974584612731e-09
2.35419138776257e-09
2.32374144911884e-09
2.27465804800844e-09
2.20497415498041e-09
2.10722359857085e-09
1.99161510899822e-09
1.86797766422323e-09
1.7428288562481e-09
1.62069329106154e-09
1.50466927543263e-09
1.39775135390184e-09
1.30340559613049e-09
1.23179666305873e-09
1.18509080842333e-09
1.14949735493092e-09
1.12539512471448e-09
1.11255322964284e-09
1.11349577721593e-09
1.12405074820392e-09
1.13930327079853e-09
1.12747973871224e-09
1.03847255993409e-09
8.91875167472796e-10
7.41174268872165e-10
6.02499896337215e-10
4.92216407406245e-10
4.03637470449663e-10
3.63969052492959e-10
3.57649477303151e-10
6.96866936254514e-08
7.33174005002554e-08
7.03507527025158e-08
5.9097662485144e-08
4.52275612531e-08
3.02545052253277e-08
1.75109105735894e-08
8.91195466449599e-09
4.60588759040062e-09
3.23946032274546e-09
2.83682463041443e-09
2.5017049192945e-09
2.09779518362007e-09
1.7523510676765e-09
1.52252416746436e-09
1.39760218226554e-09
1.35424483855971e-09
1.37087721699155e-09
1.42687725379493e-09
1.50816792282043e-09
1.6138634528292e-09
1.75210719143693e-09
1.93601690021032e-09
2.18416973641199e-09
2.51769357618106e-09
2.95830670291405e-09
3.53347702880191e-09
4.28570332890891e-09
5.2649777059583e-09
6.52534119828301e-09
8.12593208032978e-09
1.01281633747507e-08
1.2594744743579e-08
1.5595617987005e-08
1.92197644784087e-08
2.35386360978255e-08
2.85525128111385e-08
3.42261578679601e-08
4.04793908539546e-08
4.7185166489839e-08
5.41910794787765e-08
6.13850255419256e-08
6.8846957518512e-08
7.69936409495443e-08
8.74194025546953e-08
1.0430023788492e-07
1.21967909975815e-07
1.38659049757093e-07
1.54495109465151e-07
1.69643574689447e-07
1.84161177623064e-07
1.98123685361761e-07
2.11562066966907e-07
2.24501423357273e-07
2.36949501030298e-07
2.48912052918094e-07
2.60398281996027e-07
2.71427563793053e-07
2.82033022410388e-07
2.92007359005109e-07
3.01157523390471e-07
3.09447240876412e-07
3.16845555104832e-07
3.23340497157393e-07
3.28949441753305e-07
3.33731542915541e-07
3.37803514889514e-07
3.41356742512226e-07
3.44682615274257e-07
3.4818967520914e-07
3.52441487608589e-07
3.58140667500687e-07
3.66185969644971e-07
3.76952433443788e-07
3.90365948604216e-07
3.96848379461834e-07
3.7893254541433e-07
3.73969147592378e-07
3.79879707018769e-07
3.89849703438387e-07
4.01700972603684e-07
4.13608002298897e-07
4.24620704738452e-07
4.33935796928882e-07
4.4111861798468e-07
4.45834471875195e-07
4.48479397683527e-07
4.50894822724582e-07
4.53323135621933e-07
4.54586857854995e-07
4.53950170036563e-07
4.50895560285915e-07
4.44955151235706e-07
4.35425851034337e-07
4.21924178233178e-07
4.03131087604337e-07
3.81002568612959e-07
3.57377198263392e-07
3.33476601334315e-07
3.10153944876038e-07
2.87999882855378e-07
2.67587678597849e-07
2.49601864740509e-07
2.35927541153677e-07
2.26896595428035e-07
2.19956507961054e-07
2.15171333556151e-07
2.12495712537427e-07
2.123693478228e-07
2.13988347293805e-07
2.16377584074389e-07
2.13655450517081e-07
1.96757593610856e-07
1.68093698532479e-07
1.39568603081952e-07
1.13669412364171e-07
9.31574551696581e-08
7.6600290107056e-08
6.93881327986696e-08
6.83370010171029e-08
1.50277836059986e-06
1.57745431441816e-06
1.51837249399493e-06
1.26949850797125e-06
9.69435296691432e-07
6.5117196998408e-07
3.81966476741899e-07
1.98415908565651e-07
1.03453988082287e-07
7.25642339120107e-08
6.33887722814615e-08
5.59894271774876e-08
4.70574736791524e-08
3.93407566970559e-08
3.41589389784741e-08
3.13156072874423e-08
3.02993753103618e-08
3.06241264668455e-08
3.18341987438688e-08
3.36161447577798e-08
3.5938008847986e-08
3.89732710638649e-08
4.30067694346175e-08
4.84458764992747e-08
5.57585512983347e-08
6.54325383335148e-08
7.80635383740522e-08
9.45735526139799e-08
1.16061418142657e-07
1.43717352262812e-07
1.78844896810408e-07
2.22796280667033e-07
2.7693400127071e-07
3.42705677200308e-07
4.21991730656973e-07
5.16442045413145e-07
6.26098431129499e-07
7.50179751964392e-07
8.86908027184094e-07
1.0334188694375e-06
1.18615372849398e-06
1.34217313166879e-06
1.50204480369235e-06
1.67180944612147e-06
1.88345195993869e-06
2.24506899359974e-06
2.62815519643211e-06
2.98987681769598e-06
3.33297390219549e-06
3.66121019905209e-06
3.97585757192118e-06
4.27867725954143e-06
4.57039986896075e-06
4.85163496156424e-06
5.12258416716492e-06
5.38338947164834e-06
5.63424361666528e-06
5.87553281926256e-06
6.1070428631474e-06
6.32140259311048e-06
6.51856780745658e-06
6.69766651157974e-06
6.85805269646698e-06
6.99948047534742e-06
7.12232337336617e-06
7.22783840732814e-06
7.31849953331871e-06
7.39836233219288e-06
7.47358413935446e-06
7.55279059774685e-06
7.64778857003915e-06
7.77311540052012e-06
7.94699525126267e-06
8.1761241922478e-06
8.44659758621223e-06
8.55636239426095e-06
8.20383477646631e-06
8.12289200152343e-06
8.2593986293369e-06
8.47737616036921e-06
8.73281696634655e-06
8.98809757135177e-06
9.22353710554228e-06
9.42261810985455e-06
9.57632892493215e-06
9.67833050907487e-06
9.7379735572126e-06
9.79221633644793e-06
9.84439549900826e-06
9.87000492506098e-06
9.85404869048569e-06
9.78581483441083e-06
9.65496118555207e-06
9.44680232148409e-06
9.15335077221004e-06
8.75055285397744e-06
8.27675309270268e-06
7.76977417158131e-06
7.25527646646317e-06
6.75148145366192e-06
6.27128595990092e-06
5.82713020633122e-06
5.43390016130266e-06
5.1295393196057e-06
4.92041534122677e-06
4.7558175150306e-06
4.63562924605054e-06
4.55824067144995e-06
4.53144057850248e-06
4.53790687605187e-06
4.55794576473043e-06
4.47761019192916e-06
4.1264072184972e-06
3.485248739461e-06
2.87412551668994e-06
2.34478217885191e-06
1.93752182429802e-06
1.60924879220852e-06
1.47924608212505e-06
1.47255391474704e-06
1.09983304106311e-05
1.15350057468407e-05
1.12077238045332e-05
9.36858899836743e-06
7.15304291592261e-06
4.85712361847224e-06
2.93613264936553e-06
1.59965503547492e-06
8.55708902629577e-07
6.00980527675461e-07
5.24602081334076e-07
4.64128579490583e-07
3.91081943750114e-07
3.27283868181979e-07
2.84006624839072e-07
2.60013898489401e-07
2.51170581454985e-07
2.53349341392217e-07
2.6290186232358e-07
2.77232038153969e-07
2.95945409168722e-07
3.20378863825245e-07
3.52782715943886e-07
3.96422229897084e-07
4.55089894173305e-07
5.32776483376653e-07
6.34106819349051e-07
7.66267267638524e-07
9.37932297043834e-07
1.15844835870071e-06
1.43797638049131e-06
1.78687680834964e-06
2.21513647314518e-06
2.73253472872842e-06
3.35262003420313e-06
4.08849175952793e-06
4.93968425737441e-06
5.89887014425257e-06
6.95065323407806e-06
8.07030022399573e-06
9.22585548399574e-06
1.03860093564281e-05
1.15374768976086e-05
1.2711000297493e-05
1.41850062667442e-05
1.68984058704124e-05
1.97650525277087e-05
2.24579189449981e-05
2.50019152274729e-05
2.74276059725876e-05
2.97452498113662e-05
3.19704906610842e-05
3.41097237454592e-05
3.61688841081508e-05
3.81502449433353e-05
4.00554226387213e-05
4.18859040444851e-05
4.3644197083422e-05
4.52802147100735e-05
4.68018293461813e-05
4.82039561545403e-05
4.94813947146636e-05
5.06304154249892e-05
5.16498635155199e-05
5.25426090564779e-05
5.33172971001961e-05
5.39905676466149e-05
5.45894974535507e-05
5.51550172422091e-05
5.57443096352146e-05
5.64351164033199e-05
5.7321750395786e-05
5.85195521415895e-05
6.00566488075533e-05
6.175859091988e-05
6.22632935539078e-05
5.99990764880589e-05
5.9650965406648e-05
6.06413418430746e-05
6.21340093074001e-05
6.38579810788971e-05
6.55699610264803e-05
6.71459748090584e-05
6.84817106593077e-05
6.95211303698918e-05
7.02274688866382e-05
7.06680468068322e-05
7.10705730344101e-05
7.14416417791018e-05
7.1622717479679e-05
7.15192205493642e-05
7.10612002771487e-05
7.01748871067522e-05
6.87591002128005e-05
6.67729100378618e-05
6.40696278202978e-05
6.08646524211529e-05
5.73969818851362e-05
5.38344835274588e-05
5.0301465122086e-05
4.6890524578326e-05
4.36930212666656e-05
4.08161761398609e-05
3.85185739249147e-05
3.68580131882621e-05
3.54991035707906e-05
3.44313021285595e-05
3.36362332411142e-05
3.31634376306121e-05
3.28841680661873e-05
3.26865904400906e-05
3.18448376658984e-05
2.93543677528651e-05
2.44834900095132e-05
1.98626943760118e-05
1.60800618444649e-05
1.33603597429094e-05
1.12406658391323e-05
1.05408272974765e-05
1.06944148805064e-05
4.12394825803612e-05
4.33173060749584e-05
4.28753405896056e-05
3.6374412810422e-05
2.80022205131079e-05
1.93150247354303e-05
1.21940330753901e-05
7.20839349807109e-06
4.11976004464666e-06
2.92907881779416e-06
2.56731048150045e-06
2.27540665832552e-06
1.92252269441939e-06
1.61057420661549e-06
1.3965011586634e-06
1.27634473055316e-06
1.23044480357011e-06
1.23756777042342e-06
1.2811296135617e-06
1.34810294200432e-06
1.43573187577581e-06
1.54985898303866e-06
1.70069350455526e-06
1.90337493850601e-06
2.17563245380237e-06
2.53603607369584e-06
3.00452374249396e-06
3.61253643795266e-06
4.39828347214337e-06
5.40202067419442e-06
6.66629662649527e-06
8.23213273812361e-06
1.01349524857034e-05
1.24049355254418e-05
1.50921086387605e-05
1.82479442942747e-05
2.1856518216104e-05
2.58713428765001e-05
3.02098019859504e-05
3.47477633672746e-05
3.93275201882455e-05
4.37869151864254e-05
4.80421360071161e-05
5.23108786376661e-05
5.79962917867889e-05
6.88922649915596e-05
7.99300851501431e-05
9.01690383687386e-05
9.96900196516869e-05
0.000108656952953134
0.000117116357664448
0.000125153153032973
0.000132800859483452
0.000140095645240069
0.000147054547112449
0.000153690953965847
0.000160013913698945
0.000165900168976946
0.000171383636569968
0.000176467783257703
0.00018114185388567
0.000185395451385389
0.000189222111461633
0.000192622526570359
0.000195608924963032
0.000198210349900068
0.00020047945617957
0.000202500066545757
0.000204397810366109
0.000206347636514074
0.000208586891681819
0.000211400704499334
0.000215129088607579
0.000219800197538546
0.000224631917283623
0.000225324489067976
0.00021825822311589
0.00021756577831269
0.000220632685153884
0.000225142313812081
0.000230326912880868
0.000235461145072463
0.00024019361539006
0.000244225263933819
0.000247400677304564
0.000249623626650155
0.000251111997962892
0.000252497045705282
0.000253749889702476
0.000254406256968289
0.000254194556316867
0.00025290405370034
0.000250287248497938
0.000246012926740385
0.000240064814382056
0.00023192777976096
0.000222153505920574
0.000211412905285745
0.000200186019012153
0.000188844586307032
0.000177681384458233
0.000167004818318474
0.000157174758850638
0.000149076076167791
0.000143019945803505
0.000137896698344805
0.000133656201876454
0.000130215645041803
0.000127785899894112
0.000125877439572109
0.000124272136695487
0.000120475289022314
0.00011161731657831
9.30433902239999e-05
7.43973718419806e-05
5.91042822996791e-05
4.86786852147837e-05
4.09092232012342e-05
3.85893937910914e-05
3.96506275861585e-05
9.97580380000418e-05
0.00010472536939246
0.000105794427165435
9.23249139015079e-05
7.24457492000556e-05
5.06531966371391e-05
3.30831104751608e-05
2.14112953932361e-05
1.38536416152354e-05
1.02256288147798e-05
9.09685989750159e-06
8.10871460871409e-06
6.87748184187863e-06
5.77041167492943e-06
4.99909549956693e-06
4.55898201260363e-06
4.38305135201604e-06
4.39056695090703e-06
4.5296548520971e-06
4.75101152761279e-06
5.04113552077835e-06
5.41741163057887e-06
5.91219397146719e-06
6.57505043441853e-06
7.4640082142543e-06
8.63802809985203e-06
1.01536620317531e-05
1.21037428874459e-05
1.46003702757257e-05
1.77554504818187e-05
2.16795394401012e-05
2.64658897158397e-05
3.21763457107658e-05
3.88504844399332e-05
4.66026541568511e-05
5.55466128768908e-05
6.5570800248288e-05
7.64875931236969e-05
8.80130487346625e-05
9.97676943524234e-05
0.000111311614778864
0.000122247135497499
0.000132520018816027
0.000143184624375279
0.000158298749137962
0.000186373818411236
0.00021285918724689
0.000237158557282701
0.000259218230549847
0.000279690181829577
0.000298691397450574
0.000316514991571253
0.000333265870265024
0.000349071179737249
0.000363994820265671
0.000378089075788517
0.000391201575107825
0.000403387874043309
0.000414698847080349
0.000425136730938975
0.000434694111989036
0.000443362763586347
0.000451140504680535
0.00045803731056971
0.000464083870650459
0.000469341872744121
0.000473917404725349
0.00047797610373217
0.000481764356056761
0.000485624507545982
0.000490018845492309
0.000495493212448187
0.000502653803377582
0.000511385264046819
0.000519665502440263
0.000519158360527909
0.000505265506693976
0.000504294545448578
0.00051000295087685
0.000518426627301296
0.000528160690639755
0.000537838300331787
0.000546818649489104
0.000554550080192579
0.000560752018522905
0.000565266480146519
0.000568537795991995
0.00057166190336713
0.000574496063174367
0.000576175531021269
0.000576194646401011
0.000574136863182779
0.000569396653611381
0.000561529003937627
0.000550502960269646
0.00053523703224424
0.000516672456041618
0.000496026505463215
0.000474166441794183
0.000451779481258851
0.00042942275310039
0.000407720820222803
0.000387396905629593
0.000370338851708712
0.000357472361028929
0.000346439597136927
0.000337084143103019
0.000329156902408236
0.000323268968377704
0.000318190628413598
0.000313930183365005
0.000304571817180661
0.000285237603763664
0.000241487359327655
0.000193663368741804
0.000151644860600839
0.000122824462491927
0.000101232478287962
9.37652440033742e-05
9.55919173657256e-05
0.000186958120776718
0.000195163439684766
0.000199842369469272
0.000179691624301855
0.000144760102889572
0.000102368345661007
6.72903227945306e-05
4.63397041352503e-05
3.44349440805029e-05
2.76602575704e-05
2.55117774513737e-05
2.31403567038665e-05
1.97863182556717e-05
1.66671596790158e-05
1.44407405746325e-05
1.31396081948321e-05
1.25835497223662e-05
1.25419758591796e-05
1.28794131997593e-05
1.34449322301977e-05
1.41877200417689e-05
1.51456488186418e-05
1.63976309462075e-05
1.80703430352774e-05
2.03097602078745e-05
2.3254625533378e-05
2.70176102993186e-05
3.18020454356652e-05
3.78470520241455e-05
4.53689734888857e-05
5.45562207303651e-05
6.55275152792555e-05
7.83118508232545e-05
9.29043749619045e-05
0.000109504974833668
0.000128267574364451
0.000148817021860159
0.00017067830676074
0.00019321071666114
0.00021566272538104
0.000237274330048013
0.000257539110744895
0.000276873760134988
0.000298046961262258
0.000328711731468374
0.000381421717522106
0.000427848490419944
0.000470374677372104
0.00050813979480285
0.000542867336521518
0.000574702786348161
0.000604308999598608
0.000631889623750676
0.000657721406443602
0.000681942048372179
0.000704500594318955
0.000725400306370794
0.000744797516614784
0.000762739763808357
0.000779241537586894
0.000794305922956872
0.000807932882937026
0.00082012979457572
0.000830920960466076
0.000840361064329498
0.000848551311103404
0.000855660482253331
0.000861948964101168
0.000867801204945628
0.000873748152336558
0.000880495433400763
0.000888845608637651
0.000899577775808056
0.000912184543516207
0.000922913126724555
0.000919597407180136
0.000898699481638392
0.000897588182326687
0.000905966541059726
0.000918493328053696
0.000933092181676973
0.000947732195817592
0.000961461643034607
0.000973460728652031
0.000983313998494045
0.000990817804077761
0.000996677733393823
0.00100238574711076
0.00100760938706232
0.00101106427763621
0.00101198528761659
0.00100967453754236
0.00100298257255169
0.000991773363232324
0.000975726126631894
0.000953174813758804
0.000925446298796531
0.000894343441271588
0.000861141230916354
0.000826859916396963
0.000792337184957392
0.000758551294092963
0.000726617333910051
0.000699576044650323
0.000679287131124554
0.000661942874411914
0.000647153692404839
0.000634334344715576
0.000624728915852434
0.000615942897032733
0.000608838193404023
0.000592479323928828
0.000561350412426592
0.000486169265461638
0.000397727716366028
0.000312282593271368
0.000251056538437479
0.000202519693885245
0.000181923121254806
0.000181016652567892
0.000305379862280865
0.000315042252772337
0.000323924231013224
0.000298237086631182
0.00024717125427374
0.000177927068906413
0.000115065079766064
8.04007656195227e-05
6.6032833464646e-05
5.9520748445638e-05
5.84239419061217e-05
5.50454053895383e-05
4.79187001437827e-05
4.07750490866913e-05
3.54521410640823e-05
3.22279100633023e-05
3.07268769205224e-05
3.0452714361373e-05
3.10914741416748e-05
3.22530008192984e-05
3.37851977587582e-05
3.57498850572777e-05
3.83048345766051e-05
4.17189250499626e-05
4.62911595387528e-05
5.22770763196244e-05
5.98403484510267e-05
6.93389398429553e-05
8.1171472902492e-05
9.56475268983653e-05
0.000112983427960838
0.000133231571918878
0.000156288632481014
0.000182055113536998
0.000210832519043007
0.000242726582874814
0.000276916702279572
0.000312546249224526
0.00034855431811347
0.000383855101399425
0.000417527231499348
0.00044928457930582
0.000480507532624932
0.000516118705382401
0.000567061704781971
0.000647334369602893
0.000714841443189652
0.000777010480126608
0.000831410360861822
0.000881276020563222
0.000926665242977507
0.000968695552603984
0.00100766202969273
0.00104401266356997
0.00107789258782725
0.00110922982724682
0.00113828810226233
0.001165215323388
0.00119007131585299
0.00121288801838396
0.00123368125718185
0.00125246159417175
0.00126924832650263
0.00128408279105042
0.00129704702660318
0.00130828612349536
0.00131803709178629
0.00132666165982873
0.00133468804191891
0.00134283641195724
0.00135203783439043
0.00136329222354421
0.0013773900618274
0.00139319747897553
0.00140506245297645
0.00139794153666001
0.00137099104846677
0.00136992170808722
0.00138096297474779
0.00139766490079769
0.00141728232680372
0.00143715806736319
0.00145601556679664
0.00147276845387061
0.00148686200193778
0.00149806612707536
0.00150734897454537
0.00151648758301485
0.00152490627890823
0.00153091388677878
0.00153346799127641
0.00153139017731667
0.00152321965185829
0.00150920224660276
0.00148857894067717
0.00145915238758092
0.00142260660054607
0.00138133782594848
0.00133703763346879
0.00129106663156707
0.00124455069955282
0.00119883265666286
0.00115542144083462
0.0011184924315677
0.00109100619430619
0.00106777722694255
0.00104804410593105
0.00103070895691125
0.00101777055784135
0.00100532252338384
0.000995660198450018
0.000971733461059844
0.000929232703448973
0.000822057129833297
0.000689864649379404
0.000550540187209915
0.000445745230414817
0.000356337268551382
0.000311595955742107
0.000301202789656995
0.00046041019858957
0.000467760161169299
0.000479359462538334
0.000448303614853318
0.000381096601316076
0.000282647880593884
0.000178976439991504
0.00012178244399466
0.00010410257054727
0.00010421980296095
0.00011032763606152
0.000110150796546782
9.93371878274318e-05
8.62276797378135e-05
7.57140981702871e-05
6.89889600365721e-05
6.55604933587612e-05
6.4636075793351e-05
6.55789704700602e-05
6.75357757396359e-05
7.01403626526261e-05
7.34689728722297e-05
7.77952492140701e-05
8.36152851550319e-05
9.1452117380736e-05
0.000101695779891979
0.000114527247274405
0.000130491756864831
0.000150141002247247
0.000173815560618099
0.000201662687520139
0.000233555659418691
0.000269182745367814
0.000308340079982328
0.000351423060616655
0.000398369696533691
0.00044782149242412
0.000498549809324353
0.000549132007316671
0.000598306345105289
0.000645232652422115
0.000690159083868411
0.000735683884769888
0.000788748074627203
0.000862533173132062
0.000969971502793653
0.00105832972294629
0.00114020025515795
0.00121131203676947
0.00127648351847291
0.00133561070660576
0.00139026281082251
0.00144081496197835
0.00148789608442278
0.0015314808769958
0.00157182337205652
0.00160922836207887
0.00164385482674397
0.00167578262061674
0.00170506271260722
0.00173172473749494
0.00175579155052816
0.00177729637360346
0.00179630011997825
0.00181291523184373
0.00182733412085466
0.00183986522895001
0.00185097326369352
0.00186132659522977
0.00187181943005574
0.00188356678201105
0.00189768036517519
0.00191480132035985
0.00193302530791398
0.00194491667149531
0.00193369192860651
0.00190207958689413
0.00190126951590205
0.00191505063312073
0.00193602963638198
0.00196081489230348
0.00198618181510988
0.00201051842454021
0.00203248074499781
0.00205137342996023
0.0020669549834917
0.00208043385716803
0.00209375822691867
0.00210607758883688
0.00211531878396172
0.00212014021507402
0.00211856643290613
0.00210948416259355
0.00209318407921455
0.00206847299264499
0.00203270694239859
0.00198788596634727
0.0019369834393614
0.00188210709935721
0.00182495923989985
0.00176695842514164
0.0017098078108692
0.00165540852616662
0.00160897762119553
0.00157459891325401
0.00154594211346944
0.00152176688626551
0.00150034291308619
0.00148442890667842
0.00146842286317721
0.00145636621003986
0.00142462185103695
0.00137136194157315
0.0012339661757981
0.00106020460568321
0.000864046572228545
0.000710513027363057
0.000570680320306589
0.000491310958488161
0.000463283790688776
0.000656979037398265
0.000657165582817017
0.000668545124001922
0.000630805246521602
0.000547121789476043
0.000421383308592989
0.000265125294455612
0.000171104514387547
0.000142286396521541
0.000154124744840836
0.000175289733763813
0.000187566120263316
0.000177747999245253
0.00015913990919165
0.000142146144119732
0.00013039412296405
0.000123950873143289
0.000121782463968348
0.000122867467483545
0.000125639455021404
0.000129381183515487
0.000134164701149305
0.000140421370952656
0.000148970727464402
0.000160625459303848
0.000175909405507494
0.000194983071841956
0.000218598394460306
0.000247414847154097
0.00028171455965243
0.000321475338690972
0.000366313134392327
0.000415688998880355
0.000469315845138055
0.00052764601585136
0.000590357819926893
0.000655574090581931
0.000721769476058821
0.000787280334313854
0.000850846680773485
0.000911913214923329
0.000971438004265011
0.00103322267616362
0.00110575093936293
0.00120327710932426
0.00133615655371891
0.00144494386006698
0.00154608471292685
0.00163379552291471
0.00171422694023159
0.0017871371857539
0.00185448417906482
0.00191672263546755
0.00197457849798838
0.00202798542787264
0.00207747813059303
0.002123358359928
0.00216580716856198
0.00220492856600595
0.00224079355769659
0.00227344711546771
0.00230292648582779
0.00232928122786856
0.00235259457695693
0.00237301214670816
0.00239077592490055
0.00240626631400326
0.00242004765169215
0.00243291682549962
0.00244591548085374
0.00246028889587894
0.00247717139606138
0.00249692976654748
0.00251684838481456
0.00252800054784363
0.00251290365178666
0.0024781174118331
0.00247782988590928
0.00249449054156211
0.00251986785143752
0.00254996106747262
0.00258104401758849
0.00261116477563815
0.00263873465270534
0.00266291871235146
0.00268347235098991
0.00270180637358612
0.00271993579785447
0.00273672050674449
0.00274973237024918
0.00275718457049898
0.00275635409107084
0.00274684832860982
0.00272870594090309
0.00270034873695454
0.00265878250293939
0.00260627670067215
0.00254634482215731
0.00248149872006577
0.00241377612643057
0.00234488724295276
0.00227687886905571
0.00221204055190365
0.00215650979945447
0.00211541171957218
0.00208157549534353
0.00205321852448086
0.00202794023165005
0.00200918192598432
0.00198964103710647
0.00197511605834285
0.00193546531046993
0.00187177836454277
0.0017062109554529
0.00149506319167896
0.00124387594994909
0.00104100082807049
0.000846958315753604
0.000725706661631252
0.000672502736515562
0.000897692122838713
0.000885725567122282
0.000893583089342809
0.000846430602964605
0.000745921901217099
0.000595109969106774
0.000382689520750296
0.000231730294192169
0.000188945819156071
0.000200032389816239
0.000243105952461418
0.000277898796306863
0.000278817130913861
0.000259206957592209
0.000236977048288556
0.000220051975283293
0.000210063814403456
0.000206228217833316
0.000207251877745641
0.000210712230122416
0.00021543776328861
0.00022148281535256
0.000229481132457928
0.000240666142390871
0.000256195159542523
0.000276725024088906
0.000302383479965082
0.000334133334445953
0.000372678720162722
0.00041816395270131
0.000470331187335376
0.000528514779753098
0.000591970708338205
0.00066034918682804
0.000734102082144204
0.000812604340877535
0.000893543179320394
0.000975183565879154
0.00105574664264017
0.00113411258636417
0.00121013211199206
0.00128550620443855
0.00136504856183678
0.00145820815900047
0.00157935853160625
0.00173570958225841
0.00186454833662316
0.00198435231838373
0.00208850483809902
0.00218405784999645
0.00227073132324345
0.00235077860509318
0.00242475364676602
0.00249334593253512
0.00255668137318851
0.00261540737434324
0.00266984229357724
0.00272019574361873
0.00276659859456434
0.00280914323365439
0.00284789212003236
0.00288289941390939
0.00291423369005149
0.00294200314794513
0.00296638864657968
0.00298768239401977
0.00300633437421451
0.00302300060540797
0.00303858861335551
0.00305425395007586
0.00307131518194943
0.00309085015052132
0.00311287294897733
0.00313390191958146
0.00314389424949243
0.00312550946976167
0.00308898908117213
0.0030895419607114
0.00310925025386527
0.0031391397077228
0.0031746490125088
0.00321161778019607
0.00324775780238868
0.00328125096267199
0.00331112568312322
0.00333713555924551
0.00336084624583769
0.00338424861691081
0.00340591032895562
0.00342306972298136
0.00343319579236849
0.00343338158043064
0.00342381700491063
0.00340417590759177
0.00337255201979427
0.00332569991466858
0.0032661109434141
0.00319778514223808
0.0031236143783307
0.00304595773503334
0.00296680874068128
0.00288853048472451
0.00281379268350423
0.00274952031096417
0.00270173167741155
0.00266274119823983
0.00263020259211981
0.00260109095305749
0.00257940984299883
0.00255630063715868
0.00253908217855737
0.00249159939942342
0.00241758987719353
0.0022262108526668
0.00198180848853292
0.00167974381363589
0.00142928349128781
0.00118145057913517
0.00101484345039027
0.000930674681915773
0.00118271909539302
0.00115408321161236
0.00115552647799848
0.00109509924474703
0.000978904470116147
0.000800178382888994
0.000542087495908154
0.000309461532760247
0.0002381991106923
0.000240770898758445
0.000305215264715507
0.000368496862630201
0.000392134707603477
0.000379874555780283
0.000356656455521546
0.00033646290367603
0.000323618880344088
0.0003183290156661
0.000319343557771226
0.000323449736639175
0.000329000123297509
0.000336033587252254
0.000345425875558362
0.000358892723727344
0.000377984346686555
0.000403510895004363
0.000435595010014773
0.000475403623943839
0.000523632221791942
0.00058023972165621
0.000644706812343867
0.000716098471371976
0.000793496477438698
0.000876490614842756
0.000965470261805701
0.00105950503181451
0.00115594787353265
0.00125292877134011
0.00134865894136864
0.00144224402697038
0.00153398325790555
0.00162625035115758
0.00172459749377719
0.00183890020537806
0.00198299201756681
0.0021609788162459
0.00230946974842467
0.00244725299302033
0.00256763319231857
0.00267809005401871
0.00277843364089763
0.00287111196433642
0.00295682414254159
0.0030360571988609
0.00310934173486254
0.00317731617595814
0.0032403270637161
0.00329861652236619
0.00335234446360194
0.00340162644506046
0.00344654496309549
0.00348717380776105
0.00352360321665476
0.00355596855680409
0.00358448700142153
0.00360949983052298
0.00363152146873849
0.00365128789164541
0.00366979518244596
0.00368827628920451
0.00370806907900254
0.00373013291111896
0.00375409617666382
0.00377581717563286
0.00378452839891944
0.00376365520192282
0.00372673430658093
0.00372849830750997
0.00375142611369673
0.00378591502128374
0.00382690001013048
0.00386985312897983
0.00391216238918586
0.00395179722345034
0.00398765389592192
0.00401947923722388
0.00404894157186673
0.00407793048354238
0.0041047265917652
0.00412621124310787
0.00413879922502801
0.00414028615848222
0.00413090793331487
0.00411001990871098
0.00407544876605818
0.00402379448980821
0.00395772449502247
0.00388165959784247
0.00379883642828925