/*--------------------------------*- C++ -*----------------------------------*\
  =========                 |
  \\      /  F ield         | OpenFOAM: The Open Source CFD Toolbox
   \\    /   O peration     | Website:  https://openfoam.org
    \\  /    A nd           | Version:  7
     \\/     M anipulation  |
\*---------------------------------------------------------------------------*/
FoamFile
{
    version     2.0;
    format      ascii;
    class       volScalarField;
    location    "20000";
    object      omega;
}
// * * * * * * * * * * * * * * * * * * * * * * * * * * * * * * * * * * * * * //

dimensions      [0 0 -1 0 0 0 0];

internalField   nonuniform List<scalar> 
15600
(
3736.42410747304
3736.42410747389
3734.66305510647
3730.7907196831
3724.84554079545
3726.16054268482
3744.41995762024
3779.28148319261
3792.35101958521
3766.1889814807
3698.82908778469
3594.10082956723
3460.73432017446
3306.25704306891
3137.07732191188
2959.03106424721
2777.94782001931
2608.24359949229
2456.87859015903
2321.40697491589
2199.61033468037
2089.63783627436
1989.9362100916
1899.19513363281
1816.30453556612
1739.65949909701
1665.15949694618
1591.95659370016
1520.55930639774
1451.41324031646
1384.92023979932
1321.45634879138
1261.39431289478
1205.15031024388
1154.02447218511
1109.05947070906
1069.89338989345
1036.15676991582
1007.55040331755
983.839759992557
964.846366207209
950.444101066261
940.553533767628
935.140450225264
934.017091123973
934.106026867028
934.106026867013
934.106026867025
934.106026867046
934.106026867011
934.106026866987
934.106026867017
934.106026867
934.106026866972
934.106026867018
934.106026866972
934.106026867
934.10602686707
934.106026866954
934.10602686707
934.10602686704
934.106026867009
934.106026867074
934.106026866996
934.106026866947
934.10602686699
934.106026866961
934.106026866961
934.106026867031
934.106026866957
934.106026867026
934.106026867
934.106026867087
934.106026866999
934.106026866982
934.01620224468
935.160901513764
940.602254652519
950.521204816412
964.952216481738
983.974998008978
1007.71607644541
1036.35415837534
1070.12427007724
1109.32591486757
1154.32919738402
1205.49368926347
1261.76471683116
1321.85071403199
1385.33594434083
1451.8480359377
1521.01083970062
1592.4223457266
1665.63680870158
1740.1447912459
1816.81806470465
1899.75579851324
1990.55059385143
2090.31367941114
2200.35678938428
2322.23491730758
2457.80085495778
2609.27588910883
2779.09781521857
2960.20071821435
3138.21391754241
3307.32610111361
3461.69650855093
3594.91399061474
3699.43511683631
3766.54338811415
3792.44578799709
3779.14441034118
3744.27221675589
3726.13574608299
3724.88393963647
3730.84066336994
3734.68218259773
3736.42410747304
3736.42410747389
632.0143441554
631.583728898509
631.715347095718
632.860585294403
632.525110018671
632.743426314181
634.648572928038
638.851125224868
639.810008317464
635.062497095225
623.712917545978
606.153219103246
583.81458124235
557.933411917599
529.557835579481
499.66363825719
469.198991370457
440.57556154299
415.001092300329
392.107138993238
371.525812977133
352.946104652461
336.108106838267
320.790044681938
306.803458637072
293.883653513449
281.349712637558
269.041183859531
257.033820553187
245.40082602098
234.208594802206
223.520369718859
213.400969120421
203.92716759791
195.313299438669
187.726210578172
181.113705945971
175.415274176364
170.582049416267
166.57658326571
163.374322099343
160.962786343232
159.331993181745
158.553834012679
158.718098958435
158.659682659653
158.542133759907
158.472120064131
158.421990822411
158.381736257092
158.348407301177
158.318880224943
158.291600914452
158.265373477667
158.239549595971
158.213689397634
158.187564949831
158.161085923658
158.134311059223
158.107429574044
158.080652720237
158.054285201505
158.02868796231
158.004279162883
157.98151720417
157.960880901824
157.942818610707
157.927714303579
157.915659478796
157.906412814835
157.898553663626
157.888679863934
157.868172202622
157.828488265973
157.702322419335
157.53837993373
157.967290549836
159.01434169575
160.726551205154
163.170123217013
166.367204872389
170.347805206173
175.143739464999
180.797536072146
187.359889402518
194.896275637267
203.460502228984
212.854833439238
222.865374243354
233.437017270459
244.514968643643
256.043713144964
267.961076628029
280.202530633705
292.696562728608
305.630609975197
319.664247771608
335.043725640944
351.949539050716
370.598625795717
391.250053133125
414.208518518941
439.833511387233
468.455127388586
498.900696362295
528.934629499091
557.546878543695
583.770302299176
606.523044662751
624.608439050828
636.636022678722
642.272007367524
642.184869366091
639.110731141686
637.021594653596
636.374207876692
636.160010588422
635.861072236676
633.918476798432
632.468363850749
212.359895678508
211.537684161111
211.89825481109
214.186950151541
215.212924477422
215.386565237442
214.454965015836
213.358166588978
211.665669763288
209.280727091868
205.308160386351
199.468742150259
192.148912628364
183.696810747756
174.421316810061
164.636652116499
154.650886158214
145.25285053171
136.835052369354
129.294200397323
122.517734384213
116.405657205603
110.875366544747
105.853160926642
101.272424810687
97.0406691606597
92.9434111384684
88.9251947194098
85.0049002466328
81.2040499698503
77.5428953397116
74.0424903205101
70.728030370026
67.6351326231039
64.8311939906296
62.3563388037178
60.1957774088099
58.3320603507324
56.7516701686831
55.4465433013495
54.4164394947406
53.6696581638871
53.2278775252293
53.1886200987092
53.5845336982824
53.483575808536
53.2949973177478
53.1666257813621
53.0651941633129
52.9791878919014
52.903839932216
52.8348730082394
52.770074595692
52.7078315179095
52.6472808037809
52.5878720726818
52.5293694866863
52.4717920878637
52.4155412836153
52.3606372362481
52.3074682354428
52.2564722568846
52.2081416288793
52.1630085281765
52.1216062207391
52.0844214165535
52.0518006355808
52.0238506423208
52.0001106739416
51.9793079143056
51.9581718006993
51.9305614162835
51.8815610668149
51.7901550498279
51.5982881003987
51.4222887078304
51.7647632900294
52.2103742484669
52.7864462274783
53.5701288671071
54.5765013617374
55.8251013009856
57.3289367860604
59.1052111887207
61.1716750317956
63.5527023409294
66.262592094193
69.2239927238881
72.3701271248784
75.695100048434
79.1892260670578
82.8421332937097
86.6400639701226
90.5723315840832
94.6274646548865
98.8911591172709
103.550577495457
108.675079863253
114.319409955076
120.550491190278
127.449502241382
135.108075140217
143.627085793137
153.055096744174
163.049424628271
173.044682805769
182.680176479156
191.64453226792
199.573803911355
206.139821505803
210.949645007684
214.190744677539
216.537895198837
219.101238184984
220.892023746479
221.47455602481
220.717147101596
219.478886660447
216.21465109
213.538583592005
104.301515236753
102.920920977943
102.76244409697
105.150164004351
107.0907128964
107.807291442674
105.906015448106
102.234504634425
98.6749981324869
96.3189715095567
94.0942378956577
91.2989545736289
87.9490817492574
84.1218797135238
79.9215557642147
75.4846129338072
70.9527397144233
66.6822696508871
62.8417972305116
59.3965494331773
56.3037779891562
53.5204092717385
51.0113768469682
48.7417540466348
46.6757798317132
44.7654232418515
42.9210967061793
41.116930039701
39.3563402689677
37.6465053217312
35.9953234548924
34.4134168717216
32.9169594561858
31.5301046284895
30.2782763366546
29.1669660796318
28.1919897133877
27.3486749352369
26.6347976094421
26.0526045751836
25.6108992955454
25.3271596469042
25.2345630141186
25.3941074651066
25.7181337318484
25.4772605194372
25.2096281515203
25.016840685267
24.8603203732128
24.7274387068419
24.6119486557556
24.5081772633788
24.4133079352453
24.3250924989689
24.2422967280045
24.1640533509631
24.0899706283761
24.0201586103292
23.9540508799566
23.8916626315006
23.8331562478875
23.7787584389269
23.7287499979552
23.6834393092036
23.6431145105002
23.6079824103011
23.5780564796417
23.5530166292107
23.5318502924202
23.5124836499128
23.4905955054252
23.4586507827703
23.4004655026295
23.2967909117968
23.1244412487195
23.0251404757952
23.332236513484
23.5884972355946
23.8543218599039
24.1943493851049
24.6189332778208
25.1436785433327
25.775867503097
26.5252189942231
27.4002544402767
28.41296262345
29.5663838051074
30.8196171955732
32.1464824042026
33.5513796633916
35.0343951267574
36.5950159043348
38.2309360170066
39.9431824955672
41.7341907523982
43.6577848689042
45.7799179328217
48.1260250332456
50.7193108793255
53.5879879464071
56.7664000413574
60.2893897013713
64.18977142862
68.4394970892804
72.892329734378
77.4162062316695
81.8419927133851
86.0343134971383
89.8090579390197
93.0633286463217
95.6382796545521
97.8543915014441
100.377999956493
104.578910069356
108.728061906177
111.642304350846
112.527925616681
112.309684507175
109.421214072399
106.212106841677
64.7484937135632
62.9660277861681
62.0959350108854
64.0550108295148
66.7038791084723
68.7703867450467
67.4400950864527
62.3565204821142
56.8578161969362
53.7156375927132
51.8774251080708
50.1708449532644
48.3207972403343
46.254849814919
43.9894354021293
41.5913891388077
39.1396279486761
36.8256789498579
34.7318813538142
32.8500750144841
31.1648361756803
29.6549413803868
28.3030700811216
27.0879920540095
25.9847563447647
24.9625217874455
23.9790419635255
23.0191236207384
22.0799061584032
21.163039701143
20.2721955580069
19.4151005274728
18.6051321341483
17.8597851148199
17.1862049828836
16.5790697745559
16.0407003982189
15.5726895059701
15.178728463037
14.8659818184575
14.6463308387017
14.5374514287091
14.5621143497429
14.7262096582833
14.8808345956224
14.5354971053736
14.258954334656
14.058276236391
13.9022642548333
13.7745333023094
13.6684146129309
13.5768609883252
13.4967434189049
13.4252274573039
13.3607750302718
13.3022170837084
13.2490114114095
13.2002326908811
13.1552775698703
13.1140447891327
13.0764398874363
13.0424746957116
13.0122262891637
12.9858147319538
12.9633590459462
12.9449198271358
12.9303954171149
12.9193784417223
12.9108351620639
12.9027297401895
12.8910680327566
12.869131158426
12.8242777584404
12.7449746581946
12.6315528434673
12.6015887706785
12.8389837485835
13.0012441584373
13.157871475671
13.3484163406939
13.5785409266126
13.8590042271017
14.1936796791602
14.5882054726129
15.046977092208
15.5761441675027
16.1750278246432
16.8203731152291
17.5005409695189
18.2198637734834
18.9793519391373
19.779638130983
20.6203125545102
21.5022858510462
22.4305879746642
23.4398588838544
24.5571283963103
25.7936760403264
27.1617862714703
28.6759896948857
30.3537228402685
32.2100276027825
34.256802296201
36.4512393049493
38.7048570799551
41.0106213683818
43.2831220217468
45.4585845806649
47.4213373779554
49.1479585501351
50.5359195908171
51.8970901804714
53.6650028238051
57.3988450759659
61.9571773195599
66.3246100738506
69.1002208266144
70.8695367242085
69.6168796822132
66.9128124940123
45.535911359388
43.7805779573254
42.4867191893735
43.8034330872379
46.6231274870643
50.1791612360429
50.8233005285973
45.8811827295485
38.7228584786398
34.2368809220016
32.1545724045609
30.8380337270128
29.6631871025208
28.4195620812033
27.0665418839384
25.6328920859837
24.1654823293388
22.776903579055
21.5094082554036
20.3683147792803
19.3510094692862
18.446271760275
17.6443416251431
16.929300813676
16.2809206083022
15.6773167199112
15.0978922993936
14.5313968127695
13.9721267292988
13.4197628643177
12.8770539208162
12.351511508601
11.8551788284678
11.4002889200093
10.9854459126516
10.6044211508141
10.2645437732771
9.97054667434925
9.72861226081436
9.54650732689624
9.4340644650745
9.40236572383746
9.45729570819937
9.57150856678195
9.60538949478822
9.27832895799576
9.07379388192293
8.92368148071823
8.81563912030148
8.73039811018921
8.66352444541639
8.60817592251905
8.56195589348236
8.52229600196299
8.48794690889766
8.45790279988131
8.43132583120692
8.407383941003
8.38584133253736
8.36657115595269
8.34947888104788
8.33456424081495
8.32188202022403
8.31152473826359
8.30358543598978
8.29810785485961
8.29499798298951
8.29389549024835
8.29391655117089
8.29333985682202
8.28894259363205
8.2755701389307
8.24484013630395
8.19159523512684
8.12554727351927
8.13048320503643
8.30046354873742
8.4107529689523
8.51962457728309
8.64838280608037
8.79991270465555
8.98111331171074
9.19403385415628
9.44204166128109
9.72757227471519
10.0538740295731
10.4192534154318
10.8097735920247
11.2195429951942
11.6513830050701
12.1058452089247
12.5832548520369
13.0828629126653
13.6042502827495
14.1523196042664
14.7490589394736
15.4071366036231
16.1318639141701
16.930075462428
17.8097372071577
18.7803411352413
19.8487703253248
21.0200859839461
22.2589122776693
23.503944995978
24.7744920078346
26.0259071398493
27.2285356604834
28.304533871012
29.2603117189853
30.0093164061113
30.803081357858
31.8205776475925
34.3579018139285
37.8830664326686
42.0212078391188
45.3939641896528
48.4904566497451
48.9453882382588
47.3567985029819
33.8663814099265
32.4776285882087
31.1547425038698
31.8952368066245
34.3204744668705
38.6247768197742
41.7342839565455
38.5064423481782
30.6525284457747
24.5926265288592
21.8088015917103
20.4959690510015
19.6122384181127
18.7815501205423
17.9090086681752
16.9933176691232
16.0582359145585
15.1706775318999
14.3517765974109
13.6143136151007
12.9617800249608
12.3877003601317
11.8854193380058
11.4410356906347
11.0370871253598
10.6575678952446
10.2927678241437
9.9329715817744
9.5719308568474
9.20956506437406
8.84944732302664
8.49970541875194
8.17105330287036
7.87152799608255
7.59666417017436
7.34278538802336
7.11922294566651
6.93079949047459
6.78316185857782
6.68190115293771
6.63278034380496
6.63981125782701
6.69778568769053
6.77087754337874
6.75552499028483
6.50791621500902
6.3822808131298
6.28573552112234
6.2225911528033
6.17391554009141
6.13825050350196
6.10994858079098
6.08763488998018
6.06937300191359
6.05436984182353
6.04179653622734
6.03094109674387
6.02143774303374
6.01319189964088
6.00612547989674
6.00020589458332
5.99546619556952
5.99197647853051
5.98982917004772
5.98910752456785
5.98984229283745
5.99193723056603
5.99505969968476
5.99844249870869
6.00064640893419
5.99913864705128
5.99014672694647
5.96845872977212
5.93274086248997
5.89504505348146
5.9135342995038
6.03621723759984
6.116645756869
6.19891880588545
6.29484118509687
6.40601886732113
6.53697309169989
6.68889015662409
6.86391444135267
7.06351433305527
7.28946829089713
7.53992568743269
7.80593062648676
8.08412845248483
8.37629346865094
8.68265630227851
9.00328835579036
9.33685168245968
9.6828436059705
10.0453801230261
10.4390467032247
10.8705678127003
11.3424721209422
11.8586730395059
12.4237286923263
13.0430615474894
13.7198900875927
14.4565645578545
15.2271771937826
15.9874331755486
16.7570312494662
17.5113011279732
18.2366741344024
18.8785069026012
19.4527677740976
19.8843638087529
20.36662996239
20.9332797239896
22.5204309465877
24.8590805772134
28.012806115062
30.9063017671233
34.1544852933674
35.5860605017058
35.0569167312847
25.8968468122951
24.96842291333
23.856051356441
24.2244249864248
26.0437943189031
30.1238530020072
35.180790699893
34.6060775141392
27.3333485428992
19.9675173924164
16.1731817261569
14.5818662842057
13.7521098278792
13.1059503634601
12.485914137999
11.8612738161866
11.234027859773
10.6394775040391
10.085841660909
9.58901229360092
9.15462395353685
8.77817391120852
8.45399106071076
8.16907381368533
7.90830541403664
7.66011721544531
7.42045986168984
7.18069757043796
6.93565827063108
6.68648744501147
6.4377849480285
6.19761731385761
5.97462780566486
5.77347733984259
5.58924256494805
5.42061329816873
5.2761980112486
5.15951250580967
5.07469876139517
5.02502054703109
5.01301717402266
5.03822472915146
5.09093218679649
5.13859066303489
5.11108245876791
4.9389127782429
4.86592388335173
4.80565015038254
4.77057590329831
4.74396146877124
4.72627367692765
4.71307047761824
4.70367196341217
4.69666999429796
4.69157533398923
4.68768443137142
4.68460873475098
4.68219426019425
4.68039899305195
4.67918882652777
4.67857163363471
4.67859845029572
4.67934312338923
4.68088872831041
4.68330028770465
4.68658671096205
4.69063799369202
4.69513434192541
4.69939595527649
4.70221347395042
4.70160065983147
4.69483727052055
4.67880761390095
4.65422168473239
4.63276844955655
4.65529240386575
4.74656644170522
4.80862905068705
4.8738287757654
4.94932740880433
5.03612703483473
5.13731398426055
5.25365068459091
5.38658175057648
5.5370502938592
5.70604190291544
5.89180894785874
6.08823454771629
6.29322327173872
6.50792224672807
6.73240688683866
6.96654470530046
7.20870331055094
7.45878219893529
7.72007162828485
8.00281432915809
8.31100593158505
8.64585427475869
9.00971964188708
9.40538417917412
9.83615282400018
10.3035799039817
10.8087868387992
11.3328910024658
11.8429086071436
12.3542346383689
12.852327500839
13.3311239661203
13.7505899384338
14.1282177573975
14.4001350703644
14.7154786184026
15.0463218347303
16.0563639945381
17.5625319082222
19.7952500312428
21.9446159325343
24.6828416088726
26.3623753681864
26.5068827976255
20.2148867527193
19.6759738297327
18.8393184325447
19.0184144200137
20.3157481731053
23.5713412873572
29.5216052400785
31.7553166909713
26.1515505987414
18.1310153542288
13.2294164743396
11.1557240122753
10.219871787756
9.61476883053896
9.10784269335828
8.63927124336159
8.19005018267633
7.77104660095902
7.38087662252332
7.03463496031626
6.73745874657391
6.48527576890783
6.27248565294613
6.08687543212909
5.91564769825751
5.75058725852583
5.59038527929963
5.42755551736073
5.25852021006548
5.08537182056006
4.91291368839082
4.74813206557257
4.59730270750049
4.46276568429097
4.34028884000655
4.23002704756739
4.13895171744855
4.06941186079529
4.02430909417759
4.00533262950752
4.01306356111927
4.04480164351959
4.09002215317069
4.12252862443936
4.09616910190236
3.97882017823318
3.93626369301096
3.89831794338186
3.87925216627542
3.86511669122193
3.85721069997067
3.8520748531704
3.8493991999941
3.84815201165072
3.84797995621768
3.84835872900754
3.84910928508761
3.85015517996943
3.85147975460279
3.85307599562531
3.85497107045057
3.85722033242337
3.85989212692907
3.86305486483698
3.86675303320267
3.87097367877454
3.87559350099623
3.88030448716327
3.88450141392118
3.88716654943795
3.88674151193775
3.88128157645405
3.86902412328627
3.8516915137726
3.83972158223782
3.86233015519884
3.93226053817252
3.9821442054591
4.03548664407424
4.09710611903982
4.1676830232786
4.24939636391848
4.3427780437329
4.44883947991689
4.56820972434913
4.70141873244316
4.84689419804679
5.00025970948566
5.16010812821011
5.32720087998844
5.50153926762905
5.6827562833457
5.86931374783442
6.06141953780397
6.26170426156909
6.47770585618777
6.71203513002493
6.96525693446385
7.23887677077184
7.53471036669899
7.85490567695643
8.20024565445613
8.57123816167052
8.95378281629792
9.32268521034058
9.68914335923708
10.0440542704845
10.3848451404715
10.6810835751401
10.9488068110215
11.134450063873
11.3545747697146
11.5607591745249
12.2346409272298
13.2274752530431
14.8018677663123
16.3365831955995
18.4406609651442
19.9790136155563
20.4334935264374
16.1047632280696
15.8375151256614
15.2447956061884
15.3464684006734
16.2806124294524
18.6110122263307
24.3714963574859
28.9699906572801
25.702432678279
17.8232202532325
11.923176756563
9.23655610357217
8.08994910515047
7.44057073062763
6.96203385595617
6.56505791108229
6.2127047526232
5.89663641335508
5.60749324605319
5.3565640767791
5.14690105738267
4.97406354813924
4.8322312589805
4.71013797636417
4.59710495044606
4.48718265709491
4.38005247859282
4.26936737964804
4.15287332428918
4.03294954010499
3.9139169633478
3.80133422537287
3.69955242355459
3.60966164211566
3.52849400685916
3.45698005201318
3.40053311011414
3.36075845292321
3.33968422695576
3.33802351480497
3.35524732919618
3.38773968988195
3.42575028329585
3.44919328605748
3.42776901434121
3.34763015475357
3.32241263553618
3.29843082513463
3.28859935046508
3.28173588627054
3.27931008247348
3.27864126919103
3.27959192985473
3.28139491830779
3.28375861008832
3.28634046967029
3.28905489600249
3.29185993157609
3.29475285845086
3.29774193252935
3.30086190446888
3.30416584505073
3.30771309409707
3.31155695291818
3.31572344589532
3.32018187649985
3.32480039274738
3.32928586448089
3.33310082990638
3.33538976156333
3.33493059397467
3.33034746179393
3.32074870382961
3.30829518834695
3.30198382260791
3.32308633815165
3.3779634759929
3.41922089009422
3.46388880235533
3.5155167110191
3.57459218303462
3.64268966435372
3.72019993898291
3.80784744336629
3.90605812092442
4.01508708537473
4.13354701436818
4.25819511918772
4.38802864330409
4.52355861953477
4.66473215654326
4.81096560094901
4.96103279847106
5.11527079557257
5.27581802043323
5.44841921606584
5.63491716575271
5.83555860474949
6.05135526647332
6.28356481660729
6.5336623142989
6.80206492074115
7.08894779663708
7.38347935488218
7.666021309544
7.94446286303927
8.2127876249674
8.46997981163636
8.69220594736271
8.89308925329246
9.02801137103098
9.18914154626517
9.32527953888864
9.79607741486265
10.4756066982025
11.6088636098438
12.7131842038616
14.2847367529906
15.5625796048707
16.1068744206806
13.1008449957485
13.0036953970142
12.5934715260788
12.6752869945679
13.3618310427208
14.9780544525935
19.7746531007181
25.9360390459149
25.2097333877756
18.2651898278433
11.6433403150603
8.26904884935759
6.83518496284766
6.09186565187577
5.59469764735144
5.21928745522047
4.91360987313572
4.65463280179019
4.42635188332387
4.23470358811951
4.08001957709137
3.95715703159848
3.8600454636104
3.77842778379257
3.70332466816991
3.63011690104966
3.55855465055332
3.48331665628539
3.40301775653385
3.3198982513773
3.23757464028598
3.16033931634971
3.09123385690891
3.03079845679461
2.97686009739646
2.93067522956128
2.89640534814977
2.87519080709886
2.86842628459492
2.87621401653303
2.89742136632775
2.9282260368159
2.96019612206637
2.97824018084391
2.9623075401046
2.90732582071937
2.89236933914586
2.8775364295366
2.87329278645731
2.87092558396237
2.87175631137255
2.87372146067108
2.87675303981304
2.88026951335081
2.88403207631567
2.88782826652862
2.89161365193412
2.89536485193451
2.89908745687231
2.90279806639657
2.90653328225775
2.91034136198785
2.91427215793285
2.91836550922636
2.92263240440569
2.92702923234691
2.93142063434328
2.93553145587412
2.93888662027038
2.94076851148689
2.94022061345111
2.93628465826822
2.92862759641778
2.91953266521508
2.91662528301893
2.93564133763638
2.97952079869802
3.0143343543847
3.05240771435793
3.09653510912234
3.14707804746032
3.20518996690622
3.27116481785928
3.34552642169831
3.42856107828505
3.52035254257111
3.61968669237971
3.72409429299001
3.8328231249392
3.94621262658369
4.06413902319836
4.18589565391899
4.31059568005028
4.43859621507481
4.57166730681592
4.7143015443217
4.86788213235165
5.03250039011874
5.20887008265483
5.397907529855
5.60067319103156
5.81741019155342
6.04810180672082
6.28421512710594
6.51020109458316
6.73146462942851
6.94381781302276
7.14683237079675
7.32137330338336
7.47849962409965
7.58113763892285
7.70284146090995
7.79671126137129
8.13785576332466
8.62038858973874
9.45692544075797
10.2707761141798
11.4468754437053
12.4694549780579
13.0008022739298
10.8750997071067
10.8779342864264
10.5928322144821
10.6817668155052
11.1821566045717
12.3702731447154
15.8698255581831
22.6666820505996
24.2226211347371
18.931507385794
12.018197950826
7.93634289430476
6.14460015572212
5.26960101315737
4.72656954335045
4.34412139268806
4.05495718176046
3.82447011521004
3.63101131913485
3.47483173496189
3.35351923913798
3.26113427175831
3.19139110661785
3.13495606847568
3.08408374958175
3.03484240895854
2.98668093529031
2.93514452052925
2.8793476829274
2.82122548949597
2.76371972669298
2.71014144446669
2.66268977711592
2.62170185512536
2.58577402889853
2.55622188575638
2.53624305344685
2.52666374437952
2.52840305243809
2.54118058113812
2.56356836253187
2.59190297865076
2.61914963756715
2.63405329233885
2.62317322853787
2.58551369159383
2.5770192157489
2.56849060672083
2.56784986158285
2.56845767480353
2.57136992847898
2.57501121000036
2.57933606813106
2.58389147245632
2.58849773681087
2.59302151684458
2.59743858721183
2.60173723444283
2.60592831738124
2.61003287875817
2.61408674218017
2.61813274445523
2.62221202768385
2.62635321177081
2.63055569894621
2.63476727499136
2.63885322506882
2.64255840541481
2.64546491209718
2.64697232802938
2.6463343522319
2.64289928401726
2.63668784368142
2.62993423929135
2.62904830769617
2.64583993732126
2.68143603136086
2.71123035541196
2.74413752875434
2.78245006905428
2.82644187141924
2.8769627449434
2.93423345503122
2.99863147566735
3.07034241540775
3.14934102232905
3.23456793312416
3.32410075992659
3.41734864020474
3.5145259381677
3.61541323550836
3.71930136527815
3.82556922757802
3.93454904620314
4.04772850596986
4.16868957314084
4.29852187695285
4.43724570483305
4.58538869492904
4.74364741631803
4.91281451786762
5.09305372790005
5.28423375502914
5.47949507509917
5.66637628622862
5.84842999797309
6.02258069096768
6.18848375074838
6.33043342218494
6.4570954403653
6.53767306452561
6.63132366278806
6.69787432872298
6.95176064590197
7.30530701867956
7.93715057489295
8.55279923026622
9.44552928752958
10.2555858421665
10.7358317129049
9.19748025323208
9.25630494617926
9.05342948951635
9.15984858229371
9.50772143343876
10.4874771409734
12.7429906169745
19.3459654120456
22.6306584062644
19.3864509315508
12.7966082945392
8.06261463421476
5.84226935357682
4.79494470675948
4.18445983553347
3.77653394497327
3.48499951846151
3.26483167118459
3.08913371573825
2.95265824148044
2.8504220339968
2.7756608308564
2.72188966934829
2.68052960928595
2.6446714131352
2.610685999207
2.57762690070388
2.54172986600936
2.50235799299795
2.46110711634344
2.42034556815201
2.38265096396533
2.34967652047855
2.32170110641767
2.29786409256133
2.27939987549444
2.26876980024774
2.26657117807276
2.27336406028774
2.28863701404833
2.31085816376155
2.33669608183674
2.3603997601494
2.37357970174395
2.36707955279628
2.34166292156235
2.33755187310738
2.33357794802785
2.33543437259394
2.33815302646195
2.34251032036737
2.34731394802913
2.352521528041
2.35777486713793
2.36294912054907
2.36795795723107
2.37278854643411
2.37743735526708
2.38191879016062
2.38625617411673
2.39048348069082
2.3946383723511
2.39875449516052
2.40285148240933
2.40692018775405
2.41090330760526
2.41466986484886
2.41798568267241
2.42048478803541
2.4216661110833
2.42094984931471
2.41790873949751
2.4127813213302
2.40766382311523
2.40792401553121
2.42254652853225
2.45173915710899
2.47749405854566
2.50625407793946
2.53994131660439
2.5787656885402
2.62335189347619
2.67386123150282
2.73056064892911
2.79356036769263
2.86276514028343
2.93725086267795
3.01549232063776
3.09700526439257
3.18190132035475
3.26986725721462
3.36027334792274
3.4526763377569
3.54737079890026
3.64562207838957
3.7503286741021
3.86238161928921
3.98177464288065
4.10891607156052
4.24435441464825
4.38870300072014
4.54209475300172
4.70433002544342
4.86981112212243
5.02845477435144
5.1824199542051
5.32931280707899
5.46860282855905
5.58712841521215
5.69145141468941
5.75596771051448
5.82862364285949
5.87638004074924
6.06881121568831
6.33441404023135
6.82081983815154
7.29744038934519
7.9871405085313
8.63006770304987
9.0502150632373
7.90929236581493
7.99745176892435
7.84817654579865
7.97274417513289
8.19564289298875
9.08362612534137
10.3751000290304
16.1863946152806
20.6168555617389
19.3574960509031
13.7663990298762
8.54688853002051
5.83573651900058
4.56652942728501
3.86478750794908
3.4159221750242
3.10836487170783
2.88596450951232
2.716305737229
2.58882245140823
2.49606415373012
2.43038200804343
2.38506194223786
2.35208743831144
2.32507982212683
2.30049185474195
2.27698801925114
2.25132109419737
2.22293840648536
2.19310925964399
2.16372920715722
2.13682600570886
2.11368640103272
2.09458171520742
2.07901584698377
2.06807949178179
2.06367014133015
2.06621077861351
2.07599412614456
2.09238160351594
2.11385502935422
2.13748031541606
2.1586107122109
2.17096817301354
2.16819538471713
2.15168670245358
2.15078972321796
2.15025364097273
2.15397815729104
2.15830175315243
2.16375444800045
2.16944159162877
2.1753172499313
2.18110043842535
2.18670815425157
2.19208401649856
2.19722269111576
2.20212684039589
2.20681342853852
2.21130689415283
2.2156390710145
2.21984304932891
2.22394627797953
2.22796141778903
2.23187331595635
2.23562233333418
2.23908340669819
2.24204343497309
2.24418318990918
2.24508552945846
2.24430234150758
2.24156960822356
2.23725279102459
2.23326873180611
2.2341073200777
2.24669544883673
2.27082540637105
2.29324503657872
2.3186072708123
2.34853714152387
2.38319555148535
2.42303655499895
2.46817071175469
2.51877902381032
2.57491352643688
2.63643402139449
2.7025332365453
2.77198052061677
2.84436293990883
2.91969329621558
2.99760349342786
3.07756384434513
3.15924530135754
3.24290428457706
3.32962663417038
3.4217850024144
3.52012896830872
3.62464884054664
3.73567499697134
3.85365190696183
3.97906988673757
4.11205703484298
4.25237527768059
4.39541115539229
4.53293941516623
4.66605087260351
4.79276153592405
4.91220657428483
5.01313277480347
5.10032008971104
5.15245583597083
5.20874836272187
5.24284111362171
5.39032930076117
5.59370570793088
5.97385622539292
6.34986404324681
6.89195726663715
7.40574227313703
7.76822098859236
6.90178666790959
7.00321235800002
6.88972940443215
7.02746769766054
7.15495750856857
7.9856395016523
8.6569612566329
13.3527292874876
18.3689158953435
18.8721955214343
14.6466362205721
9.30687251884971
6.08194851916552
4.53184833392921
3.70876839308137
3.20243830955584
2.86679751988051
2.63217012938919
2.45970677462569
2.33344089071787
2.24338124035733
2.18085732551205
2.13884337028954
2.10969561167413
2.08733611169943
2.068168128643
2.05049389610443
2.0314236143027
2.01037835015626
1.98832139616844
1.96675542903662
1.94728688132794
1.93094380284212
1.91800076891943
1.90819782937116
1.90246288013812
1.90225895916081
1.90787384649717
1.91940597581843
1.9361608151736
1.95670291587727
1.97850136015109
1.99782492124486
2.0099411936645
2.01033877767505
2.0005112695555
2.00215037785641
2.00431875843408
2.00954878529597
2.0151759770098
2.0215333971111
2.0279554125821
2.03439227888797
2.04062801096642