/*--------------------------------*- C++ -*----------------------------------*\
  =========                 |
  \\      /  F ield         | OpenFOAM: The Open Source CFD Toolbox
   \\    /   O peration     | Website:  https://openfoam.org
    \\  /    A nd           | Version:  7
     \\/     M anipulation  |
\*---------------------------------------------------------------------------*/
FoamFile
{
    version     2.0;
    format      ascii;
    class       surfaceScalarField;
    location    "20000";
    object      phi;
}
// * * * * * * * * * * * * * * * * * * * * * * * * * * * * * * * * * * * * * //

dimensions      [0 3 -1 0 0 0 0];

internalField   nonuniform List<scalar> 
30950
(
2.32939953550155e-05
-1.01004647975391e-06
2.52775223498809e-05
-1.98352700957816e-06
2.5935758573722e-05
-6.58236219979242e-07
2.13179025984019e-05
4.6178559797906e-06
1.39693837167956e-05
7.34851888906658e-06
4.97304221753508e-06
8.99634150627447e-06
-2.50029061236205e-06
7.47333283432728e-06
-6.42838645767681e-06
3.92809584762595e-06
-7.30766204446189e-06
8.79275587942161e-07
-7.23152955778315e-06
-7.61324862633039e-08
-6.87338553607266e-06
-3.58144022135259e-07
-6.41254998683961e-06
-4.60835550653022e-07
-5.98402421776199e-06
-4.28525770763946e-07
-5.65816887723204e-06
-3.25855341396133e-07
-5.42874558460556e-06
-2.29423292404154e-07
-5.28597836700012e-06
-1.42767217116795e-07
-5.22521539220873e-06
-6.07629754077116e-08
-5.24580408753614e-06
2.0588692541517e-08
-5.29989317881143e-06
5.40890859870142e-08
-5.37203214899043e-06
7.21389626986592e-08
-5.46447576279379e-06
9.24436047708042e-08
-5.5857583833377e-06
1.21282610568421e-07
-5.75417278587961e-06
1.68414391973813e-07
-5.98858460976941e-06
2.34411812764937e-07
-6.29760286539675e-06
3.09018243795946e-07
-6.66011355375047e-06
3.6251067561388e-07
-7.09067258145416e-06
4.30559013975289e-07
-7.60512493877461e-06
5.14452342630021e-07
-8.20366585833262e-06
5.98540904006685e-07
-8.87804581895995e-06
6.74379944341014e-07
-9.6125311546664e-06
7.34485318816509e-07
-1.03874005791438e-05
7.74869407076605e-07
-1.11864422656656e-05
7.99041668642401e-07
-1.20395661591444e-05
8.5312387511052e-07
-1.29765654991786e-05
9.36999321117917e-07
-1.39548386777881e-05
9.78273159107532e-07
-1.4938816540169e-05
9.83977842258663e-07
-1.58982153574165e-05
9.59398796498823e-07
-1.68081993357532e-05
9.09983956963844e-07
-1.76520778147963e-05
8.43878457060701e-07
-1.84367823508299e-05
7.84704513427959e-07
-1.92096979550202e-05
7.72915580870801e-07
-1.99887938461938e-05
7.79095867031918e-07
-2.11927166064656e-05
1.20392273511237e-06
-2.44587183522733e-05
3.26600171959342e-06
-2.75870431508046e-05
3.12832477073231e-06
-3.00399252119639e-05
2.45288203162497e-06
-3.19938327551169e-05
1.9539075122032e-06
-3.35857237790847e-05
1.59189099244061e-06
-3.48903374102957e-05
1.30461360028578e-06
-3.59656127207371e-05
1.07527528139926e-06
-3.68500279090998e-05
8.84415162403072e-07
-3.75721959582277e-05
7.22168027281926e-07
-3.81526428018324e-05
5.80446826656709e-07
-3.86070966250903e-05
4.54453811724865e-07
-3.89476695854906e-05
3.40572954483506e-07
-3.91841054637556e-05
2.36435877834589e-07
-3.93245091806437e-05
1.40403721464231e-07
-3.93759924534192e-05
5.1483281518178e-08
-3.9345208552582e-05
-3.07838890843268e-08
-3.92388063674316e-05
-1.06402171785038e-07
-3.9063785949951e-05
-1.7502040401563e-07
-3.88277775141303e-05
-2.36008423721163e-07
-3.85393316536589e-05
-2.88445851054192e-07
-3.82081561339006e-05
-3.31175514013806e-07
-3.78453045527367e-05
-3.62851579665591e-07
-3.74631770529758e-05
-3.82127502585237e-07
-3.70755033196152e-05
-3.87673740097637e-07
-3.66962679390547e-05
-3.79235390352962e-07
-3.63389558864283e-05
-3.57312064283645e-07
-3.60119793366725e-05
-3.26976561926045e-07
-3.5709898786405e-05
-3.02080561652249e-07
-3.53919799731848e-05
-3.17918822797038e-07
-3.50107397282493e-05
-3.81240252027187e-07
-3.40318724862876e-05
-9.7886724633799e-07
-3.18203059534656e-05
-2.21156653479234e-06
-3.04547477578947e-05
-1.36555819567279e-06
-2.97122708109446e-05
-7.42476945935764e-07
-2.91484863041442e-05
-5.63784505446403e-07
-2.86040360490873e-05
-5.44450254106111e-07
-2.797714596012e-05
-6.26890089089643e-07
-2.72159754633976e-05
-7.61170498506913e-07
-2.62821126146023e-05
-9.33862852735156e-07
-2.51556761914898e-05
-1.12643642965484e-06
-2.38201016032189e-05
-1.33557459772816e-06
-2.22791306280814e-05
-1.54097098768909e-06
-2.05584493294511e-05
-1.72068131433162e-06
-1.86314611373849e-05
-1.92698821090978e-06
-1.64524786778704e-05
-2.17898248149291e-06
-1.40073080696139e-05
-2.4451706332111e-06
-1.13054877830222e-05
-2.70182031410901e-06
-8.37659807118444e-06
-2.92888974122226e-06
-5.25613468399916e-06
-3.12046341750018e-06
-2.0046235202125e-06
-3.25151119392623e-06
1.30836831751118e-06
-3.31299186637415e-06
4.5407865225724e-06
-3.23241823083948e-06
7.66041084976911e-06
-3.11962434920244e-06
1.06582369683619e-05
-2.99782613669094e-06
1.35412630391356e-05
-2.88302608570647e-06
1.63326644220202e-05
-2.79140139603427e-06
1.90673938495409e-05
-2.73472944067023e-06
2.18090241366836e-05
-2.74163030207142e-06
2.46681201020643e-05
-2.85909598316385e-06
2.7933743881693e-05
-3.26562380014212e-06
3.17737390716896e-05
-3.83999521113123e-06
3.59225584960376e-05
-4.14881944170257e-06
4.03661298812883e-05
-4.44357139364435e-06
4.5088040780286e-05
-4.72191089490801e-06
5.01309393598949e-05
-5.04289856300342e-06
5.53673782375303e-05
-5.23643885207341e-06
6.05039115063288e-05
-5.13653323954555e-06
6.43209769690345e-05
-3.81706543481572e-06
6.44426005380047e-05
-1.21623547391531e-07
5.82481262018944e-05
6.19447434754051e-06
4.93063918759461e-05
8.94173432807856e-06
4.00315071584275e-05
9.27488471301845e-06
3.20878147381558e-05
7.94369241225182e-06
2.47396420368521e-05
7.34817269259253e-06
2.2042883214157e-05
2.69675881657831e-06
-2.40881423922191e-07
7.56454923853933e-05
-2.9522879969781e-06
8.01688233573576e-05
-6.5068580048692e-06
8.14923114165187e-05
-1.9817242796572e-06
7.05392794867008e-05
1.55708879105535e-05
5.05648464720042e-05
2.73229519092564e-05
2.44352515577549e-05
3.51259364274823e-05
2.7863863771022e-07
3.16299457605256e-05
-1.45273752196893e-05
1.87341097099605e-05
-1.95235736689208e-05
5.87547404113532e-06
-2.02272170362073e-05
6.27510883621495e-07
-1.95950713528179e-05
-9.9028970445728e-07
-1.85078478262221e-05
-1.5480590772922e-06
-1.74510189241625e-05
-1.48535467319333e-06
-1.66299487201079e-05
-1.14692554534194e-06
-1.60608408654019e-05
-7.98531145593313e-07
-1.57272936026899e-05
-4.76314475925825e-07
-1.56238641374757e-05
-1.64192434056435e-07
-1.57344871838984e-05
1.31211747253249e-07
-1.59468440212172e-05
2.66445931283976e-07
-1.62155639965945e-05
3.40858943287251e-07
-1.65494619703968e-05
4.26341579010324e-07
-1.69755546137055e-05
5.47375248483264e-07
-1.75451385369934e-05
7.37998303906735e-07
-1.83096367830308e-05
9.98910041855246e-07
-1.92870531825558e-05
1.28643462121303e-06
-2.04376605321567e-05
1.51311799810974e-06
-2.17961171738383e-05
1.78901562346843e-06
-2.34035497985627e-05
2.12188492993676e-06
-2.52601391087274e-05
2.45513017158365e-06
-2.73418694844277e-05
2.75611027267788e-06
-2.96055323362824e-05
2.9981481192458e-06
-3.20002989522204e-05
3.16963596848108e-06
-3.44975482128099e-05
3.29629087267753e-06
-3.71643308020829e-05
3.51990640688736e-06
-4.00503085238397e-05
3.82297698536265e-06
-4.30502601618621e-05
3.97822474022982e-06
-4.6062774147465e-05
3.99649177173138e-06
-4.90067535554131e-05
3.90337814873264e-06
-5.1818087203625e-05
3.72131754907847e-06
-5.44658838669012e-05
3.49167506281207e-06
-5.69828951344305e-05
3.30171572093639e-06
-5.94983634363818e-05
3.28838381953129e-06
-6.23442036369713e-05
3.62493600080064e-06
-6.67706804548755e-05
5.6303994830275e-06
-7.51729715437624e-05
1.16682927370401e-05
-8.31664252287323e-05
1.11217783837522e-05
-8.93860167274621e-05
8.67247345876778e-06
-9.43090561060115e-05
6.87694682116562e-06
-9.82696909926734e-05
5.55252581374585e-06
-0.000101475638943883
4.51056149271952e-06
-0.000104074185461798
3.67382174917332e-06
-0.000106167523029318
2.97775268994934e-06
-0.000107829559873173
2.38420484217747e-06
-0.000109114579483838
1.8654664195544e-06
-0.000110064028328639
1.40390264939974e-06
-0.000110710362312801
9.86906941049967e-07
-0.000111079996320806
6.06069896084868e-07
-0.000111195420919257
2.55828335859968e-07
-0.000111076733180047
-6.7204438486627e-08
-0.000110742884124605
-3.64632924638493e-07
-0.00011021292795404
-6.36358324242696e-07
-0.000109506835614323
-8.81112729595323e-07
-0.000108646094289476
-1.0967497401298e-06
-0.000107654360501703
-1.28017963718896e-06
-0.000106557911714456
-1.42762430681117e-06
-0.000105385891003223
-1.53487230330982e-06
-0.000104170021830682
-1.59799669337029e-06
-0.000102943907532845
-1.61378806038744e-06
-0.00010174018785299
-1.58295509485235e-06
-0.000100586317421149
-1.51118252077265e-06
-9.94912118933736e-05
-1.42208211228793e-06
-9.84308818524534e-05
-1.36241062143211e-06
-9.72713555906178e-05
-1.47744509872376e-06
-9.56790123367788e-05
-1.97358351489852e-06
-9.26596830123996e-05
-3.99819657521265e-06
-8.76656505270751e-05
-7.20559902143216e-06
-8.42772172689465e-05
-4.75399145400474e-06
-8.21736701285451e-05
-2.84602408786271e-06
-8.0373758010288e-05
-2.36369662904991e-06
-7.85162802475279e-05
-2.40192802836052e-06
-7.63674347900483e-05
-2.77573556621823e-06
-7.38058377417729e-05
-3.32276757603847e-06
-7.07487166937448e-05
-3.99098394044837e-06
-6.71536330519528e-05
-4.72152012161284e-06
-6.29949955666482e-05
-5.49421214293144e-06
-5.82888406587249e-05
-6.24712596378759e-06
-5.30782708354382e-05
-6.93125121206641e-06
-4.73138802962733e-05
-7.69137882848063e-06
-4.09186402472512e-05
-8.57422261042111e-06
-3.38801963857707e-05
-9.48361457371357e-06
-2.62384731042921e-05
-1.03435436715022e-05
-1.80716397556605e-05
-1.10957231608006e-05
-9.4772239175359e-06
-1.17148793201806e-05
-5.96496972868089e-07
-1.21322381958415e-05
8.38277418947999e-06
-1.2292263078056e-05
1.7149956957318e-05
-1.19996010400177e-05
2.56213727951944e-05
-1.15910402211655e-05
3.37767290324799e-05
-1.11531824019242e-05
4.16315087178869e-05
-1.07378057939119e-05
4.92381707068361e-05
-1.0398063403083e-05
5.66833374016855e-05
-1.01798961486664e-05
6.41177863793119e-05
-1.01760792868673e-05
7.18240368162302e-05
-1.05653464196637e-05
8.04606455468846e-05
-1.19022325210497e-05
9.0421726255999e-05
-1.38010758998223e-05
0.000101274153580598
-1.50012467351166e-05
0.000112940988598636
-1.61104063718848e-05
0.000125406055111534
-1.71869773639696e-05
0.000138750771355761
-1.83876147653046e-05
0.000152759184159181
-1.92448516208554e-05
0.000166729253648649
-1.91066027048997e-05
0.000178065171206722
-1.51529829803303e-05
0.000181207062913926
-3.26351525322846e-06
0.000170050818955135
1.73507182978309e-05
0.000149812570568617
2.91799826992066e-05
0.000126474739467496
3.26127157949357e-05
0.000104543844547198
2.98745873123591e-05
8.44962569726768e-05
2.7395760248698e-05
7.49891588795519e-05
1.22038568963429e-05
1.04502645919944e-06
0.000136217501111692
-4.4570421096312e-06
0.000141834554384162
-1.2123911296132e-05
0.000143296263491722
-3.44343338696599e-06
0.000128090117940577
3.07770334635065e-05
9.76312061762574e-05
5.7781863680537e-05
5.50095447679534e-05
7.77475978449838e-05
1.20736351534025e-05
7.45658553838519e-05
-1.72725457531289e-05
4.80802906235724e-05
-2.92663342772998e-05
1.78692625707013e-05
-3.20377886678538e-05
3.3989652776183e-06
-3.16792397430089e-05
-1.34883862788549e-06
-3.02894820742912e-05
-2.93781674599276e-06
-2.88296664405004e-05
-2.94517030737284e-06
-2.76661851592611e-05
-2.31040682637549e-06
-2.68673721948271e-05
-1.59734410798641e-06
-2.64291352498022e-05
-9.1455141565791e-07
-2.63534462373244e-05
-2.39881437381279e-07
-2.66073614077301e-05
3.85126929651048e-07
-2.70315215168059e-05
6.90606052563771e-07
-2.75548450912577e-05
8.64182526840669e-07
-2.81940874276311e-05
1.06558391854999e-06
-2.89963243495704e-05
1.34961216605232e-06
-3.00438815547713e-05
1.78555549685942e-06
-3.14162018768441e-05
2.3712303442101e-06
-3.31382061060026e-05
3.00843882372657e-06
-3.51641127030744e-05
3.53902456185431e-06
-3.75451638073813e-05
4.1700666876855e-06
-4.03422848032564e-05
4.91900587883522e-06
-4.35545222612566e-05
5.66736757587855e-06
-4.71421702426365e-05
6.34375819422547e-06
-5.10373818255069e-05
6.89335963719138e-06
-5.51664144078239e-05
7.2986684821159e-06
-5.94985675553011e-05
7.62844394919056e-06
-6.41192518544733e-05
8.14059063423371e-06
-6.9070852472689e-05
8.77457753209565e-06
-7.41946621794493e-05
9.1020343766094e-06
-7.93314412781745e-05
9.13327080130614e-06
-8.43584013540402e-05
8.9303381561449e-06
-8.91852574707618e-05
8.54817359698176e-06
-9.37832683544455e-05
8.08968587593786e-06
-9.82231555386672e-05
7.74160283150807e-06
-0.00010276378313995
7.82901134316334e-06
-0.000108136718185687
8.99787096468006e-06
-0.000115967559027517
1.34612402396686e-05
-0.000128227410708031
2.39281443313825e-05
-0.00013961101862655
2.25053862162678e-05
-0.000148394439115111
1.74558938624776e-05
-0.000155270643806444
1.37531514307887e-05
-0.000160718983488106
1.10008654195026e-05
-0.000165051474013322
8.84305195055092e-06
-0.000168482342679772
7.10469035907201e-06
-0.000171162184801701
5.65759476781243e-06
-0.000173199356908224
4.42137691797557e-06
-0.000174674434462202
3.34054395618059e-06
-0.00017564926900623
2.37873718867822e-06
-0.000176172890918078
1.5105288592164e-06
-0.000176285675724695
7.18854717914794e-07
-0.000176022584738348
-7.26262912291812e-09
-0.000175415615538115
-6.74173614253056e-07
-0.000174495683798621
-1.28456463968107e-06
-0.000173293506877638
-1.83853522374223e-06
-0.000171840634397361
-2.33398519387235e-06
-0.000170170526624733
-2.7668575041172e-06
-0.000168319260395002
-3.1314458667093e-06
-0.000166325903486152
-3.42098122407848e-06
-0.00016423247674608
-3.62829905973241e-06
-0.000162083045965693
-3.74742749655464e-06
-0.000159921913438704
-3.77492061448955e-06
-0.000157788813575475
-3.71605498701003e-06
-0.000155710966893164
-3.58902923122785e-06
-0.000153683834579535
-3.4492144509357e-06
-0.000151647605835937
-3.39863938512354e-06
-0.000149364897883059
-3.76015306577485e-06
-0.000146311195763564
-5.02728564253002e-06
-0.000141536825402358
-8.77256693942662e-06
-0.000134959942683817
-1.37824817396941e-05
-0.000130177572419557
-9.53636171721951e-06
-0.000126767281234369
-6.2563152743193e-06
-0.000123575159009298
-5.55581886082663e-06
-0.000120154085816026
-5.82300123665023e-06
-0.000116211823189163
-6.71799821886277e-06
-0.000111597420044178
-7.93717075934131e-06
-0.000106213510994593
-9.37489304179987e-06
-0.000100013708077839
-1.09213231034835e-05
-9.29772173759022e-05
-1.25307029222265e-05
-8.51280261231176e-05
-1.40963173041424e-05
-7.65031938067102e-05
-1.55560836234984e-05
-6.70473745661064e-05
-1.7147198168356e-05
-5.66921229023058e-05
-1.8929474374384e-05
-4.54460683734778e-05
-2.07296692003296e-05
-3.33802785141271e-05
-2.2409333623367e-05
-2.06087663713651e-05
-2.38672353885048e-05
-7.27425386674838e-06
-2.50493919006514e-05
6.42956141200396e-06
-2.58360535403611e-05
2.02295436759203e-05
-2.60922453971653e-05
3.3728195819935e-05
-2.54982532294407e-05
4.680417762522e-05
-2.4667022063609e-05
5.9428642387603e-05
-2.37776471946679e-05
7.16206502949155e-05
-2.29298137255866e-05
8.34485167679259e-05
-2.22259298942859e-05
9.50324845462361e-05
-2.17638639377747e-05
0.000106580471142847
-2.1724065884865e-05
0.000118494100070459
-2.24789753370139e-05
0.000131649024645368
-2.50571570724279e-05
0.000146599035333642
-2.87510865512492e-05
0.000162920312903389
-3.13225242572367e-05
0.000180481988421059
-3.36720818364516e-05
0.000199257676348398
-3.59626652396871e-05
0.0002193293167696
-3.84592551428331e-05
0.000240452283015757
-4.03678178351757e-05
0.000261709992966492
-4.03643126365569e-05
0.000279922750769043
-3.33657407758032e-05
0.000287946644763079
-1.1287409250864e-05
0.000277456206667374
2.78411563808385e-05
0.000252423648411072
5.42125409356968e-05
0.000220127813637118
6.49085505450157e-05
0.000187183668043944
6.28187328811706e-05
0.000156373873354234
5.82055549170253e-05
0.000139330173670301
2.92475565655629e-05
5.66245310085616e-06
0.00020448452493112
-4.06897531476572e-06
0.000209665202142836
-1.73045885242719e-05
0.00021069412085493
-4.47235209754531e-06
0.000192935156510745
4.85359978114934e-05
0.000154834871802587
9.58821483970299e-05
9.75220064909483e-05
0.00013506046316746
3.46571971802444e-05
0.000137430664705119
-1.2936918749167e-05
9.56744065613442e-05
-3.54181138797843e-05
4.03504577069973e-05
-4.20268019197568e-05
1.00076533207878e-05
-4.26929807026128e-05
-6.82659844205826e-07
-4.14315912802197e-05
-4.19920616921696e-06
-3.98633983991597e-05
-4.51336318977302e-06
-3.85641146524872e-05
-3.60969057355469e-06
-3.76834183589425e-05
-2.47804039977114e-06
-3.72544617588013e-05
-1.34350801044884e-06
-3.72952554670975e-05
-1.99087719776195e-07
-3.77626249455114e-05
8.52496420103322e-07
-3.84636992742623e-05
1.39168039336675e-06
-3.93099927375627e-05
1.71047599890046e-06
-4.03276088636089e-05
2.08320004727093e-06
-4.15847211901478e-05
2.6067244876004e-06
-4.31920795855202e-05
3.39291387920478e-06
-4.52517361878581e-05
4.4308869258166e-06
-4.77961176467109e-05
5.55282025461037e-06
-5.07806203928064e-05
6.52352727292922e-06
-5.42712345457331e-05
7.6606807984639e-06
-5.83420520736808e-05
8.98982335745832e-06
-6.29886806519476e-05
1.03139960979504e-05
-6.81556229658562e-05
1.15107004458277e-05
-7.37535416070229e-05
1.24912782111543e-05
-7.96931383438617e-05
1.32382651483557e-05
-8.59420472170732e-05
1.38773527500105e-05
-9.25823279286983e-05
1.47808712731749e-05
-9.96279431897475e-05
1.58201927214012e-05
-0.000106871165058305
1.63452561750985e-05
-0.000114106274181733
1.63683798564347e-05
-0.000121180025710395
1.60040896177131e-05
-0.000127990985595319
1.5359133414931e-05
-0.000134526560556163
1.46252607685446e-05
-0.000140909169571854
1.41242117763386e-05
-0.000147538688599684
1.44585302965944e-05
-0.000155364669922409
1.68238522093195e-05
-0.000165835389876556
2.39319601131672e-05
-0.000180172619992961
3.82653743665055e-05
-0.000193000581542184
3.53333476845475e-05
-0.000202726692328536
2.71820045691313e-05
-0.000210177748556359
2.12042075820422e-05
-0.000215919844251132
1.67429610433519e-05
-0.000220329080607022
1.32522882436704e-05
-0.000223660127249487
1.04357369490268e-05
-0.00022609291804408
8.09038552163567e-06
-0.000227757395590733
6.08585443632372e-06
-0.000228751224315342
4.33437266492175e-06
-0.000229150070775117
2.77758364423593e-06
-0.000229014503033533
1.37496112358936e-06
-0.000228394763696627
9.91153950336867e-08
-0.000227336888370129
-1.0651379360376e-06
-0.000225884322534799
-2.12673942722907e-06
-0.000224077009516258
-3.09187763594868e-06
-0.000221953956120724
-3.96158859971457e-06
-0.000219554796089555
-4.73314521040826e-06
-0.000216920648443575
-5.40100514202892e-06
-0.00021409462418697
-5.95747012272644e-06
-0.000211121853789558
-6.39375162850454e-06
-0.000208048903150815
-6.70124971244721e-06
-0.000204922056397673
-6.87427426928824e-06
-0.000201784292676752
-6.91268435872813e-06
-0.000198668842741825
-6.8315049467947e-06
-0.000195588964940452
-6.66890705673612e-06
-0.000192516117405094
-6.52206200769495e-06
-0.000189352951577934
-6.56180522938703e-06
-0.000185827577359029
-7.28552729661171e-06
-0.000181447443040896
-9.40741996736792e-06
-0.000175555252689562
-1.46647572930436e-05
-0.000168422902911912
-2.09148315168146e-05
-0.000162820802494919
-1.51384621329613e-05
-0.000158189997998591
-1.08871197713707e-05
-0.000153526873744679
-1.02189431202223e-05
-0.000148422311439573
-1.092756355458e-05
-0.000142601782353235
-1.25385273275279e-05
-0.000135926851888387
-1.46121012576255e-05
-0.000128311712245041
-1.69900327305348e-05
-0.000119719582071131
-1.95134533346902e-05
-0.000110137597307874
-2.2112687753728e-05
-9.95871246127104e-05
-2.46467900766787e-05
-8.80848953521527e-05
-2.70583129681275e-05
-7.55827735584939e-05
-2.96493200498787e-05
-6.20451165846065e-05
-3.24671314368187e-05
-4.75068805978495e-05
-3.52679052733453e-05
-3.20590604770553e-05
-3.78571538255241e-05
-1.58304668603651e-05
-4.00958290796591e-05
1.01822557422719e-06
-4.18980844014332e-05
1.82763211417884e-05
-4.3094149164819e-05
3.56399577336704e-05
-4.34558820365254e-05
5.27002936639871e-05
-4.25585891989294e-05
6.9314988393822e-05
-4.12817168257851e-05
8.54471140331249e-05
-3.9909772860555e-05
0.000101111223725637
-3.85939234392617e-05
0.000116374998281411
-3.74897044652265e-05
0.00013136691547002
-3.67557811341488e-05
0.000146313625703763
-3.66707761169998e-05
0.000161658850467874
-3.7824200088324e-05
0.000178342009229521
-4.17403158091857e-05
0.000197016661135164
-4.7425738420875e-05
0.000217370637952732
-5.16765010310283e-05
0.000239264230501642
-5.55656743392219e-05
0.000262657522622191
-5.93559573175815e-05
0.000287609723216803
-6.34114557026231e-05
0.000313875662741534
-6.66337573347047e-05
0.000340519274223723
-6.70079241030747e-05
0.000364422623523087
-5.72690900685512e-05
0.000378342869581042
-2.52076553109594e-05
0.000372895501310431
3.32885246412075e-05
0.000349639621151277
7.74684210773363e-05
0.000314890542974151
9.96576286998636e-05
0.000275993197576353
0.000101716078255645
0.000237745054272251
9.64536982005134e-05
0.0002139042007145
5.308841010937e-05
1.46940620992591e-05
0.000276145538810149
-7.19622073103515e-07
0.00027953865552007
-2.06977052476498e-05
0.00027971639671205
-4.65009328813688e-06
0.000261291557678986
6.69608368493724e-05
0.000219362405136166
0.000137811300947978
0.000151174689231571
0.000203248179082524
6.92748873412338e-05
0.000219330466605985
4.44347282225351e-07
0.000164504946628884
-3.65454861225014e-05
7.73402911171927e-05
-4.93584277200012e-05
2.2820594920853e-05
-5.20939438233805e-05
2.05285625910076e-06
-5.15352677319944e-05
-4.75788226253924e-06
-5.0245260446346e-05
-5.80337047796967e-06
-4.90815683641972e-05
-4.77338265729621e-06
-4.83121883069833e-05
-3.24742045598261e-06
-4.80369548735412e-05
-1.61874143900615e-06
-4.83032275437635e-05
6.71849593492572e-08
-4.90683309293635e-05
1.61759981714235e-06
-5.01215678825448e-05
2.4449173576453e-06
-5.13662858084025e-05
2.95519393219248e-06
-5.28396937854753e-05
3.55660802539106e-06
-5.46310713090215e-05
4.39810200429888e-06
-5.68757121654695e-05
5.63755472059143e-06
-5.96927142851766e-05
7.24788902259512e-06
-6.31221776978905e-05
8.9822836369921e-06
-6.71254868697831e-05
1.05268364072754e-05
-7.17788544567948e-05
1.23140483406875e-05
-7.71605055877921e-05
1.43714744365083e-05
-8.32572940623728e-05
1.64107845138931e-05
-8.99951375904576e-05
1.82485439095599e-05
-9.72632910443031e-05
1.97594315963401e-05
-0.0001049570994576
2.09320734903738e-05
-0.000113032356968609
2.19526101888578e-05
-0.000121541442847037
2.32899570801679e-05
-0.000130449702999499
2.4728452804429e-05
-0.000139505898497059
2.54014516059282e-05
-0.000148472131326224
2.53346126216182e-05
-0.000157181378519297
2.47133367489397e-05
-0.000165539908042426
2.37176628772308e-05
-0.000173565888384464
2.26512410493952e-05
-0.000181434026784325
2.19923501133307e-05
-0.00018960634944667
2.26308528935133e-05
-0.000198964723508072
2.61822262026551e-05
-0.000210494985546432
3.54622220820296e-05
-0.000224621210859345
5.23915996098476e-05
-0.000236647552259391
4.73596890160328e-05
-0.000245500177090491
3.60346293337006e-05
-0.000252065692270475
2.7769722699084e-05
-0.00025690645769201
2.1583726407507e-05
-0.000260404436983962
1.67502674856442e-05
-0.000262814536299525
1.28458362234436e-05
-0.000264317749456268
9.59359864692401e-06
-0.000265045231086814
6.81333604536983e-06
-0.000265096415958172
4.38555752440207e-06
-0.000264548964638012
2.23013232093999e-06
-0.000263465785234524
2.91781724342105e-07
-0.000261902674490346
-1.46399533922191e-06
-0.000259909602065149
-3.05821034759053e-06
-0.000257530233904669
-4.50610757240513e-06
-0.000254806212880316
-5.81589864532426e-06
-0.000251778623362568
-6.9891781045831e-06
-0.00024848888249148
-8.0228860721706e-06
-0.000244979378173309
-8.91050945545508e-06
-0.000241293704072068
-9.64314422434574e-06
-0.000237476330927278
-1.02111247788086e-05
-0.000233571550284923
-1.06060303649697e-05
-0.000229621205064325
-1.08246195037774e-05
-0.0002256609281503
-1.08729612890838e-05
-0.000221713187649866
-1.07792454645265e-05
-0.000217776955624933
-1.06051390984273e-05
-0.000213807786586643
-1.04912310608549e-05
-0.000209696424968805
-1.06731668591733e-05
-0.00020521116791174
-1.1770784362118e-05
-0.000199985233093321
-1.46333547906902e-05
-0.000193606384305331
-2.10436060829451e-05
-0.000186491151608702
-2.80300642134107e-05
-0.000180419053333319
-2.12105604078165e-05
-0.0001748206060068
-1.64855670987623e-05
-0.000168947712348172
-1.60918367831098e-05
-0.000162472061457002
-1.74032144552376e-05
-0.000155165109047468
-1.98454797533308e-05
-0.000146911999426061
-2.28652109032283e-05
-0.000137642540722486
-2.62594914668347e-05
-0.000127327439919234
-2.98285541791552e-05
-0.000115956506666359
-3.34836210556151e-05
-0.000103542546514612
-3.70607502839572e-05
-9.00837582258878e-05
-4.05171013171188e-05
-7.55456181133412e-05
-4.41874602253048e-05
-5.99238100646614e-05
-4.80889395487207e-05
-4.32703000313757e-05
-5.19214153680587e-05
-2.56832552392672e-05
-5.54441986754485e-05
-7.29157095852706e-06
-5.84875134132495e-05
1.17437083732745e-05
-6.0933363780076e-05
3.12172731534555e-05
-6.25677139851617e-05
5.08292546239196e-05
-6.3067863540809e-05
7.0199749243278e-05
-6.19290838466767e-05
8.91793704264223e-05
-6.02613380327909e-05
0.000107727815451521
-5.84582179055519e-05
0.000125854865165963
-5.67209731696288e-05
0.000143622519334167
-5.52573586446872e-05
0.000161154580818973
-5.42878426242109e-05
0.000178670511447157
-5.41867067427682e-05
0.000196597925146859
-5.57516137764741e-05
0.000215824273748928
-6.09666643900454e-05
0.00023702993119673
-6.86313958389376e-05
0.000260049012119634
-7.46955819187306e-05
0.000284756906929429
-8.02735691127083e-05
0.000311111970102109
-8.5711020457087e-05
0.000339133876241734
-9.14333618149862e-05
0.000368587014639991
-9.60868957126882e-05
0.000398605812363163
-9.70267218132262e-05
0.000426473940013824
-8.51372177137469e-05
0.000445858503133011
-4.45922184323812e-05
0.000447714452056255
3.14325757088411e-05
0.000431238097663999
9.39447754543709e-05
0.000400557703579238
0.000130338022765084
0.000362052162462963
0.00014022161935111
0.000321293000390683
0.00013721286025416
0.000292922513911649
8.14588965757635e-05
2.81216839560828e-05
0.000344775465689072
5.84327398414705e-06
0.000345617204719923
-2.15394442874198e-05
0.000344778163961341
-3.8110525288695e-06
0.00032742463332575
8.43143674898361e-05
0.00028592003455276
0.000179315899728143
0.000212612362820968
0.000276555850823517
0.000115517517226826
0.000316425312209719
2.45418442384889e-05
0.000255480619625397
-3.08593978384389e-05
0.000132741533199491
-5.29180238055495e-05
4.48792208902061e-05
-5.91653513822022e-05
8.30018383518227e-06
-6.00734961472714e-05
-3.8497375002038e-06
-5.95649511087666e-05
-6.31191552014302e-06
-5.88903635673589e-05
-5.44797020161266e-06
-5.84820616566968e-05
-3.65572236692095e-06
-5.85405672246984e-05
-1.56023586719403e-06
-5.91623669384926e-05
6.88984681186959e-07
-6.03215829058469e-05
2.77681579518128e-06
-6.18081388568552e-05
3.93147331896081e-06
-6.35270834453325e-05
4.67413852715278e-06
-6.55283090512408e-05
5.55783363116034e-06
-6.79204123238405e-05
6.79020526861072e-06
-7.08574725554031e-05
8.5746149354257e-06
-7.44692989893064e-05
1.0859715431739e-05
-7.88018557265216e-05
1.33148403419717e-05
-8.38229238082245e-05
1.55479044495636e-05
-8.96096477473165e-05
1.81007722333251e-05
-9.6230960085512e-05
2.09927867214557e-05
-0.000103654814819399
2.38346391884174e-05
-0.000111781481668018
2.63752106938657e-05
-0.000120474397938699
2.84523477993444e-05
-0.00012960732100818
3.00649964906246e-05
-0.000139110477796895
3.14557669086045e-05
-0.000148987321160433
3.31668003766022e-05
-0.000159148067616045
3.48891991959995e-05
-0.000169318143427163
3.55715273566739e-05
-0.0001792577225416
3.52741916792796e-05
-0.000188816170186247
3.42717843397368e-05
-0.000197932124502957
3.28336171419072e-05
-0.000206663806051847
3.13829225467722e-05
-0.000215215720820525
3.05442648298336e-05
-0.000224011150580952
3.14262826003361e-05
-0.00023369622884472
3.58673044113173e-05
-0.000244800878991991
4.65668721737262e-05
-0.000257158152774131
6.47488733370898e-05
-0.000267176461352425
5.73779975412888e-05
-0.00027438524906103
4.32434169919897e-05
-0.000279585842505961
3.29703160974412e-05
-0.000283242585229679
2.52404690896216e-05
-0.000285683106248876
1.91907884692752e-05
-0.000287125673375692
1.42884033214692e-05
-0.000287727610384677
1.01955356342403e-05
-0.000287604357242323
6.69008288839512e-06
-0.000286844791114113
3.62599138816004e-06
-0.000285519645506686
9.04986711291086e-07
-0.000283688943138269
-1.53892064153506e-06
-0.000281404614894228
-3.74832357718871e-06
-0.000278711311256714
-5.7515139768095e-06
-0.000275650248493408
-7.56717032651016e-06
-0.000272261588734346
-9.2045583955044e-06
-0.000268585163644026
-1.06656031874049e-05
-0.000264661192929146
-1.19468567817818e-05
-0.000260530719556941
-1.30409828252049e-05
-0.000256235637041944
-1.39382267399877e-05
-0.000251818137730581
-1.46286240939024e-05
-0.000247319405888218
-1.51047622138364e-05
-0.000242777148982444
-1.53668764182649e-05
-0.000238221642914
-1.54284673676838e-05
-0.000233669078284609
-1.53318101046347e-05
-0.000229112230697866
-1.51619866955492e-05
-0.000224504201379482
-1.50992603884736e-05
-0.000219743330199761
-1.54340380463609e-05
-0.000214650920698671
-1.68631938685441e-05
-0.000208964291768333
-2.03199837242164e-05
-0.000202404321374368
-2.76035764782717e-05
-0.000195373072920136
-3.50613126677657e-05
-0.000188950261139932
-2.76333721878429e-05
-0.000182648300316618
-2.27875279227959e-05
-0.000175916077220836
-2.28240598817571e-05
-0.000168479988066914
-2.48393036153349e-05
-0.000160145314700743
-2.81801531299615e-05
-0.000150811438905221
-3.21990867142029e-05
-0.00014041720502002
-3.66537253728406e-05