/*--------------------------------*- C++ -*----------------------------------*\
  =========                 |
  \\      /  F ield         | OpenFOAM: The Open Source CFD Toolbox
   \\    /   O peration     | Website:  https://openfoam.org
    \\  /    A nd           | Version:  7
     \\/     M anipulation  |
\*---------------------------------------------------------------------------*/
FoamFile
{
    version     2.0;
    format      ascii;
    class       volSymmTensorField;
    location    "20000";
    object      tauij_B_bouss;
}
// * * * * * * * * * * * * * * * * * * * * * * * * * * * * * * * * * * * * * //

dimensions      [0 2 -2 0 0 0 0];

internalField   nonuniform List<symmTensor> 
15600
(
(9.08871068191806e-07 -5.55630555308267e-09 3.42852539792888e-31 9.0890188401777e-07 1.57276014272676e-32 9.08886623766739e-07)
(9.57133760470744e-07 -6.14547344364279e-09 -7.21767376774289e-30 9.57192201089689e-07 1.35022093964956e-31 9.57160908092024e-07)
(9.17036557549171e-07 -6.34480583814608e-09 -1.94353050259104e-29 9.17351340794473e-07 -2.56254453039092e-28 9.17189688266857e-07)
(7.7065983538601e-07 -5.02791711302718e-09 8.32908991793531e-29 7.71515995897911e-07 1.12283243373213e-28 7.710902537542e-07)
(5.88695417742882e-07 -2.96252842782049e-09 -2.88496428192833e-29 5.89677033488505e-07 -4.17888794278126e-28 5.89184074828712e-07)
(3.93028390464448e-07 -1.14699081306265e-09 -5.41085763103978e-28 3.93640610910296e-07 -1.34949491996734e-29 3.93332502763242e-07)
(2.27314157813119e-07 -1.53478717400844e-10 1.13968326396506e-27 2.27410267429499e-07 2.18657414124945e-27 2.27359204566444e-07)
(1.15906306028243e-07 9.39178114887618e-11 -9.64728863379645e-29 1.15767794175991e-07 -3.55491139930274e-30 1.1583520434612e-07)
(5.99420357884836e-08 7.54348364502644e-11 -7.52348453957793e-28 5.98097955394319e-08 -2.00135539564177e-27 5.98750841007507e-08)
(4.20938831621212e-08 5.05525909665041e-11 -1.96519347855508e-29 4.19871340603115e-08 -1.24077304779966e-31 4.20400881081783e-08)
(3.63007454212964e-08 3.92602531924209e-11 -6.69455865578941e-28 3.62042898207749e-08 -1.39014210102121e-27 3.62521682398391e-08)
(3.10581122359663e-08 2.94415270583212e-11 8.44419081436919e-29 3.09768774410084e-08 2.1646430414723e-30 3.10172277780014e-08)
(2.50269771378343e-08 2.09661892929847e-11 -3.46798707654118e-28 2.49638000387991e-08 -2.38691756456173e-30 2.4995199242434e-08)
(1.99643830605759e-08 1.51212916119706e-11 -5.99962620573758e-28 1.99159295527492e-08 -8.70702541010801e-28 1.99400274905741e-08)
(1.64756286823881e-08 1.16735752105603e-11 1.00788045145519e-28 1.64369390704181e-08 -8.67875818417687e-28 1.64561909149671e-08)
(1.42891724045769e-08 9.79448693813661e-12 -2.6880627612743e-28 1.42565262868284e-08 -8.06018058318966e-28 1.4272779230806e-08)
(1.3021262380183e-08 8.93626339866613e-12 2.01241169484871e-27 1.29920947182676e-08 3.78308395424626e-27 1.30066225335224e-08)
(1.23944124361453e-08 8.70690536950855e-12 1.29851983150571e-27 1.236684611821e-08 2.32333847793696e-27 1.23805829307466e-08)
(1.21651119082556e-08 8.82222835996258e-12 -1.6504677701747e-27 1.21379637501381e-08 -3.30764188723372e-27 1.21514957888596e-08)
(1.21583262240064e-08 9.10527813747747e-12 -3.2028507817987e-28 1.21310090337441e-08 6.14238776581875e-30 1.21446292884207e-08)
(1.23368579927939e-08 9.5468150340213e-12 3.60826565780833e-28 1.23088303906295e-08 9.75375433639788e-28 1.23228087163568e-08)
(1.27348175512429e-08 1.01944420027901e-11 1.91205648506173e-28 1.27054160615858e-08 -3.39509528467415e-30 1.27200838544207e-08)
(1.34136042124421e-08 1.1145661003561e-11 -1.92026295950073e-27 1.33818941354985e-08 -3.56900535210032e-27 1.33977185923412e-08)
(1.44590420094696e-08 1.25487128853103e-11 -1.40980235987652e-27 1.44236777379321e-08 -2.71980347178321e-27 1.44413309891365e-08)
(1.59572280974555e-08 1.45874574136344e-11 2.99796456520254e-27 1.59163635004546e-08 4.61108750331188e-27 1.59367681422936e-08)
(1.7975677975422e-08 1.74209761051751e-11 1.12624450160372e-25 1.79271154481966e-08 -1.04429456545201e-28 1.79513673531204e-08)
(2.05687290808339e-08 2.13561345858129e-11 -9.18591700552589e-26 2.05099504621908e-08 -6.42228978235508e-25 2.05393100774484e-08)
(2.38698061142621e-08 2.69419651578955e-11 -4.15267507976127e-25 2.3797404368496e-08 -7.46610105445278e-25 2.38335749293778e-08)
(2.80273446099664e-08 3.48552093536987e-11 -2.02163600856092e-25 2.79369528845573e-08 7.51841768986773e-27 2.79821169347422e-08)
(3.31726655766795e-08 4.59505174006846e-11 -2.52272212907406e-27 3.30590470845553e-08 -4.28063837856364e-27 3.31158219862483e-08)
(3.94273415768453e-08 6.13015680378014e-11 1.30119728574379e-27 3.92846143104127e-08 2.51148471629929e-27 3.93559399778261e-08)
(4.6892988019913e-08 8.21985568553141e-11 -4.48214217171583e-29 4.67151178466822e-08 -3.93081058222033e-30 4.68040131262853e-08)
(5.56567046839023e-08 1.10121178598389e-10 9.43088443391221e-28 5.54382621118458e-08 3.97413282932165e-27 5.55474443423245e-08)
(6.58353397978468e-08 1.47130683800725e-10 1.15255826875631e-27 6.55716339404084e-08 -4.77895640287851e-29 6.57034638213963e-08)
(7.7681690206699e-08 1.96205260086442e-10 6.66095210670403e-27 7.73676807260418e-08 1.9197306191758e-26 7.75246977688421e-08)
(9.14053547798665e-08 2.59880153903176e-10 -7.45782337946751e-27 9.10370571864368e-08 -2.37287440763667e-26 9.12212472997094e-08)
(1.06913927511356e-07 3.39521839577884e-10 2.32932920836743e-27 1.06492137592208e-07 -1.09086562476153e-28 1.06703120710602e-07)
(1.24050895031137e-07 4.3597257301096e-10 -3.53483466729209e-25 1.23582303619782e-07 2.94856099867287e-27 1.23816750702805e-07)
(1.42577715310308e-07 5.48843375651732e-10 -3.93343640040265e-25 1.42076263935441e-07 1.64862489419097e-24 1.42327233374804e-07)
(1.62181019034337e-07 6.76480817875357e-10 4.3336334778096e-25 1.61668372159689e-07 1.75860482453343e-24 1.61925067393387e-07)
(1.82552323077637e-07 8.16513823406138e-10 5.69460704122328e-25 1.82057024879295e-07 -5.6977011848649e-26 1.82305192165912e-07)
(2.03596736135919e-07 9.68755966457315e-10 2.34239502386835e-27 2.03151964022211e-07 3.26237042938809e-26 2.03375130301074e-07)
(2.25886349860608e-07 1.13530481962532e-09 2.40780691717104e-27 2.25529846901306e-07 3.18757140818547e-26 2.25709346291092e-07)
(2.51249488552646e-07 1.33174057887256e-09 -1.43686503149829e-27 2.51013296544584e-07 -9.45769986045459e-29 2.51131750525679e-07)
(2.85656839526147e-07 1.68248743404834e-09 2.21323167186457e-29 2.8555435908609e-07 2.27937816543286e-27 2.85608729291031e-07)
(3.40962803230451e-07 2.28535691264509e-09 1.34419110438627e-24 3.40895374063705e-07 -3.39458352853588e-26 3.40930886200058e-07)
(3.98536053529764e-07 2.91479539245007e-09 3.26573804128859e-24 3.98474516014375e-07 -4.83697886522096e-24 3.98507319622996e-07)
(4.52921504171499e-07 3.53342266896117e-09 2.39300458341224e-25 4.52865300528183e-07 -5.1731369054859e-24 4.52895311298151e-07)
(5.04531229565826e-07 4.1322445549486e-09 -2.0249581106835e-24 5.04480023077135e-07 4.36329156474242e-26 5.04507562823157e-07)
(5.53898397085244e-07 4.71200324159245e-09 -8.22837002535677e-31 5.53851971636834e-07 -1.79380174227002e-28 5.5387705422894e-07)
(6.01208268861334e-07 5.26927246193003e-09 6.18156971661175e-30 6.01166474605571e-07 -1.54166345733572e-28 6.01189203025249e-07)
(6.46702282224295e-07 5.80369037407757e-09 2.72372867786888e-24 6.46665018311208e-07 -3.90341334590559e-26 6.46685404331492e-07)
(6.90478782968468e-07 6.31340062482888e-09 6.45400354729262e-24 6.90446037865096e-07 -8.19975616461096e-24 6.90464075337161e-07)
(7.32616419395034e-07 6.79707108958078e-09 6.60504193823607e-25 7.32588235046265e-07 -8.57013317845055e-24 7.32603874712728e-07)
(7.73138618756375e-07 7.2529491938263e-09 -3.33649926758779e-24 7.73115076614363e-07 3.60496913191783e-26 7.73128255208068e-07)
(8.12062699419961e-07 7.67953559275709e-09 7.51846928153174e-40 8.12043899457647e-07 -5.39500975465076e-42 8.12054541231062e-07)
(8.49418025159303e-07 8.07563101989861e-09 -3.4967751052503e-30 8.4940407163838e-07 1.88187910488533e-32 8.49412100884445e-07)
(8.85267786769565e-07 8.44062002684986e-09 1.47438039869154e-30 8.85258775019935e-07 -7.60323829586089e-29 8.85264119342482e-07)
(9.19717835356192e-07 8.77456305814301e-09 6.04040421499605e-30 9.19713839013701e-07 5.61111464552189e-29 9.19716436314875e-07)
(9.5218442157646e-07 9.07124071730564e-09 -3.91962329622456e-30 9.52185470243864e-07 2.36569076446593e-29 9.52185282343445e-07)
(9.82092168186048e-07 9.32492887159108e-09 -4.43014872129139e-30 9.82098214129041e-07 -7.94732766304569e-33 9.82095244916065e-07)
(1.0091747151256e-06 9.53340811977808e-09 2.09598707766237e-30 1.00918560978179e-06 -4.12535301177226e-29 1.0091799174297e-06)
(1.03332952505231e-06 9.69661395077608e-09 7.1772192129852e-30 1.03334500367055e-06 4.22816193550547e-29 1.0333367085633e-06)
(1.0545161317442e-06 9.81569888174745e-09 -4.75767858119308e-30 1.05453579792074e-06 -2.56046690445752e-32 1.05452509109678e-06)
(1.07278996729658e-06 9.89335189459176e-09 -0 1.07281328243472e-06 -2.44493672134219e-28 1.07280043100568e-06)
(1.08834301156536e-06 9.93412926874339e-09 -0 1.08836929142037e-06 2.48365239220461e-28 1.08835464096776e-06)
(1.10155556514261e-06 9.94481239646059e-09 -0 1.10158398912935e-06 -0 1.10156795699836e-06)
(1.11305196539056e-06 9.9347301445703e-09 -0 1.11308159942583e-06 -0 1.11306466717524e-06)
(1.12378498512039e-06 9.91614639800666e-09 -0 1.12381485723273e-06 -0 1.12379752389549e-06)
(1.13509049070896e-06 9.90429111401723e-09 4.94966119244552e-29 1.13511966008718e-06 8.87929092224207e-31 1.13510241087403e-06)
(1.14881698584718e-06 9.91775175941387e-09 -2.94801474062445e-29 1.14884490255057e-06 4.53174525119008e-28 1.1488280218451e-06)
(1.16728329963912e-06 9.97568367262368e-09 -7.61327646753469e-24 1.16731054456127e-06 -1.64352279787847e-25 1.16729390807193e-06)
(1.19347654358689e-06 1.00954474237158e-08 -2.13926678659297e-23 1.19350475533275e-06 2.13842669296045e-23 1.19348678707011e-06)
(1.22857224858168e-06 1.02804524878242e-08 -1.15895842853514e-23 1.22860843554401e-06 4.66735381332371e-23 1.22858671214187e-06)
(1.27324652867265e-06 1.04479810648382e-08 1.11369972541325e-23 1.27333571318707e-06 2.56892918691248e-23 1.27329034446265e-06)
(1.29614444916935e-06 1.01237000943576e-08 8.7352669313246e-24 1.29658783985202e-06 2.40787672799164e-25 1.29635898792756e-06)
(1.23629693971547e-06 9.11151780374288e-09 1.74056047709468e-26 1.23785622180456e-06 5.277263033998e-28 1.23708307933405e-06)
(1.22513231688909e-06 8.71144891608262e-09 -2.05312173676555e-27 1.2278170771129e-06 1.39468245452558e-25 1.22648458415729e-06)
(1.25632398673512e-06 8.62808135712886e-09 -8.24613064292139e-24 1.26020946921218e-06 1.02699724534622e-25 1.25828120697273e-06)
(1.30787381875941e-06 8.64430330571434e-09 -1.62977630158413e-23 1.31302445158041e-06 2.3848922991278e-23 1.31046836726342e-06)
(1.3734105535537e-06 8.67054783989983e-09 -6.68409802138587e-25 1.37987242901993e-06 2.76233480109133e-23 1.37666590599645e-06)
(1.44759234925868e-06 8.64395842747633e-09 8.79891960027233e-24 1.45536524977587e-06 9.81813572753316e-25 1.45150895267826e-06)
(1.52785732263755e-06 8.53049868297372e-09 -7.35021043882387e-26 1.53688866531441e-06 -1.49710105084495e-27 1.53240923195487e-06)
(1.61185214481124e-06 8.30551106355825e-09 2.622414465874e-25 1.62202487029782e-06 -9.31479035442967e-25 1.61698118647825e-06)
(1.69827779237616e-06 7.95822907686045e-09 -3.01029912265095e-25 1.70941053722902e-06 9.57089162400855e-25 1.70389331689723e-06)
(1.78583806467042e-06 7.48590018756177e-09 -3.41482933545977e-25 1.7976830660394e-06 9.84015717826885e-25 1.79181595858802e-06)
(1.87571246443843e-06 6.90889187546603e-09 -1.54353484788385e-28 1.88798197302482e-06 -6.39327296131839e-30 1.88190882141839e-06)
(1.97363988002988e-06 6.27470777804619e-09 7.99902040095709e-26 1.98600190953395e-06 3.29264642319543e-27 1.97988799604544e-06)
(2.07904540650156e-06 5.58184884774253e-09 7.62358821944467e-26 2.09107879185636e-06 -2.90639705326722e-25 2.08513330616834e-06)
(2.18575543371376e-06 4.80298534560448e-09 2.65647195802748e-25 2.19695368765979e-06 -7.6121433056299e-25 2.19142789597772e-06)
(2.28869493336889e-06 3.92846483379091e-09 -9.72098519244444e-25 2.29850742873919e-06 2.17283856187643e-24 2.29367390158098e-06)
(2.38316055411845e-06 2.95965854929494e-09 -5.39733254821746e-25 2.39103530863154e-06 1.10546179149325e-24 2.38716707967782e-06)
(2.46414593816582e-06 1.90267056370782e-09 1.5974077112779e-25 2.46956694550149e-06 3.47077018763971e-27 2.46691853951196e-06)
(2.52451159130914e-06 7.75561046433017e-10 -7.81327908293913e-25 2.52705626151901e-06 1.53290161963026e-24 2.5258361146481e-06)
(2.5582522332814e-06 -3.97451757597289e-10 -1.53327007847141e-25 2.55763552239535e-06 -4.44438937865376e-27 2.55798286041398e-06)
(2.55417387370351e-06 -1.54987287027356e-09 -1.39076504964315e-25 2.55036440296992e-06 -4.16693520186822e-27 2.55229460017031e-06)
(2.52579552864511e-06 -2.61948168366529e-09 -3.69874873001623e-23 2.5189572448884e-06 -4.12665826764373e-25 2.52238823448396e-06)
(2.48370084892438e-06 -3.58410822649281e-09 -1.00078119962173e-22 2.47403972500681e-06 1.5902834508108e-22 2.47886936588051e-06)
(2.43485483719204e-06 -4.43551808346981e-09 -2.80215336426286e-23 2.42258291841193e-06 1.55139769551023e-22 2.42870599939192e-06)
(2.38477924891557e-06 -5.18179205677212e-09 2.8738164812635e-23 2.370073949784e-06 2.24759253005692e-24 2.3774023243312e-06)
(2.33800817705866e-06 -5.83940303313188e-09 -7.81974930388695e-25 2.32098980297577e-06 1.46602858126991e-24 2.3294636869397e-06)
(2.29996676365222e-06 -6.44029267382554e-09 -2.01059008288778e-25 2.28065288271717e-06 3.7512218409651e-25 2.29026298175889e-06)
(2.27822848161344e-06 -7.03159632878402e-09 -1.13116933751268e-26 2.25648324448211e-06 -4.87827221387662e-26 2.26729653047521e-06)
(2.29463808054791e-06 -7.74861077450325e-09 -6.04481229352094e-26 2.26989282010243e-06 -4.75207124544427e-28 2.28218894340004e-06)
(2.35319730654964e-06 -8.79504016373152e-09 -6.6434862502203e-25 2.32448307714663e-06 1.34080546658484e-24 2.33873777482931e-06)
(2.42165469013271e-06 -1.0208022196891e-08 9.56262160036251e-25 2.38842960277197e-06 -1.57581527403433e-24 2.40491239828159e-06)
(2.50057244846785e-06 -1.20656681285169e-08 -4.53125587858852e-25 2.4624791716002e-06 8.30188886192336e-25 2.48136578002281e-06)
(2.58933636736857e-06 -1.45027179504928e-08 2.63072876906513e-25 2.54614049394754e-06 -5.45884952661079e-25 2.56754775375444e-06)
(2.69307754099856e-06 -1.77469264622076e-08 1.62281323494797e-25 2.64459807722675e-06 2.77789121491488e-25 2.66861436533599e-06)
(2.79914696163215e-06 -2.19333346202964e-08 3.48891520876331e-26 2.74582866231568e-06 -5.46868816082091e-28 2.77223520734113e-06)
(2.88940563803981e-06 -2.71343427640867e-08 -6.0939862584076e-27 2.83279390102827e-06 1.00660225639281e-28 2.86082346778868e-06)
(2.87847544121107e-06 -3.21918448262743e-08 1.90878113263432e-25 2.82327194876261e-06 -3.77950728443933e-26 2.85060385742087e-06)
(2.63926451867368e-06 -3.41374304201222e-08 4.37965759074897e-27 2.59389123030991e-06 -9.43388198972483e-29 2.61635851344507e-06)
(2.2410084723454e-06 -3.07373003415396e-08 -1.3071525262605e-25 2.21177826990501e-06 -2.32037427704488e-26 2.2262822735886e-06)
(1.84886204099391e-06 -2.40067580451009e-08 -2.69110247905345e-27 1.8335226957385e-06 2.31918403580103e-26 1.84114395821433e-06)
(1.49953581587031e-06 -1.69776614259575e-08 1.27711844589124e-27 1.49280971153087e-06 -1.15856804411243e-26 1.49616145833275e-06)
(1.22550754970837e-06 -1.16708293449192e-08 5.97328798359734e-27 1.2230105994003e-06 -5.31516108164123e-27 1.22425399195272e-06)
(1.00525123043417e-06 -7.68284319648084e-09 -1.38727000597628e-28 1.00468173211938e-06 -7.60722383214129e-28 1.00497177941145e-06)
(9.06669168832587e-07 -5.68852644496455e-09 -0 9.06590598764065e-07 2.54889881832381e-31 9.06628494739208e-07)
(8.90884963507812e-07 -5.34124020254559e-09 -2.09891229054905e-33 8.90890410023212e-07 -2.5280230420068e-31 8.90886752680619e-07)
(2.93566137358679e-05 -1.12404952787699e-06 -1.88468093842272e-28 2.93667803500846e-05 7.96341240830137e-30 2.93619933120319e-05)
(3.08592042559766e-05 -1.20761308750663e-06 -1.50537409715808e-27 3.08821131536539e-05 -5.55499169000423e-29 3.08707181340645e-05)
(2.95977594141835e-05 -1.20451528486057e-06 2.93611729732499e-25 2.96590171952794e-05 4.18061238592816e-26 2.96277667746099e-05)
(2.48628540412838e-05 -9.76578227338136e-07 -9.5091895510981e-25 2.50034218306553e-05 -4.80312239495753e-26 2.49337208465862e-05)
(1.89870051164964e-05 -6.30843574002244e-07 1.15981097553851e-24 1.91566646555189e-05 -2.72989863097767e-26 1.90717121049955e-05)
(1.27010343732045e-05 -2.90471904927931e-07 1.56104321527148e-25 1.28223018982814e-05 3.57326578125356e-27 1.27622261984761e-05)
(7.38994900315324e-06 -7.53865614140814e-08 1.02303399605035e-25 7.426757801085e-06 9.97308555234257e-25 7.40884960413268e-06)
(3.80171855910582e-06 6.01521956627423e-10 -4.32478371602591e-26 3.78886568128941e-06 -8.86651619344989e-28 3.79560817691085e-06)
(1.9740232003302e-06 9.53008648622898e-09 -6.92319722139161e-26 1.95489445872823e-06 -1.86824612024936e-25 1.96459531834902e-06)
(1.37986223890214e-06 7.74652928071983e-09 -1.39689708168499e-29 1.362976700897e-06 -2.61757972083371e-31 1.37150650786909e-06)
(1.1873747165713e-06 6.35427032261951e-09 1.24227266790312e-25 1.17165373769652e-06 2.58765289078567e-25 1.17957611120138e-06)
(1.01766207992714e-06 4.92326693901473e-09 -3.64684651919841e-25 1.00413216695962e-06 -7.10222188856152e-25 1.01094432671786e-06)
(8.2181522750751e-07 3.59034892855046e-09 5.12056170185024e-26 8.11083872635434e-07 2.9332929234673e-28 8.16482277771578e-07)
(6.55954906997934e-07 2.63328766655992e-09 6.82588563086375e-25 6.47592967151871e-07 1.21710266370055e-24 6.51796806710798e-07)
(5.40869970984756e-07 2.05489828027054e-09 -5.54461723607167e-25 5.34116745766074e-07 -7.73071861904078e-25 5.37509735159918e-07)
(4.68416562852164e-07 1.73784245562622e-09 -1.22655986064738e-25 4.62666489424145e-07 -2.90354460797358e-25 4.65553994151324e-07)
(4.26185824871043e-07 1.59457572469302e-09 -3.32344541703647e-26 4.21008370663195e-07 -2.93684866856258e-25 4.23606874880575e-07)
(4.05102455557972e-07 1.55871736259185e-09 -3.15152257225322e-25 4.00180583597805e-07 -4.4763129271406e-25 4.02649999788361e-07)
(3.97196463373902e-07 1.58367956731741e-09 -3.65243886434527e-26 3.923293590711e-07 1.57710817557335e-25 3.94770412602261e-07)
(3.96694498929454e-07 1.64068000408635e-09 4.05880534782059e-25 3.91776284361271e-07 4.97974112384608e-25 3.94242272892328e-07)
(4.02255748084579e-07 1.72660067958274e-09 5.08671536270174e-25 3.9718746759132e-07 9.09978292210352e-25 3.99727954230967e-07)
(4.14931549973313e-07 1.85041189237134e-09 -1.15784414661059e-25 4.09589282490432e-07 3.2260703399747e-27 4.12266272100818e-07)
(4.36697469467958e-07 2.02930077190164e-09 -3.78898623225393e-26 4.30906290741438e-07 -1.12125481798699e-26 4.33807316757721e-07)
(4.70346677486348e-07 2.28954294994228e-09 7.96918135669313e-25 4.6385643324641e-07 1.24838035512288e-24 4.67106604891026e-07)
(5.18715941449382e-07 2.66344508567618e-09 -3.63046475797336e-25 5.11189715585889e-07 -8.70441294737563e-25 5.14958064640459e-07)
(5.84078284030785e-07 3.18378366234235e-09 -3.30809715160163e-23 5.75108515587547e-07 -6.4430891948162e-25 5.79598654710472e-07)
(6.68202379754126e-07 3.90853628785401e-09 -1.79063802606754e-22 6.57310197717245e-07 -2.40770493071553e-22 6.62761831109886e-07)
(7.75407968930621e-07 4.93431277847973e-09 -1.25837293002147e-22 7.61954276298954e-07 -3.0329455948487e-22 7.68687131520257e-07)
(9.10592825349741e-07 6.38530487152839e-09 5.75592674251754e-23 8.93763296188017e-07 -2.14046990262671e-24 9.02184889926544e-07)
(1.07813106529903e-06 8.4191840216126e-09 5.10064560973772e-25 1.05695131709044e-06 7.87780326936799e-25 1.06754941341825e-06)
(1.2820777791553e-06 1.12358363240278e-08 5.40291403749952e-25 1.25545260463028e-06 1.02052141326599e-24 1.26877542266147e-06)
(1.52582162023408e-06 1.50789025558788e-08 1.1593512729481e-26 1.4926196066865e-06 4.65814918575232e-28 1.50923388139818e-06)
(1.81222605080417e-06 2.02398365897534e-08 -1.29342834292747e-25 1.7713848441545e-06 -6.3022867422106e-25 1.79182048940272e-06)
(2.1449538182823e-06 2.71046666724436e-08 -1.05051175127648e-24 2.09550866182057e-06 -2.82231191444416e-24 2.12024680201931e-06)
(2.5320674045086e-06 3.61772003741908e-08 -1.2384843096162e-24 2.47306269962543e-06 -3.45353221716623e-24 2.50258374314142e-06)
(2.98049051327034e-06 4.79155840430262e-08 1.69396601248641e-24 2.91122790377096e-06 8.58875603719907e-24 2.94587930454891e-06)
(3.4871559175586e-06 6.26022466425261e-08 -2.89067926582774e-26 3.4078003233529e-06 -7.11011311267858e-27 3.44750093953008e-06)
(4.04660408995225e-06 8.04029671816104e-08 9.90070591444225e-23 3.95840266320273e-06 -2.29105875065927e-24 4.0025272442745e-06)
(4.65059165968306e-06 1.012873644161e-07 3.29731079906765e-22 4.55610551979453e-06 7.13103449892742e-22 4.60337163399312e-06)
(5.28836217188178e-06 1.25020142077053e-07 8.68989719232309e-23 5.19152652961253e-06 8.68553134568527e-22 5.23996254313404e-06)
(5.94932403648972e-06 1.51279844814118e-07 -1.56590274610521e-22 5.8552517698533e-06 6.56706293726668e-24 5.90228724911783e-06)
(6.62981512981517e-06 1.80002434019353e-07 1.87032412882314e-24 6.54446666823428e-06 -5.69794067235936e-24 6.58713650065253e-06)
(7.34826178833012e-06 2.1209627765556e-07 -1.04162593562089e-24 7.27774638873263e-06 -8.74865004062267e-24 7.31301531061562e-06)
(8.16511581006832e-06 2.52268986434394e-07 -4.53184225489243e-25 8.11256899888305e-06 2.42573128954751e-26 8.13842464476388e-06)
(9.2666426979352e-06 3.12426866987362e-07 -2.63213718738101e-27 9.2332543962638e-06 -4.18981272788361e-25 9.25002759037559e-06)
(1.10470733461444e-05 4.07553180289139e-07 -3.54926045135805e-22 1.10179252416509e-05 8.9278895177442e-24 1.10321617627652e-05)
(1.29047876852004e-05 5.07528456782776e-07 -7.24142781833397e-22 1.28784883291869e-05 -2.73603741542168e-21 1.28913684652013e-05)
(1.46611881501944e-05 6.04503409353855e-07 1.01227222034345e-22 1.46375416495935e-05 -3.18615165898671e-21 1.46490623873896e-05)
(1.63277891687217e-05 6.97401137971093e-07 5.26947924553148e-22 1.63066847886039e-05 -1.13470739487311e-23 1.63169485425303e-05)
(1.79219440609643e-05 7.86420203739763e-07 -8.74809225154986e-27 1.79032260499374e-05 -1.11236504550637e-27 1.79122959361162e-05)
(1.9449567844713e-05 8.7121796212333e-07 2.00734197014785e-27 1.94331500412851e-05 6.20485075298608e-26 1.94410861088809e-05)
(2.0918499816071e-05 9.51793332948971e-07 -7.05599863411668e-22 2.09043044362923e-05 1.00589545524368e-23 2.09111466750086e-05)
(2.23318977768112e-05 1.02794358328991e-06 -1.40810780008636e-21 2.23198922003722e-05 -5.07449667272079e-21 2.23256655153082e-05)
(2.36923148571558e-05 1.09951846216173e-06 1.1178575926028e-22 2.3682484228936e-05 -5.5364614294998e-21 2.36872010759378e-05)
(2.50005091702384e-05 1.1663116720574e-06 8.58590374951465e-22 2.49928555164186e-05 -9.26381297248788e-24 2.49965215466831e-05)
(2.62570481306725e-05 1.22815192606681e-06 -3.14733472223089e-27 2.62515790261586e-05 4.94738176856475e-26 2.62541961518071e-05)
(2.7462886774243e-05 1.28491998528601e-06 -9.00593712310836e-28 2.74596109225655e-05 -2.61037863210273e-26 2.74611800973806e-05)
(2.86200752140488e-05 1.33658941379818e-06 -6.32012926372119e-28 2.86189945585617e-05 5.79440379879694e-27 2.86195188260814e-05)
(2.97321401510568e-05 1.38324708048217e-06 2.04149439505114e-27 2.97332416882689e-05 -6.18042916328112e-27 2.97327317965448e-05)
(3.07772964470276e-05 1.42385896509678e-06 9.27855301812094e-29 3.07805432617431e-05 1.60176820467625e-28 3.07790219660019e-05)
(3.17352928794693e-05 1.45754519345987e-06 -5.32820994608931e-28 3.17406115730231e-05 8.41984133631579e-27 3.17381185794505e-05)
(3.2602439505014e-05 1.48427418668125e-06 -1.21178619086375e-41 3.26097125033833e-05 -1.04564753303804e-27 3.26063083095328e-05)
(3.33756292895636e-05 1.50412313876171e-06 -2.46254533040758e-41 3.3384689555217e-05 -7.78509521651336e-27 3.33804582399376e-05)
(3.40537770512194e-05 1.51734269219192e-06 -5.24915009491938e-27 3.40644030708853e-05 -3.86926654947728e-26 3.40594547850147e-05)
(3.46389022449823e-05 1.52439800285962e-06 2.81862510900536e-28 3.46508158280207e-05 7.79780515618602e-26 3.46452879277679e-05)
(3.51374278481864e-05 1.52600964883644e-06 1.05568557909853e-26 3.51502958389055e-05 -3.91310670058719e-26 3.51443523357759e-05)
(3.55618229906434e-05 1.52319740770772e-06 -5.49116822369602e-27 3.55752652980375e-05 4.31310205288316e-26 3.55690928521692e-05)
(3.59323857861448e-05 1.51731290716387e-06 -0 3.59459924138333e-05 -4.37250371349934e-26 3.59397934047142e-05)
(3.62798472259572e-05 1.51008592575253e-06 -0 3.62932148576625e-05 -0 3.62871883346069e-05)
(3.6647150123696e-05 1.50360488901807e-06 -0 3.66599403935089e-05 9.50590647746549e-26 3.66542550609586e-05)
(3.70931762386214e-05 1.50030707355953e-06 2.6474385325028e-40 3.71052861060088e-05 -1.80086879873853e-25 3.71000007629686e-05)
(3.76907885644527e-05 1.50261680555038e-06 1.973492805083e-21 3.77026104251791e-05 4.26704131502565e-23 3.76975714648477e-05)
(3.85321364246966e-05 1.51288821483595e-06 5.14801450895857e-21 3.85450324970485e-05 1.37260756900243e-20 3.85394064760642e-05)
(3.96517405236661e-05 1.52833358229638e-06 2.18343369411197e-21 3.96709469190988e-05 2.853841692659e-20 3.96625551457421e-05)
(4.10182859809009e-05 1.53830297039626e-06 -3.33470380155478e-21 4.1059547176624e-05 1.49113596917331e-20 4.10410777922078e-05)
(4.1626070967521e-05 1.50383918778091e-06 -2.2879587303266e-21 4.17338758481898e-05 -5.42564329290802e-23 4.16792338531622e-05)
(3.97722961792279e-05 1.38077339712005e-06 -4.91855098269212e-25 4.00398420511147e-05 -1.41204907429903e-26 3.99059650001696e-05)
(3.94312254869027e-05 1.32275518927986e-06 1.37694169066302e-23 3.98601300922088e-05 -5.615930506202e-23 3.96443052126153e-05)
(4.04027146092379e-05 1.30484108433536e-06 2.16401833517143e-21 4.10106211958462e-05 1.33093266800008e-23 4.07045034546342e-05)
(4.20130297806595e-05 1.29698618827351e-06 8.83401172584301e-22 4.28087953160431e-05 1.49773312378858e-20 4.2407882764105e-05)
(4.40632214962629e-05 1.28720396136607e-06 -4.18244619692291e-21 4.50511984392988e-05 1.51219101957206e-20 4.45532453377299e-05)
(4.63883722498458e-05 1.26691889515219e-06 -2.31163536814355e-21 4.75644841456155e-05 -4.93424616944466e-22 4.69714769382179e-05)
(4.89100185675715e-05 1.2317089514251e-06 -1.98169481785261e-23 5.02615481089764e-05 -7.35457952384995e-25 4.95797720547703e-05)
(5.15579945811724e-05 1.17864292630108e-06 -3.30683502373632e-23 5.30622028612031e-05 1.46332293999343e-22 5.23030152654966e-05)
(5.42945388503823e-05 1.10685931864847e-06 1.01274795536871e-22 5.5919040253549e-05 -1.47741471369263e-22 5.50986236526674e-05)
(5.70854732689366e-05 1.01683345819199e-06 -1.25442072438275e-23 5.87882571168543e-05 9.5662581006758e-24 5.79276520794556e-05)
(5.99757779439684e-05 9.11284007549381e-07 4.15587692245733e-23 6.17082189933157e-05 -1.68527362232931e-22 6.08318956613616e-05)
(6.31408447292614e-05 7.96095104677903e-07 -2.21100024448374e-23 6.4847783775763e-05 -1.24880952656118e-24 6.39834282597706e-05)
(6.65568779215149e-05 6.71963783015694e-07 -1.82401726604783e-23 6.81726986631483e-05 2.87353821113026e-23 6.73533535157018e-05)
(7.00317301682552e-05 5.36679667573642e-07 4.57831467836471e-24 7.14812880072985e-05 1.43226394200311e-22 7.074493345868e-05)
(7.34076131881327e-05 3.89952545153615e-07 1.13347258703961e-22 7.46116919237742e-05 -1.64413679164977e-22 7.39984077281779e-05)
(7.65357160603008e-05 2.32645129043154e-07 4.60472022754662e-23 7.74169382354383e-05 -1.79893244303106e-22 7.69659823307899e-05)
(7.92520233330199e-05 6.62171969130868e-08 -2.2980269559835e-23 7.97400640189211e-05 -8.69193215383045e-25 7.9487107584205e-05)
(8.13255832545088e-05 -1.06388924194926e-07 2.39753740204202e-22 8.13649395067882e-05 -4.73850640363373e-22 8.13382835754371e-05)
(8.25573899606298e-05 -2.81138462322566e-07 -4.53666075101919e-26 8.21131591482185e-05 4.69811800694898e-26 8.23305044672957e-05)
(8.26054491959416e-05 -4.48422559440599e-07 3.96007233490105e-23 8.16779079933301e-05 1.01116550583931e-24 8.21394668029853e-05)
(8.18883552476136e-05 -6.0168931886492e-07 1.01896405661152e-20 8.05020322668872e-05 5.51327543393604e-22 8.1195266329808e-05)
(8.07297323839959e-05 -7.38700719373e-07 -2.97577310209651e-20 7.89150864700775e-05 7.03095328884987e-20 7.9824658643526e-05)
(7.93464342914654e-05 -8.58924846761915e-07 -4.66715643649445e-20 7.71342683031012e-05 6.4473854163028e-20 7.8244624082541e-05)
(7.79140754110896e-05 -9.63759091309341e-07 -8.26007160471359e-21 7.53303865128382e-05 -4.63017225127369e-22 7.66284171707867e-05)
(7.65806001101022e-05 -1.05578517227424e-06 -2.10135678858187e-23 7.36431793562867e-05 2.6005894575603e-24 7.51199796463337e-05)
(7.55253375464877e-05 -1.13972414547687e-06 -1.50693766472559e-22 7.22373537495988e-05 1.64404259986679e-22 7.38913972839582e-05)
(7.5005446934558e-05 -1.22318938571847e-06 1.88416554812997e-22 7.13475062702393e-05 -4.17084516789859e-22 7.31888430784128e-05)
(7.57196017820995e-05 -1.32622107094302e-06 -7.12331447332803e-23 7.16117209418485e-05 1.86901973423301e-22 7.36809775637477e-05)
(7.77899495545495e-05 -1.47493523841821e-06 -1.59647412031538e-22 7.31031504565843e-05 1.11688619078245e-22 7.5465912974187e-05)
(8.02057412163159e-05 -1.6761730186728e-06 -1.27732929793182e-22 7.48683629330972e-05 2.98917706087584e-22 7.7561742696196e-05)
(8.29688694596449e-05 -1.94525114042154e-06 -4.19046753586138e-23 7.69290882404946e-05 -2.40124989180877e-23 7.99787369175442e-05)
(8.60494234455319e-05 -2.30121616422752e-06 -1.2626594558843e-22 7.92784660060348e-05 2.27203290615672e-22 8.26991242301684e-05)
(8.95901066649438e-05 -2.77593170913055e-06 -2.98205611892569e-23 8.20715229369261e-05 -3.66941299563911e-23 8.58712689563518e-05)