/*--------------------------------*- C++ -*----------------------------------*\
  =========                 |
  \\      /  F ield         | OpenFOAM: The Open Source CFD Toolbox
   \\    /   O peration     | Website:  https://openfoam.org
    \\  /    A nd           | Version:  7
     \\/     M anipulation  |
\*---------------------------------------------------------------------------*/
FoamFile
{
    version     2.0;
    format      ascii;
    class       volVectorField;
    location    "20000";
    object      U;
}
// * * * * * * * * * * * * * * * * * * * * * * * * * * * * * * * * * * * * * //

dimensions      [0 1 -1 0 0 0 0];

internalField   nonuniform List<vector> 
15600
(
(0.0289005697076061 -1.83725105034735e-05 8.17568425930274e-25)
(0.0308130228223303 -3.61248391125067e-05 -4.61242610286126e-24)
(0.0338216272767015 -0.000426720757203824 2.21780422926898e-21)
(0.03148677447562 -0.00145486439633969 6.47257654529602e-21)
(0.0232059740158841 -0.00217549481485036 -3.27063929505603e-20)
(0.0122349450710382 -0.00197505382765833 1.32105027123493e-22)
(0.000810580507175347 -0.000438979989519063 4.32644075800506e-19)
(-0.00670754939672585 0.0017317540390661 3.15926565758411e-23)
(-0.00896228157694585 0.00310332984823723 6.89002445567235e-19)
(-0.00867213037397208 0.00356586092832988 0)
(-0.00814782392934115 0.00373853723511723 8.10365974428011e-19)
(-0.00739488694344329 0.00366157404901972 -2.05668175232751e-22)
(-0.00667865197977852 0.00348984064240852 1.13175353988059e-22)
(-0.00607473045191827 0.00329118883025738 3.84938396080499e-18)
(-0.00561724862211081 0.00310420983740989 -2.02332616645452e-18)
(-0.00526934481133472 0.00292631322133476 -2.12449073998875e-18)
(-0.0050244326139179 0.00276494335660445 -2.22934908657142e-18)
(-0.00487726280670601 0.00264467913286527 2.865279773458e-22)
(-0.00479452705395758 0.00256299533066725 -2.43279373012783e-18)
(-0.00473120862473333 0.00249735161944445 0)
(-0.0046892201751753 0.00244835479582619 2.62444414537977e-18)
(-0.00466901809772153 0.00241619081252402 6.60433618807116e-22)
(-0.00468130022322333 0.00240611576599723 2.33885053295052e-22)
(-0.00474019178809671 0.00242472330609526 2.89375605908006e-18)
(-0.0048585397351906 0.00247752302344795 1.44999286213398e-21)
(-0.00502017865063404 0.0025533193260184 -3.06301612066601e-18)
(-0.00521737787301739 0.00263474637512568 -8.94922404259542e-16)
(-0.00546906890553968 0.00272313429441067 -9.35232575456708e-16)
(-0.00577730760193011 0.00281507492799871 0)
(-0.00613693843711527 0.002902672134932 1.71496396756328e-18)
(-0.00653811296372929 0.00297507157616767 1.76810663890822e-18)
(-0.00696797435243654 0.00301984768671898 -3.53566668514512e-21)
(-0.00740964111868126 0.00302350616279308 1.86807913074046e-18)
(-0.00786972207603385 0.00298312087517268 0)
(-0.00838320058572324 0.00291386091583299 3.86521819930467e-21)
(-0.00894187214797654 0.00281927429147563 2.52630806353612e-23)
(-0.00951203681029269 0.00268702998225375 -4.02886533448819e-21)
(-0.0100773924745525 0.00251148927389483 -2.11389551206572e-18)
(-0.0106207606157625 0.00228921162276371 2.68716017782443e-16)
(-0.0111301055123365 0.00201986287574351 2.79996707009592e-16)
(-0.0116003781396769 0.00170606064052148 -1.11844385502093e-18)
(-0.0120623925352415 0.00135556806543257 0)
(-0.0125126667969256 0.000966353213912861 -5.70581551522912e-19)
(-0.0129411532730445 0.000539764673213709 2.24893152142458e-21)
(-0.0144333808259973 0.000159471828851587 -7.63587239339226e-20)
(-0.0167584047428881 5.46653825567112e-05 2.24755251594182e-21)
(-0.0184943577450368 4.73550322712718e-05 -3.42125366511858e-16)
(-0.0198860731976103 4.13425827828179e-05 -3.48208178218097e-16)
(-0.0210030515233776 3.71226954165089e-05 2.32097639999183e-21)
(-0.0219209266723596 3.32524729741449e-05 0)
(-0.0226745327417652 2.98980138132546e-05 2.44985854921358e-21)
(-0.023296573708985 2.67246472193546e-05 -2.44764935987637e-21)
(-0.0238066398038628 2.37033104987848e-05 -3.65391427157318e-16)
(-0.0242205567102393 2.07322819502221e-05 -3.74396532923488e-16)
(-0.0245494071286215 1.77871418608925e-05 0)
(-0.0248020159349435 1.48383334144595e-05 0)
(-0.0249851907383717 1.1878754509488e-05 -8.03223784999809e-32)
(-0.0251045533487617 8.90202223769149e-06 3.5714254410226e-22)
(-0.0251648919312428 5.90582326331623e-06 -3.57120841132268e-22)
(-0.0251705373924385 2.89870512999634e-06 0)
(-0.0251256792561371 -1.01990121235055e-07 0)
(-0.025034644070661 -3.07661984759554e-06 3.91342511273495e-22)
(-0.0249020701580612 -6.00308751348133e-06 -3.91408732741876e-22)
(-0.024733095525927 -8.8557435815343e-06 0)
(-0.0245335323534561 -1.16064548819586e-05 0)
(-0.0243100091384147 -1.42242755995501e-05 0)
(-0.0240700328223863 -1.66807426306078e-05 0)
(-0.0238220455808175 -1.89413311185613e-05 0)
(-0.0235750311298064 -2.09970733429717e-05 0)
(-0.0233380633955436 -2.28234083601884e-05 0)
(-0.023119508918959 -2.44583684239424e-05 -3.7829687710539e-21)
(-0.0229213677865573 -2.59619306012867e-05 3.78419361699643e-21)
(-0.0227252937374603 -2.83365357971412e-05 5.65821717450984e-16)
(-0.022549068349631 -2.92212150682325e-05 1.15031774645306e-15)
(-0.0222146338703845 -3.50692206405641e-05 5.84591392042819e-16)
(-0.0210563357415444 -0.00019085305771183 1.32086119027888e-19)
(-0.019754006020437 -0.000783883349168911 0)
(-0.0192081785205521 -0.00140667161115032 -1.09011090465654e-18)
(-0.0188523457390333 -0.00201319616368183 0)
(-0.01857353451273 -0.00260142044973149 5.72792471166471e-16)
(-0.0182852024730778 -0.00316207444382661 5.65662931943155e-16)
(-0.0179408343357276 -0.00368308786978097 -4.49671473910916e-18)
(-0.0175107219721168 -0.00415150822144765 -8.85979947729131e-21)
(-0.0169727053921664 -0.00455264839185741 8.7320825849385e-21)
(-0.0163103139738984 -0.00487176298199027 8.87522692301939e-21)
(-0.0155110531097988 -0.0050935708197439 -8.71783743212891e-21)
(-0.0145828382679513 -0.00520687435566898 0)
(-0.0135234977867334 -0.00517834841946886 0)
(-0.0122894439365924 -0.00497308567237988 -4.45826205549414e-18)
(-0.0108426245522003 -0.00457780831615222 4.44447340716696e-18)
(-0.00916704179005718 -0.00399018708093011 -7.35986324963533e-21)
(-0.00726199535292072 -0.00321701830065242 4.26490716739572e-21)
(-0.0051310037044151 -0.0022713064856089 0)
(-0.00279863374481355 -0.00117834971289881 -8.69599326235539e-18)
(-0.000284973210149569 3.31056492680031e-05 -4.18704742457502e-21)
(0.00232002520224449 0.00130456983650674 0)
(0.00494480006953221 0.00259873732194254 8.35235169911818e-18)
(0.0075878994748182 0.00392287376249036 2.32936977181061e-15)
(0.0102480820267197 0.00528431159290061 2.25674097097256e-15)
(0.0129438656355051 0.00669962662482108 -1.88032706656238e-21)
(0.0157029233717494 0.00819059419842312 -8.11853668481474e-23)
(0.0185810917677735 0.0097928099481298 7.16499776750058e-18)
(0.0216517719934167 0.011552988664512 3.3466845827826e-21)
(0.025118791984319 0.0135796605267442 3.87418897075163e-22)
(0.0293591224419462 0.0159799154670996 6.0307501932812e-18)
(0.0343328933951202 0.0185742986218231 5.56673565590912e-18)
(0.0398915006667622 0.0211628317051469 -2.93515694331522e-22)
(0.0460553559500448 0.0236061016085644 4.4620798085116e-18)
(0.0528940390613879 0.0257471993742184 3.80083190671785e-18)
(0.0603368847122785 0.0273063887971776 4.17141245707141e-22)
(0.0682517563324458 0.0278768114862009 2.25433752209421e-22)
(0.0756745112289627 0.0267847429333081 6.95214381214653e-19)
(0.0806262900850903 0.023250900399501 0)
(0.0781751272021553 0.0168397494328127 1.52052140489761e-19)
(0.0685927927330915 0.0101884985186812 -3.54873736952721e-23)
(0.0566370243004385 0.00525166175316308 1.51019848676196e-22)
(0.0459841677546856 0.0022272420600444 -5.08737986256771e-20)
(0.0356272813737112 0.000498680552220844 0)
(0.028552110364704 1.17155709632035e-05 0)
(0.0278434178546858 -1.85062276031685e-05 0)
(0.0913382606919603 -0.000147527497642075 -1.1966416866932e-24)
(0.0954722518740834 -0.000286745662804542 1.19152050996882e-24)
(0.102274603156498 -0.00130506502342959 3.2396054306791e-21)
(0.0971525208256417 -0.00397013065672278 -9.57297536069347e-21)
(0.0768068239218826 -0.00606774462365318 4.80304666539728e-20)
(0.0468824374382219 -0.00580478997931006 0)
(0.0132186273651591 -0.00183601181370699 -6.53477711681489e-19)
(-0.012025381751719 0.00427170594389639 2.37383044989449e-22)
(-0.0221174954217104 0.00842651548915434 -2.36715769165993e-22)
(-0.023123271380981 0.00998506239818093 0)
(-0.0222563882873906 0.0105952073164888 3.08855939576009e-22)
(-0.0204841198256527 0.010457723530931 -4.77006881400444e-22)
(-0.018701308505615 0.0100368088875317 1.66849519018412e-22)
(-0.0171626176307031 0.00952435039655438 -2.93918940875284e-18)
(-0.0159801991410481 0.00902836961992346 3.09114361301934e-18)
(-0.0150812674356511 0.00854804822838751 3.24566120454908e-18)
(-0.014456973811187 0.0081075008326888 -3.40266194398584e-18)
(-0.0140888601993955 0.0077766805324261 -3.5587908843735e-18)
(-0.0138910799180599 0.00755030858604253 7.420152907027e-18)
(-0.0137518761673359 0.00737023368971644 0)
(-0.0136739209612724 0.00723939927322121 -3.99818607672529e-18)
(-0.0136617252846679 0.00715991502730537 -2.02761723385596e-21)
(-0.0137447658651197 0.00714760765590289 4.27181114872975e-18)
(-0.0139607188851218 0.00722099872265218 1.6201557557544e-23)
(-0.0143391898308861 0.00739273136147669 -4.52166737084383e-18)
(-0.0148426620177574 0.00763156482786228 2.72300597902919e-21)
(-0.015455880775736 0.00789026460743125 1.36219342601818e-15)
(-0.0162241102728328 0.00816939930530253 1.39885590166744e-15)
(-0.0171525157539784 0.00845684635702175 0)
(-0.018226551407255 0.00872841111244363 0)
(-0.0194196203843678 0.00895181007326795 -2.63608883889352e-18)
(-0.0206979214329161 0.00909073145390735 5.2961213105974e-21)
(-0.0220248320705276 0.00910925973903082 -2.77601323769911e-18)
(-0.02342073044702 0.00900122924183367 0)
(-0.0249587261584687 0.00880312056580399 -2.89530990100156e-18)
(-0.0266113631911512 0.00852069061833486 2.94862726170438e-18)
(-0.0282948648659716 0.00812110499964952 5.87173262559395e-21)
(-0.0299642978890325 0.00758934289720252 3.07356515085808e-18)
(-0.0315768626309138 0.00691689557934689 -3.94799472091417e-16)
(-0.0331060774653524 0.0061048125866169 -3.9966178569548e-16)
(-0.0345526436996881 0.00516432300835922 3.18934376735702e-18)
(-0.0359881751401436 0.00411620453042524 -1.61300016222879e-18)
(-0.0374545318347561 0.00296504766035498 -8.18450028198574e-19)
(-0.0392728790189859 0.00178060846893742 3.15304756461558e-21)
(-0.0434411184879196 0.000777398941801587 -1.73069669582875e-23)
(-0.0491281403138671 0.000459694405453234 3.11523445594094e-21)
(-0.0533978946383704 0.00035920831306687 4.73966993422599e-16)
(-0.0567902789893693 0.000285823752543988 4.75062331624809e-16)
(-0.0594880611365197 0.000232280749793587 -3.22726179241296e-21)
(-0.0616768920310309 0.00019015307917122 3.21300176520877e-21)
(-0.0634487781719396 0.000156529319829956 -9.58775571310873e-32)
(-0.0648843056985235 0.000128658876348713 1.69482760899018e-21)
(-0.0660334464730832 0.000105004563153806 4.96042093773889e-16)
(-0.0669358277207686 8.43959475214333e-05 5.04692254676033e-16)
(-0.067619768526067 6.61087840705858e-05 -1.76114583021999e-21)
(-0.0681078251826067 4.96171804468704e-05 0)
(-0.0684177056904134 3.4570456685906e-05 1.08356610605128e-31)
(-0.0685642628770834 2.07138218245019e-05 4.81713822565356e-22)
(-0.0685604609431941 7.88329276823681e-06 -2.3520676672722e-22)
(-0.0684181697072592 -3.98543115757998e-06 -2.46425657753895e-22)
(-0.0681489378040588 -1.48917294470085e-05 0)
(-0.0677647373317212 -2.47893634002368e-05 0)
(-0.0672782579644739 -3.35945214080781e-05 0)
(-0.0667033511231459 -4.11805427355853e-05 0)
(-0.0660553796557314 -4.73861011990448e-05 2.26113869432751e-21)
(-0.06535144509692 -5.20214527097264e-05 -2.26411716402406e-21)
(-0.0646104100839081 -5.48948116440649e-05 0)
(-0.0638526913172005 -5.58162625916505e-05 0)
(-0.0630991526746774 -5.47341743137531e-05 0)
(-0.0623694541855613 -5.17106526875101e-05 0)
(-0.0616780918230723 -4.75233103545155e-05 0)
(-0.0610209457152379 -4.3770678191192e-05 0)
(-0.0603591364002681 -4.52932108385555e-05 -7.67503246556955e-16)
(-0.0596383217001602 -5.73935815842846e-05 -1.56979330744998e-15)
(-0.0583611473079301 -0.000139895425909732 -8.03050625579072e-16)
(-0.0555721124509395 -0.000675388687351926 -1.80657430608415e-19)
(-0.0526833058060941 -0.00228761611971493 0)
(-0.0512739612389878 -0.00396071746080078 7.43846333045263e-23)
(-0.0502252367458741 -0.00562387426498257 -3.05472087728844e-18)
(-0.0492898921298041 -0.00723713866590574 -7.86607040097977e-16)
(-0.0482746858993913 -0.00876845600641535 -7.97750394201624e-16)
(-0.0470746172891008 -0.0101795366262802 -1.33620913787335e-20)
(-0.045622803023976 -0.0114329041165212 0)
(-0.0438700588191254 -0.0124874867346308 6.34776529297896e-18)
(-0.041781332473778 -0.0133030838333921 -6.37771095148549e-18)
(-0.0393346708458367 -0.0138384052603511 -6.40431348740582e-18)
(-0.0365403772029298 -0.0140580853800009 0)
(-0.0333839094416858 -0.0138725835013777 0)
(-0.0297773172500899 -0.0131982711807812 6.47246438717681e-18)
(-0.0256485453242331 -0.0120075021873515 -1.25527756610338e-20)
(-0.0209702381148788 -0.010298796554372 -1.30066437290987e-17)
(-0.0157456836029703 -0.00809378263396317 -6.53186004078598e-18)
(-0.00998745278797153 -0.00543033604445587 1.27711801878949e-20)
(-0.00375318145730831 -0.00237688778181918 -6.35758477484574e-21)
(0.002907440185415 0.000990263292515607 0)
(0.00978548561169087 0.00452371284255762 0)
(0.0167294646887382 0.00813181360545433 -1.24125986752267e-17)
(0.0237353521863764 0.0118335892441068 -3.42751573508974e-15)
(0.0308026279078665 0.0156497683180598 -3.35104913463075e-15)
(0.0379741587128192 0.0196239605212857 -1.1331023644828e-17)
(0.0453164274624983 0.0238140964109855 -1.09042735078567e-17)
(0.052960899169779 0.0283130475112264 -1.04285798078608e-17)
(0.0610878060477254 0.0332420431019235 1.13888470050906e-20)
(0.0701696187918619 0.0388670123754083 0)
(0.0810583085748898 0.0454361105943795 -1.73581581660978e-17)
(0.093772780544242 0.0525026288279253 7.95057340114605e-18)
(0.108058243928669 0.0595459908874786 -7.16059374982923e-18)
(0.123940129210949 0.0661648203802421 0)
(0.141590945177701 0.0719192946914256 -5.35987517810433e-18)
(0.160884538520089 0.0760624166622043 0)
(0.181552463092924 0.0775206385029522 0)
(0.20154354821106 0.0746203549290269 -1.18576718116975e-20)
(0.216562873862641 0.0654636175353191 0)
(0.215688271247542 0.0488417797433438 -2.09912756964202e-19)
(0.197177253944444 0.030906316407428 -2.52627370932189e-19)
(0.169556098887643 0.0168340088476921 1.53859251701703e-19)
(0.142282106257668 0.00776719589621701 1.43835991490399e-19)
(0.114877967665884 0.00234461991426067 1.50491909873598e-20)
(0.0949215230880894 0.000402353093672481 -5.578683784113e-24)
(0.0900961620272551 -2.15464338492951e-05 5.63076030832117e-24)
(0.159819441943632 -0.000297225884983297 0)
(0.164516022572807 -0.000668167951473647 0)
(0.172976050152488 -0.0022269609932227 -3.15470012929964e-21)
(0.16632319278753 -0.00623782079970278 1.87822010506587e-20)
(0.137974653384772 -0.00983201114866103 -4.64122674669012e-20)
(0.0923443997597727 -0.0101443550953475 0)
(0.0371715375815476 -0.00472460494385114 0)
(-0.00869138423856238 0.00487224004258229 0)
(-0.0304241902913699 0.012123886983923 1.06948298878152e-18)
(-0.034853796065843 0.0151368486177669 0)
(-0.0344670113773327 0.0163505263162735 -3.16336322465069e-22)
(-0.0321768009081798 0.0163207253847195 2.69096033946971e-18)
(-0.0296812083179705 0.0158182666494477 1.76827304859724e-22)
(-0.0274603382467328 0.0151397182872676 -3.01026659552258e-18)
(-0.0257233206081199 0.0144498430772918 3.16789083222039e-18)
(-0.0243973020474312 0.0137617294630524 1.04287280636215e-22)
(-0.0234846960367282 0.0131203903994082 1.45703243591231e-21)
(-0.022956342875335 0.0126360568893793 3.65047150533471e-18)
(-0.0226865584240214 0.0123035315657681 -3.80219255787718e-18)
(-0.0225148517998951 0.0120436385939798 -3.94780177541491e-18)
(-0.0224429215376996 0.0118637291211703 -4.08970222292001e-18)
(-0.0224816680436039 0.0117704819799607 -2.07268629476314e-21)
(-0.0226772731655954 0.0117902042911402 2.11840636748929e-21)
(-0.0230869193796381 0.0119508806782364 -4.47884195782561e-18)
(-0.0237501932019154 0.0122665730648125 4.59721065522709e-18)
(-0.0246163883693613 0.0126892290212756 4.71344993910031e-18)
(-0.0256683428851906 0.0131482183778073 0)
(-0.0269689083570603 0.0136385832985899 2.47016986641505e-18)
(-0.0285251457154008 0.0141369638463923 0)
(-0.0303136323565485 0.0146022106826785 -5.06297545791134e-21)
(-0.0322932686492135 0.0149814754820629 5.14317340946674e-21)
(-0.0344137760380145 0.0152173324817595 -5.28731172253518e-21)
(-0.0366295439312276 0.0152584272759793 2.75461121690935e-18)
(-0.0389730950381805 0.0150968196394831 2.81402767942738e-18)
(-0.0415306060787818 0.014777746055813 2.85256245604949e-18)
(-0.0442526810275853 0.0143048289688011 -5.79834448087927e-18)
(-0.0470192043065307 0.0136312925118062 0)
(-0.0497617030876707 0.0127360454538289 -2.97773343969752e-18)
(-0.0524208919259993 0.0116089765573611 0)
(-0.0549661839317294 0.0102556765988983 1.52472543586366e-18)
(-0.0574138274539283 0.00869785550978816 -1.54244947600863e-18)
(-0.0598717382512031 0.00697099149512735 1.55007422289709e-18)
(-0.0624984770010408 0.0051120086420658 1.5340001313827e-18)
(-0.0659713844440842 0.00326023160545641 0)
(-0.0722827287944436 0.00171687527230249 0)
(-0.0800847046115488 0.00116562353869202 0)
(-0.085937137891408 0.000907440053605436 0)
(-0.0905329888316258 0.000718134247966638 -2.92604143334006e-21)
(-0.0941417630116169 0.000578316833720364 2.90110378776553e-21)
(-0.0970213610203105 0.000468815434839155 0)
(-0.0993060956661795 0.000380974149356674 -3.02821906358325e-21)
(-0.101108192581522 0.000308070333528107 3.01213604359921e-21)
(-0.102499135533515 0.000245992099249715 1.56493414121917e-21)
(-0.103535022641701 0.000191838028991775 -1.55899337714709e-21)
(-0.104256663736605 0.000143733539310371 1.62570370027209e-21)
(-0.104696673407261 0.000100354623281734 -3.28081144544551e-21)
(-0.104881042791653 6.07851493577009e-05 1.6559441235881e-21)
(-0.104831832903594 2.44036085904148e-05 0)
(-0.10456865500817 -9.1044683974852e-06 0)
(-0.104110084525967 -3.98725329346561e-05 0)
(-0.103474359091372 -6.79151796939243e-05 -4.61753130531354e-22)
(-0.102679822634506 -9.31164597888158e-05 4.61543254658168e-22)
(-0.101745717497435 -0.000115259934161937 0)
(-0.100692670335774 -0.000134032728784293 1.97444584184101e-21)
(-0.0995430366184002 -0.000149052003210609 -3.99556197985287e-21)
(-0.0983210223744291 -0.000159892489808352 2.0219130721098e-21)
(-0.0970524651808684 -0.000166161104428864 -2.11164035219147e-21)
(-0.0957641347482899 -0.000167548411462043 2.11554057485364e-21)
(-0.0944818399138099 -0.000164147292558254 0)
(-0.0932273312650018 -0.000156612886089032 -4.50896958777792e-21)
(-0.0920114449246695 -0.000147466329498471 4.51697632748775e-21)
(-0.0908174430126845 -0.000141498714359563 -4.69928671815866e-21)
(-0.0895779151207476 -0.000154548597308454 -8.87717906233291e-23)
(-0.0881420457509921 -0.000211744621454959 4.79280384652224e-21)
(-0.0859079964203639 -0.000419965821819404 0)
(-0.0821492284645201 -0.00130294724673499 -1.60775554965038e-19)
(-0.0784804204649808 -0.00363525964806387 0)
(-0.0763838634247295 -0.00606325248547525 1.36483523657425e-18)
(-0.0746360073267401 -0.0085049180375913 2.73602239422863e-18)
(-0.0729432428104464 -0.0108622414988827 0)
(-0.0710692961145893 -0.0130790176646808 2.81034913436496e-18)
(-0.0688852999261812 -0.015092509975281 1.12806709854776e-17)
(-0.0663087585667333 -0.0168459912145017 -1.10044997500515e-20)
(-0.0632799246239345 -0.0182790982730514 -5.72574717199507e-18)
(-0.0597568958150945 -0.0193343107884266 5.76132926386525e-18)
(-0.0557150350122378 -0.0199524582684698 -1.99390032986779e-21)
(-0.051154867793227 -0.02007701677242 5.81277608264199e-18)
(-0.0460425121634294 -0.0195818056403698 1.13436483415759e-20)
(-0.04027558026793 -0.0183630787868059 -5.89555474935793e-18)
(-0.0337768219171089 -0.0163947360696545 0)
(-0.0265179987254261 -0.0136832849656558 5.975592157737e-18)
(-0.0185067047866633 -0.0102654081250485 6.01631214523421e-18)
(-0.00976120235186871 -0.00619979708839914 -8.1799651758722e-23)
(-0.000357010081466819 -0.00158372604668643 6.08408248145861e-18)
(0.00963740801715694 0.00347552985508081 -5.87674079328887e-21)
(0.0199478487154917 0.00878693036599825 5.70283955965934e-21)
(0.030388232734259 0.0142342746539611 0)
(0.0409520771879631 0.0198439565627336 0)
(0.0516425619988768 0.0256472672695399 -1.08601523580123e-17)
(0.0625175996395456 0.0317046396641175 1.05222874883725e-17)
(0.0736694306430163 0.0380971845094636 2.46192821300147e-21)
(0.0852770048317746 0.0449510436678823 5.87788749373223e-21)
(0.0975940368124905 0.0524297436584409 1.84996185522613e-17)
(0.111251475303101 0.0608669720533063 -8.69873840513622e-18)
(0.127364157312246 0.0705380330925634 1.66204277582503e-20)
(0.146069732637554 0.0808519574214507 -7.41432552822569e-18)
(0.167114756816269 0.0910955138009753 2.18295368828495e-20)
(0.190505650978239 0.100656110282997 -5.81661370390544e-18)
(0.216453730200186 0.108861646058893 4.91019162265437e-18)
(0.244797407266314 0.114642629753061 0)
(0.275189795748338 0.116472882695689 -1.42794076583681e-18)
(0.305107551599221 0.1121637383024 -8.73753485884269e-19)
(0.329310695969309 0.0993015076226667 0)
(0.334227370161838 0.0762615424369055 0)
(0.315332011990425 0.0505350519790556 3.84521968117286e-21)
(0.280589220513893 0.0291388011036678 -1.4241892309612e-19)
(0.242409298382424 0.0144613344213409 -6.69904747399159e-20)
(0.202223157283697 0.00518296900662438 -1.43116349961211e-20)
(0.171228927730199 0.00132973684778156 5.49320472562151e-23)
(0.160350216644325 0.000155702558194095 -1.0876986660987e-23)
(0.233007656825709 -0.000365986703623148 0)
(0.236549321305673 -0.00108719217268248 1.0004145804783e-23)
(0.244716264825749 -0.0031468304586583 7.43032808150974e-26)
(0.237213376732365 -0.00828374249126489 -8.78136900917272e-21)
(0.204638265057724 -0.013344905948937 0)
(0.147642632560087 -0.0147241320829653 0)
(0.0731496690384 -0.00881518066837782 0)
(0.00467185322876741 0.00363285595503704 0)
(-0.0328688093125417 0.0142232948059411 -1.08474623730243e-18)
(-0.0432889969572944 0.0190089422300263 1.19684199971827e-18)
(-0.0444222737186344 0.0209911119336027 1.29084920940029e-18)
(-0.0422070866943378 0.0212369905167863 -2.75053333536319e-18)
(-0.0394097807413927 0.0208215877675148 0)
(-0.0368005763137198 0.0201250697862856 3.0800242078955e-18)
(-0.0347099188530905 0.0193582071269272 -3.24310164611275e-18)
(-0.0331023089600045 0.0185580641855715 3.40548361165088e-18)
(-0.0320073892260387 0.0177943150423342 1.27061497387703e-21)
(-0.0313907557311313 0.0172136078961999 4.52366310975711e-22)
(-0.0311006223331113 0.0168147160463854 0)
(-0.0309457481671401 0.0165099368454304 4.03087900996328e-18)
(-0.0309265789433181 0.016313723669913 8.34122148682736e-18)
(-0.0310623599217933 0.0162395913185636 0)
(-0.0314137093213515 0.0163240133344077 0)
(-0.0320527853757183 0.0166017866616502 2.27441738752499e-18)
(-0.0330237862296544 0.017084111733321 0)
(-0.0342698931785761 0.0177093460318187 0)
(-0.0357763952384231 0.0183880102084986 0)
(-0.0376156587930324 0.0191056217303974 -4.95752869600181e-18)
(-0.0397947302324102 0.0198252330984848 -2.52541948369205e-18)
(-0.042281579857894 0.0204882793830757 0)
(-0.0450228511457354 0.02102259877431 0)
(-0.0479566107661216 0.0213530695543494 2.65530373614681e-18)
(-0.0510351086813642 0.0214180861356198 -2.69427708642863e-18)
(-0.0542961870281008 0.0212064299346978 -2.72805384755886e-18)
(-0.0578177321652581 0.0207626425494156 0)
(-0.0615269727978459 0.0200870585387738 2.77558823925754e-18)
(-0.0652795744140203 0.0191253126348904 5.46961819901728e-21)
(-0.068990194798512 0.0178548178974953 -4.46017699492988e-21)
(-0.0725926549691519 0.0162683061385867 0)
(-0.0760615873290349 0.0143796639258184 -1.40118284608466e-18)
(-0.0794343957977487 0.0122237841894766 -5.47275640572073e-21)
(-0.0828598525282088 0.0098578740285471 0)
(-0.0866124836032415 0.00736384829871397 -1.39668000343178e-18)
(-0.091490358783272 0.00492331252295801 5.32863350676154e-21)
(-0.0990038780324268 0.00288396601488519 0)
(-0.107536628952091 0.00207383858857524 2.54539375403205e-21)
(-0.113848882142556 0.00160510349869832 -2.49365897184103e-21)
(-0.118708188481084 0.00126079717855668 0)
(-0.122430872441792 0.00100452911670794 0)
(-0.125310646483938 0.000803894403243511 0)
(-0.127505082129104 0.000642172577069901 -2.5525556051082e-21)
(-0.129141911726754 0.000507537590700744 -4.99109282303054e-16)
(-0.130304283113113 0.000392473759015367 -5.06477577913684e-16)
(-0.131057220233512 0.000291869257292361 0)
(-0.131448852327912 0.000202347006934168 0)
(-0.131517854874175 0.000121533737168787 1.36010539722767e-21)
(-0.131295375680358 4.78113500825338e-05 -1.35106846543341e-21)
(-0.130807956923464 -1.96785709724249e-05 7.026611854221e-22)
(-0.1300820739787 -8.14469834638891e-05 -6.98029036571329e-22)
(-0.129141219630364 -0.000137842855965096 0)
(-0.128007783273486 -0.000188886736399385 0)
(-0.126704216991651 -0.000234391996105733 0)
(-0.125253632457929 -0.000273996512947188 0)
(-0.123680196129383 -0.000307197036621233 0)
(-0.122009308883398 -0.000333406589071013 0)
(-0.120267477749268 -0.000352022345839792 0)
(-0.118481722757696 -0.000362577350804769 0)
(-0.116678343598795 -0.000364881549467511 6.62369528904799e-16)
(-0.114880281427852 -0.000359589775306523 6.73862283013436e-16)
(-0.113103013065921 -0.000348651526376166 0)
(-0.11134624674206 -0.000337478034040651 0)
(-0.109577300682501 -0.000336069880274332 3.68369964807732e-21)
(-0.107705703899953 -0.000374818593847071 -3.67595783698633e-21)
(-0.10555811059266 -0.000498782079273422 0)
(-0.102640661799066 -0.000833797134543942 0)
(-0.09855105484282 -0.00194175786950746 1.24345113756188e-19)
(-0.0947217470241895 -0.0046655803464566 5.15120523453105e-19)
(-0.0920997470931779 -0.00752358923730374 -1.05385280475362e-18)
(-0.0896701842178885 -0.0104197476387099 -2.13270344533489e-18)
(-0.087180177385657 -0.0131960380443639 0)
(-0.0844094011502917 -0.0157771851110973 2.15687718932224e-18)
(-0.0812384853829568 -0.0180828198749556 -8.78920795065749e-21)
(-0.0775889208572549 -0.0200453310229114 8.40925195346927e-21)
(-0.0734039521330005 -0.0215943859458898 -4.35230796906956e-18)
(-0.0686418684674862 -0.0226640675170842 -4.35861095824729e-18)
(-0.0632756768816421 -0.023185344754556 4.38513983613781e-18)
(-0.0572881191091256 -0.0230880308326491 -4.42172836719889e-18)
(-0.0506261669503211 -0.022229781313435 8.56727491669757e-21)
(-0.0431957552794483 -0.0205075290017413 8.88835779065517e-18)
(-0.0349319869082644 -0.0179045690366707 0)
(-0.0258086396008132 -0.0144359619546563 -8.85671927180862e-21)
(-0.0158330366979502 -0.0101485650495034 8.78763600826394e-21)
(-0.00502072072980979 -0.00511237852298322 4.49611982743494e-21)
(0.00655409762202994 0.000565236133615956 -9.12125695750651e-18)
(0.0188209812967413 0.00676556811085899 -4.16153047568644e-23)
(0.0315027251060836 0.0132965832929076 8.64813176154252e-21)
(0.0444155379647984 0.0200429695196455 -4.26001371710468e-21)
(0.0575529861188053 0.0270352605848197 0)
(0.070923075701722 0.034311954859522 1.69633668011434e-17)
(0.0845897832461739 0.0419416577005138 0)
(0.0986567074978021 0.0500165692605584 -1.96688133963925e-21)
(0.113320486401848 0.0586747034131252 7.85832950215931e-18)
(0.128867589091644 0.0680908105087295 -1.05521659059736e-20)
(0.14597018149334 0.0785874409634763 1.28631415233367e-20)
(0.16581564599008 0.090379486177755 6.68675668017956e-18)
(0.188682686598322 0.102813974598607 2.82821869675229e-22)
(0.214388870284815 0.115087050299977 5.54579276612491e-18)
(0.242932821809963 0.126442906050357 4.86940991912572e-18)
(0.274510822951319 0.136029023255008 -4.11681234189328e-18)
(0.308931816298396 0.142569341106368 1.63568100640531e-18)
(0.345813986615786 0.144268362700732 6.19957705403435e-21)
(0.382631240484597 0.138789247544504 1.21477428153054e-22)
(0.41430345726845 0.123706594711552 -1.23634378334958e-22)
(0.427290417363653 0.0973737262549661 0)
(0.414678649411481 0.0672726536775792 3.94274659134023e-19)
(0.381494774669863 0.0409391695327288 -1.21833120017878e-19)
(0.339876287244381 0.0217316588870446 -5.26318980315037e-23)
(0.292858652200763 0.00881486888003747 5.46992130820827e-23)
(0.254156060663345 0.00283642420333161 0)
(0.236885187087953 0.000633808391535767 0)
(0.305335684938315 -0.000235737611353629 0)
(0.306272081055783 -0.00141515998078334 0)
(0.312705117342979 -0.00396746426276946 9.00692493027191e-24)
(0.305031683773118 -0.0100362017563366 -9.00609180212472e-24)
(0.271971313738412 -0.0164123562751326 3.92571737792669e-20)
(0.209393306946103 -0.0191892273771192 -1.55179385311784e-19)
(0.120193129322217 -0.0137623766296146 2.66820719708495e-22)
(0.0292185168473423 0.00059054550037386 -1.77144087717661e-22)
(-0.0281370557728086 0.0146127029521011 -1.07392968582379e-18)
(-0.0476797659457687 0.0214966745573313 -1.20502397890429e-18)
(-0.0516903118130302 0.0244317355016371 -1.30884096273809e-18)
(-0.0502713367711737 0.0251357117168106 1.39084012272339e-18)
(-0.0476560147642792 0.0249878780482967 -2.95394657406074e-18)
(-0.0450017404438661 0.0244304186851769 -3.12501597974832e-18)
(-0.0427937900886648 0.0237110377907696 3.29527480097613e-18)
(-0.0410730910816088 0.0228997035913784 -1.95849397155721e-21)
(-0.0399159320152547 0.0220942746057176 3.63847903286663e-18)
(-0.0392925335126723 0.0214758827517862 9.32167501024464e-22)
(-0.0390407683963672 0.0210525010190307 -9.56522090976661e-22)
(-0.0389556888571393 0.0207388217594936 -4.08442912186528e-18)
(-0.0390376237367181 0.0205592116634576 -4.22325740307636e-18)
(-0.0393153914492948 0.0205357600904337 -4.34632727074674e-18)
(-0.0398613148815338 0.0207142773070947 2.23056627178399e-18)
(-0.0407576513510015 0.0211334826340412 2.28800688307279e-18)