/*--------------------------------*- C++ -*----------------------------------*\
  =========                 |
  \\      /  F ield         | OpenFOAM: The Open Source CFD Toolbox
   \\    /   O peration     | Website:  https://openfoam.org
    \\  /    A nd           | Version:  7
     \\/     M anipulation  |
\*---------------------------------------------------------------------------*/
FoamFile
{
    version     2.0;
    format      ascii;
    class       volScalarField;
    location    "20000";
    object      walldist;
}
// * * * * * * * * * * * * * * * * * * * * * * * * * * * * * * * * * * * * * //

dimensions      [0 1 0 0 0 0 0];

internalField   nonuniform List<scalar> 
15600
(
0.00195549917932825
0.00195549917932802
0.00195596017547909
0.00195697499647672
0.00195853612532896
0.00195819050066461
0.0019534101729224
0.00194437980168162
0.00194102646299392
0.00194775651888127
0.00196541193339215
0.00199384132191522
0.00203189654018971
0.00207882252285864
0.0021341409992203
0.00219740930158871
0.00226789883985994
0.00234051616846671
0.00241153668476088
0.00248090467951724
0.00254866552848997
0.00261487064205008
0.00267957639529042
0.00274284285484692
0.0028047321132298
0.00286585091659207
0.00292925919228764
0.00299585031015369
0.00306537801971651
0.00313754656861592
0.00321198375145919
0.00328820821391706
0.00336558285378344
0.00344322269608016
0.00351866735267931
0.0035892879702049
0.00365439483662676
0.00371341071586646
0.00376575733048854
0.00381086475206289
0.00384819116347555
0.00387723773634077
0.00389757033405393
0.00390883464760287
0.00391118455400223
0.00391099835865907
0.0039109983586591
0.00391099835865908
0.00391099835865903
0.00391099835865911
0.00391099835865916
0.00391099835865909
0.00391099835865913
0.00391099835865919
0.00391099835865909
0.00391099835865919
0.00391099835865913
0.00391099835865898
0.00391099835865922
0.00391099835865898
0.00391099835865904
0.00391099835865911
0.00391099835865897
0.00391099835865914
0.00391099835865924
0.00391099835865915
0.00391099835865921
0.00391099835865921
0.00391099835865906
0.00391099835865922
0.00391099835865907
0.00391099835865913
0.00391099835865895
0.00391099835865913
0.00391099835865917
0.00391118641508886
0.00390879190568434
0.00389746939046501
0.00387708047754899
0.00384798009433901
0.00381060285948407
0.00376544776390786
0.00371305706295736
0.00365400059602839
0.00358885689659883
0.00351820288492456
0.00344273226852694
0.00336508881689054
0.00328771766996091
0.0032115017974534
0.00313707672134984
0.00306492298581248
0.00299541216464611
0.00292883945191552
0.00286545127400624
0.0028043357021952
0.00274243808462828
0.00267916283753485
0.00261444788606271
0.00254823318389065
0.00248046238376744
0.00241108418998891
0.00234005314162454
0.00226742956119223
0.00219697513129228
0.00213375449354085
0.00207848651705017
0.00203161413485734
0.0019936158080647
0.00196525094320354
0.00194766488127109
0.00194100221094725
0.0019444150635343
0.00195344871120752
0.00195819701631415
0.0019585260302881
0.00195696189770324
0.00195595516666479
0.00195549917932825
0.00195549917932802
0.00593827156597858
0.00593834800611929
0.00594084951946826
0.00595236043919977
0.00597894968836805
0.00602387730232119
0.00609065949063536
0.00618217744672321
0.00630061178644858
0.00644295448085933
0.00660492828068063
0.00678256698860586
0.00697215692512027
0.00717062857522992
0.0073752642023219
0.00758348417170191
0.0077927263532079
0.00800008202746397
0.00820434407395788
0.00840578631122112
0.00860472475584452
0.00880148214976185
0.00899639000233067
0.00918978579691087
0.00938201160951971
0.00957342884104102
0.00976428954583402
0.00995386156243042
0.0101410516183027
0.0103247109869711
0.0105036204711249
0.0106764701029072
0.0108418422468857
0.0109981910312733
0.0111438989058528
0.0112778652420099
0.011399567867635
0.011508512674519
0.0116042401723667
0.0116863061640143
0.0117543069115539
0.0118078756330685
0.0118467011247292
0.0118705286164106
0.0118797261939479
0.0118805412596075
0.0118800063432046
0.011879509613549
0.0118790510754311
0.0118786307332736
0.0118782485911317
0.0118779046526921
0.0118775989212737
0.011877331399827
0.0118771020909337
0.0118769109968074
0.0118767581192926
0.0118766434598651
0.0118765670196319
0.0118765287993307
0.0118765287993307
0.0118765670196318
0.011876643459865
0.0118767581192927
0.0118769109968075
0.0118771020909338
0.0118773313998271
0.0118775989212738
0.0118779046526923
0.0118782485911316
0.0118786307332735
0.0118790510754309
0.011879509613549
0.0118800063432047
0.0118805412596072
0.0118796981995164
0.01187042432533
0.0118465036289201
0.0118075862235842
0.0117539274279203
0.0116858388855296
0.0116036871844941
0.0115078769275938
0.0113988518271809
0.0112770724385498
0.0111430318574766
0.0109972534413793
0.0108408448444628
0.010675421981437
0.0105025304056599
0.01032358755638
0.0101399027641927
0.00995269529755857
0.00976311211956048
0.00957224677899118
0.00938082598214408
0.00918859416559532
0.00899519022537952
0.00880027211332494
0.008603502383507
0.00840454957316119
0.00820309195375796
0.00799881195788507
0.00779143794327541
0.00758219338369039
0.0073739877936819
0.00716938234508687
0.00697095735306552
0.0067814317502935
0.00660387896320358
0.00644201545994327
0.00629980475227187
0.00618153244255597
0.00609017658656307
0.00602353844886043
0.00597873546597119
0.00595224641247721
0.00594081432264181
0.0059383480061193
0.00593827156597824
0.0100669411184147
0.0100670707046737
0.0100713746533073
0.0100915500589696
0.0101384540493096
0.0102185497773128
0.010338724691015
0.0105038971588313
0.0107149874797519
0.0109652529809342
0.0112468462946188
0.0115528532328147
0.0118771672951414
0.0122147665589858
0.0125612092033873
0.0129122992616523
0.0132639228229142
0.0136121182834517
0.0139554602258783
0.0142943842550397
0.0146293879910922
0.0149609865782003
0.0152897139414117
0.015616117814587
0.0159407569127648
0.0162641594604612
0.0165863870009848
0.0169061037095732
0.017221487049618
0.017530621075872
0.0178314711324637
0.0181218505880251
0.0183993977867017
0.0186615350351901
0.0189056967981022
0.0191301984739314
0.0193341616482672
0.0195167571399929
0.0196772092648478
0.019814774248008
0.0199287748401735
0.0200185992071733
0.0200837285101385
0.0201237398232585
0.0201392593923518
0.0201406601207906
0.0201397532959895
0.0201389112078265
0.0201381338644223
0.020137421273275
0.0201367734412586
0.0201361903746236
0.0201356720789962
0.0201352185593782
0.0201348298201464
0.0201345058650535
0.0201342466972264
0.0201340523191666
0.0201339227327508
0.0201338579392303
0.0201338579392303
0.0201339227327508
0.0201340523191667
0.0201342466972263
0.0201345058650536
0.0201348298201465
0.0201352185593782
0.0201356720789962
0.0201361903746237
0.0201367734412586
0.0201374212732749
0.0201381338644222
0.0201389112078264
0.0201397532959894
0.0201406601207904
0.0201392116784298
0.0201235644791392
0.0200833971249907
0.0200181139345632
0.0199281387147154
0.0198139910837013
0.0196762826085933
0.0195156918161546
0.0193329619792679
0.0191288701594065
0.0189042444251074
0.0186599643828357
0.0183977251129545
0.018120091488739
0.0178296398695652
0.0175287319692312
0.0172195533586212
0.0169041386867809
0.016584401435009
0.0162621639626465
0.0159387552433173
0.0156141073236882
0.0152876911292439
0.0149589480101911
0.0146273303181276
0.0142923042328718
0.0139533560893115
0.0136099864552871
0.0132617619831181
0.0129101291505419
0.0125590553188538
0.0122126545507681
0.0118751239508207
0.0115509075123113
0.0112450332039402
0.0109636135974269
0.0107135619766628
0.010502739645871
0.0103378537645655
0.0102179435933396
0.0101380747229308
0.01009135037909
0.0100713134867499
0.0100670707046739
0.0100669411184144
0.0143468557246972
0.01434704040397
0.0143532132464726
0.0143823770109773
0.0144503589963432
0.0145669523693911
0.0147425466578956
0.0149841667962478
0.0152913937005181
0.0156535980183338
0.0160592300194082
0.0164983223712837
0.0169622935944853
0.0174441022829664
0.0179375228166601
0.0184366864328007
0.0189358729687037
0.0194300349940757
0.0199175237125443
0.0203989417879824
0.0208749744908869
0.0213463359243804
0.0218137694312668
0.0222780403525972
0.0227399316885527
0.0232001441031846
0.0236585401808948
0.0241131580253778
0.0245614192763893
0.0250006127942186
0.0254278586962252
0.0258400616594443
0.0262338815269805
0.0266056710448942
0.0269518824750373
0.0272702263634055
0.027559454929045
0.0278183916132079
0.028045932899882
0.0282410244449446
0.0284027054479452
0.0285301100433446
0.0286225041517747
0.0286792905395328
0.0287013630914299
0.028703370920149
0.0287020785628744
0.0287008784647273
0.0286997706372813
0.0286987550912219
0.0286978318363461
0.0286970008815613
0.0286962622348859
0.028695615903448
0.0286950618934855
0.028694600210346
0.0286942308584862
0.0286939538414711
0.0286937691619753
0.0286936768217818
0.0286936768217817
0.0286937691619754
0.0286939538414711
0.0286942308584862
0.0286946002103461
0.0286950618934856
0.0286956159034479
0.028696262234886
0.0286970008815613
0.0286978318363461
0.0286987550912218
0.0286997706372811
0.0287008784647272
0.0287020785628744
0.0287033709201488
0.0287012949363542
0.0286790415463532
0.0286220339854871
0.0285294217515626
0.0284018033040893
0.0282399138539104
0.0280446189238854
0.027816881018814
0.0275577539647378
0.0272683429762324
0.0269498233991694
0.0266034442097065
0.0262315089150729
0.0258375656102284
0.0254252591568339
0.02499793003529
0.0245586720693055
0.0241103650525507
0.0236557169385882
0.0231973054351874
0.0227370841506467
0.0222751810826857
0.0218108935233209
0.0213434385766787
0.0208720510373095
0.020395987728166
0.0199145365052703
0.0194270100249356
0.0189328079533206
0.0184336049893805
0.0179344594824808
0.0174410929042167
0.0169593756246941
0.0164955364442107
0.0160566250175422
0.0156512323034775
0.0152893266215691
0.0149824774050116
0.0147412729654108
0.0145660687222477
0.0144498083419983
0.0143820884724455
0.0143531251457828
0.0143470404039699
0.014346855724697
0.0187835559188141
0.0187837977093159
0.0187919080555095
0.0188303916507018
0.0189202302669159
0.0190746723115136
0.0193077401404619
0.0196286405769893
0.0200355549253901
0.0205138196820002
0.0210480466974089
0.021625104650583
0.0222338482843175
0.0228651442264047
0.0235109188625652
0.0241635702665282
0.0248157139674506
0.0254611788090464
0.0260980854120593
0.0267272094045339
0.0273494303815512
0.02796566853104
0.028576884148168
0.029184068038014
0.0297882356056
0.0303902661048846
0.0309898153753607
0.0315842724132661
0.0321702753983123
0.0327442889089653
0.0333025569072343
0.0338410421193096
0.0343553900754501
0.0348408448013903
0.0352928405503143
0.0357084610349184
0.0360860755553148
0.0364241474391478
0.0367212333134002
0.036975956881726
0.037187063400648
0.0373534236666114
0.0374740804765766
0.037548255906593
0.0375771212921763
0.0375797584559986
0.0375780664430867
0.0375764952200198
0.0375750448019504
0.037573715202869
0.0375725064356017
0.0375714185118108
0.0375704514419943
0.0375696052354847
0.0375688799004492
0.0375682754438886
0.0375677918716379
0.0375674291883647
0.037567187397571
0.0375670665015901
0.0375670665015902
0.0375671873975709
0.0375674291883647
0.0375677918716379
0.0375682754438887
0.0375688799004493
0.0375696052354849
0.0375704514419942
0.0375714185118109
0.0375725064356016
0.0375737152028688
0.0375750448019502
0.0375764952200196
0.0375780664430866
0.0375797584559987
0.0375770319473634
0.0375479305687167
0.0374734664496649
0.0373525249250135
0.0371858855020029
0.0369745068800664
0.0367195178418235
0.0364221752775008
0.0360838549489644
0.0357060022603752
0.0352901525681829
0.0348379377696163
0.0343522919086916
0.0338377821484492
0.0332991609720316
0.0327407834486504
0.0321666848979674
0.0315806211834593
0.0309861237931378
0.0303865534005718
0.0297845112354099
0.0291803289220735
0.0285731239232626
0.027961880978878
0.0273456094715221
0.0267233493350755
0.0260941828375255
0.0254572280430746
0.0248117117255712
0.0241595441739544
0.0235069128200718
0.0228612046451837
0.0222300236680251
0.0216214477264793
0.0210446207213386
0.0205107009234547
0.0200328226161809
0.0196263996224249
0.0193060487480803
0.0190735009215927
0.0189195019485715
0.0188300109753001
0.0187917920295664
0.0187837977093159
0.018783555918814
0.0233827851995903
0.0233830861934697
0.0233932050882719
0.0234413509500277
0.0235538498820916
0.0237475336083145
0.0240401915240071
0.0244432913945761
0.0249535584646426
0.0255521449563199
0.0262196835086582
0.0269397633825191
0.0276985824916511
0.0284848395543393
0.0292885457933034
0.0301003030442351
0.0309110019162341
0.0317133072204834
0.0325051009984509
0.0332873380815066
0.0340610994172868
0.0348275187541681
0.035587781224991
0.0363431113060223
0.0370947652767711
0.0378438074465787
0.0385896791047218
0.0393290963132594
0.0400578851146765
0.0407716556290075
0.0414657435822023
0.0421351352561515
0.0427744247258404
0.043377706692076
0.0439393601896915
0.0444558192192533
0.0449250561275558
0.0453451609311245
0.0457143379448598
0.0460308771231886
0.0462932190113836
0.0464999614205334
0.0466499158522215
0.0467421170747191
0.0467780240413142
0.0467813135929709
0.0467792072838861
0.0467772513405261
0.0467754457817539
0.0467737906249849
0.0467722858861863
0.0467709315798758
0.0467697277191217
0.0467686743155419
0.0467677713793029
0.0467670189191201
0.0467664169422573
0.0467659654545248
0.0467656644602814
0.0467655139624335
0.0467655139624333
0.0467656644602815
0.0467659654545248
0.0467664169422572
0.0467670189191204
0.046767771379303
0.0467686743155419
0.0467697277191217
0.0467709315798758
0.0467722858861862
0.0467737906249847
0.0467754457817538
0.0467772513405259
0.046779207283886
0.0467813135929706
0.0467779127306237
0.0467417125965142
0.0466491526967859
0.0464988445228358
0.0462917552603873
0.046029075282434
0.0457122062758425
0.0453427103007802
0.0449222968513035
0.0444527639883773
0.043936020272971
0.0433740945575089
0.0427705744364126
0.0421310833906366
0.0414615220885099
0.040767297340855
0.0400534204400707
0.039324555396823
0.0385850873833737
0.0378391886974291
0.0370901319638952
0.0363384601248264
0.0355831043019443
0.0348228084027986
0.0340563481928838
0.0332825388340414
0.0325002495484295
0.0317083967717582
0.0309060281473991
0.0300952977283927
0.0292835625345178
0.0284799357135798
0.0276938180245063
0.0269352035490862
0.0262154064593717
0.0255482455197307
0.0249501364859039
0.0244404785785183
0.0240380670470551
0.0237460638812873
0.0235529373636331
0.0234408747517911
0.0233930601120217
0.0233830861934701
0.0233827851995897
0.0281504974657856
0.0281508598318333
0.0281630608923045
0.0282212235422892
0.0283572145648288
0.028591581093198
0.0289460181778387
0.0294343368600171
0.0300517501350273
0.0307750713894705
0.0315808081905169
0.0324491505156836
0.0333635426014504
0.0343104362198408
0.0352778575612931
0.0362545466475391
0.0372296061703012
0.0381944947317743
0.0391468473002866
0.0400878044233138
0.0410186557285668
0.0419407563084993
0.0428555243365619
0.0437644264921454
0.0446689687294642
0.045570407150232
0.0464679605052555
0.0473576472432787
0.0482344515308953
0.0490930977384019
0.0499279800923532
0.0507330726671397
0.0515018795720632
0.0522273040870452
0.052902631420095
0.0535236221067693
0.0540878369978237
0.0545929791195431
0.0550368875676858
0.0554175063193672
0.0557329600477222
0.0559815635777816
0.0561618886448692
0.0562727758490037
0.0563159822991486
0.0563199481372332
0.0563174123551161
0.0563150575980533
0.0563128838887537
0.0563108912481836
0.0563090796955659
0.0563074492483784
0.0563059999223546
0.0563047317314802
0.0563036446879955
0.0563027388023924
0.056302014083416
0.0563014705380617
0.0563011081715769
0.0563009269874597
0.0563009269874597
0.0563011081715769
0.0563014705380617
0.0563020140834161
0.0563027388023924
0.0563036446879957
0.0563047317314804
0.0563059999223547
0.0563074492483784
0.0563090796955658
0.0563108912481835
0.0563128838887536
0.0563150575980532
0.0563174123551161
0.0563199481372332
0.056315848217955
0.0562722893319409
0.0561609708991268
0.0559802205340663
0.0557311999751699
0.0554153397536038
0.0550343244581941
0.0545900324969108
0.0540845193232695
0.0535199485748907
0.0528986156923941
0.0522229610261415
0.051497249613976
0.0507281999040925
0.0499229028040448
0.0490878553872306
0.0482290806647211
0.0473521840543658
0.0464624356758793
0.0455648491706531
0.0446633931824367
0.0437588298406912
0.04284989714166
0.0419350893618693
0.0410129401197747
0.0400820316046972
0.0391410122279638
0.0381885894599573
0.0372236253025304
0.0362485262535338
0.0352718613021526
0.0343045328061967
0.0333578038587296
0.0324436546939251
0.0315756488774483
0.0307703626499926
0.0300476131837932
0.0294309311825866
0.0289434447054234
0.0285898020706819
0.0283561110831625
0.0282206483160294
0.0281628859040688
0.0281508598318331
0.0281504974657855
0.0330928647235647
0.0330932907100186
0.0331076502357056
0.0331761969665273
0.0333365416872404
0.0336130835546336
0.0340315667277505
0.0346082310564946
0.0353367201345301
0.0361893487875112
0.037138348347644
0.0381603851545796
0.0392360491887916
0.0403494631976574
0.0414865957980238
0.0426342571299705
0.0437796965852243
0.0449131226505849
0.0460319143199342
0.0471374046294609
0.0482310995025459
0.0493145834605409
0.0503895162345061
0.0514576155627352
0.0525206462063244
0.0535800630594508
0.0546348541018335
0.0556803145952761
0.0567105559971806
0.0577193844861418
0.0587002183039229
0.0596459822411647
0.0605490505168425
0.0614010913501568
0.0621942560828362
0.0629236071455801
0.0635862788205976
0.0641795729644975
0.064700950076199
0.0651479954799355
0.0655185064079585
0.0658105043321859
0.0660223124406543
0.0661525700531037
0.0662033433573367
0.0662080102566221
0.0662050292686421
0.0662022610881854
0.066199705741947
0.0661973632545753
0.0661952336486669
0.0661933169447696
0.0661916131613776
0.0661901223149338
0.0661888444198259
0.0661877794883893
0.0661869275309032
0.066186288555592
0.0661858625686239
0.0661856495741117
0.0661856495741117
0.066185862568624
0.066186288555592
0.0661869275309032
0.0661877794883893
0.0661888444198261
0.0661901223149339
0.0661916131613776
0.0661933169447696
0.0661952336486669
0.0661973632545753
0.0661997057419469
0.0662022610881852
0.0662050292686424
0.066208010256622
0.0662031856715124
0.0661519984922452
0.0660212344423188
0.0658089268592191
0.0655164391603182
0.0651454508301993
0.0646979397235868
0.0641761121826518
0.0635823822949987
0.0629192926659817
0.0621895397910033
0.0613959905910717
0.0605436123327131
0.0596402585128447
0.0586942538748166
0.0577132256901319
0.0567042457468761
0.0556738953520586
0.0546283619855332
0.0535735314460239
0.0525140939118624
0.0514510388097281
0.0503829039611557
0.0493079248811194
0.048224384187303
0.0471306225820461
0.0460250596004295
0.0449061861218807
0.043772671736368
0.0426271844827541
0.0414795494379526
0.04034252360009
0.0392293004828164
0.0381539190548009
0.0371322744428115
0.0361838010819554
0.0353318419957534
0.0346042107682224
0.0340285277837192
0.0336109838881285
0.0333352402373963
0.0331755190809164
0.0331074441353512
0.0330932907100186
0.0330928647235646
0.038216285076325
0.0382167770137836
0.0382333740916762
0.0383126855354903
0.0384982767849618
0.0388185404694105
0.0393034184371722
0.0399716681108951
0.0408153050216623
0.0418019801227961
0.0428994918321593
0.0440808538890679
0.0453236976573951
0.0466097316968128
0.0479227917918888
0.0492476875920661
0.0505697473698288
0.051877883882896
0.0531692108719175
0.0544452608937754
0.0557077640726836
0.0569585427484656
0.0581995070459955
0.0594326349487915
0.0606599594966128
0.0618831416413365
0.06310093008305
0.0643078703911402
0.065497169348201
0.0666616813083364
0.0677938127778949
0.0688854008277321
0.069927648397364
0.0709109434059387
0.0718262618138876
0.0726679423957662
0.0734326772423539
0.0741173523420816
0.074719035730591
0.0752349409395522
0.0756625257684587
0.0759995075892686
0.0762439519402084
0.0763942894880721
0.0764529068223826
0.0764583004656434
0.0764548579626325
0.0764516612138962
0.0764487102502633
0.0764460051001972
0.0764435457897941
0.0764413323427816
0.0764393647805186
0.0764376431219921
0.0764361673838192
0.0764349375802433
0.0764339537231358
0.0764332158219945
0.0764327238839423
0.0764324779137288
0.0764324779137288
0.0764327238839423
0.0764332158219945
0.0764339537231357
0.0764349375802434
0.0764361673838193
0.0764376431219921
0.0764393647805185
0.0764413323427816
0.0764435457897941
0.0764460051001972
0.0764487102502633
0.0764516612138961
0.0764548579626325
0.0764583004656433
0.0764527246672297
0.0763936297682786
0.0762427078193456
0.0759976871000508
0.0756601400941795
0.0752320043569795
0.074715561752678
0.0741133585678617
0.073428180662865
0.0726629634911684
0.0718208192968907
0.0709050571948695
0.0699213723824602
0.0688787949636534
0.0677869287122273
0.0666545724981517
0.0654898853039974
0.0643004600730472
0.0630934352476521
0.0618756007292178
0.060652394675915
0.0594250421929057
0.0581918736109535
0.0569508562133549
0.0557000124328649
0.0544374326512242
0.0531612991578609
0.0518698783255505
0.0505616403028781
0.0492395241511701
0.0479146568682077
0.0466017179609246
0.0453159019921332
0.0440733819660303
0.0428924698260806
0.0417955627067808
0.0408096585278868
0.0399670106760843
0.0392998969511847
0.0388161084007491
0.0384967701084824
0.0383119012273881
0.0382331357390053
0.0382167770137836
0.0382162850763254
0.0435273910071706
0.0435279513116077
0.043546867921459
0.0436373385868325
0.0438491017043033
0.0442146899075991
0.0447683966833964
0.0455315891000847
0.0464945941571666
0.0476202277229711
0.0488716928944323
0.0502182170934358
0.0516343648270057
0.0530993421389633
0.0545947739310162
0.0561033961384323
0.0576085455864107
0.0590977919610194
0.0605679741009287
0.0620208313799569
0.0634583263240937
0.0648825277935857
0.0662956054712875
0.0676998071123334
0.069097443856917
0.0704903902510813
0.0718771469098524
0.0732514822365987
0.0746056652007999
0.0759315634657966
0.0772205347410949
0.0784632885327456
0.0796498135942941
0.0807691706478279
0.0818111172316834
0.0827692419719418
0.0836397785740128
0.084419181921359
0.0851041132128744
0.0856914005667466
0.0861781499190703
0.0865617634012848
0.0868400394660232
0.0870111924843404
0.0870779411848882
0.0870840881960362
0.0870801672713757
0.0870765262546752
0.0870731651810479
0.0870700840829132
0.0870672829899943
0.0870647619293157
0.0870625209252046
0.0870605599992879
0.0870588791704904
0.0870574784550363
0.0870563578664464
0.0870555174155378
0.0870549571104244
0.0870546769565153
0.0870546769565153
0.0870549571104244
0.0870555174155379
0.0870563578664464
0.0870574784550365
0.0870588791704905
0.087060559999288
0.0870625209252046
0.0870647619293157
0.0870672829899943
0.0870700840829132
0.0870731651810478
0.0870765262546751
0.0870801672713755
0.0870840881960361
0.0870777336640231
0.0870104413762862
0.0868386231375421
0.0865596909940651
0.0861754341541878
0.0856880576948571
0.0851001586269926
0.0844146356312809
0.0836346599605806
0.0827635743044863
0.0818049218878233
0.0807624702135728
0.0796426690586828
0.0784557682198257
0.0772126973519483
0.0759234698416209
0.0745973716916701
0.0732430445394511
0.0718686126244999
0.0704818030682457
0.0690888294198043
0.0676911611362605
0.0662869134685436
0.0648737756482101
0.0634495003989132
0.0620119186203074
0.0605589666751887
0.0590886782176636
0.0575993166613982
0.0560941019494559
0.0545855105702819
0.0530902149187032
0.0516254838505582
0.0502097025001118
0.0488636880516846
0.0476129087290682
0.0464881511503136
0.0455262711636232
0.0447643749652629
0.044211913251402
0.0438473822786685
0.0436364439559441
0.0435465961346371
0.0435279513116077
0.0435273910071707
0.0490330579648152
0.0490336891407095
0.0490550102627105
0.0491570490684572
0.0493959431678151
0.0498085170372168
0.0504335753440088
0.0512951902835015
0.0523819378513207
0.0536516214424093
0.05506268048466
0.0565804174484001
0.0581762177433582
0.059826693305513
0.0615111772221546
0.0632102557909044
0.0649052014699647
0.0665821917604496
0.0682377805780998
0.0698739216813904
0.0714928185033606
0.0730967954485962
0.0746882912604912
0.0762698333434104
0.0778440211214858
0.0794129505505887
0.0809748650418211
0.082522727354144
0.0840478342905976
0.0855410306792939
0.0869925870130392
0.0883920439278059
0.089728131512073
0.0909885346757145
0.0921617479144842
0.0932405822401874
0.0942207961866889
0.0950983977375702
0.0958696263557058
0.0965309106259538
0.0970789917354723
0.0975109450264795
0.0978242920847766
0.098017023062904
0.0980922009958474
0.0980991289743471
0.0980947121020813
0.098090610542608
0.0980868243354825
0.0980833535172246
0.0980801981213165
0.0980773581782023
0.0980748337152853
0.0980726247569274
0.0980707313244487
0.0980691534361245
0.0980678911071861
0.0980669443498186
0.0980663131731625
0.0980659975833111
0.0980659975833114
0.0980663131731626
0.0980669443498187
0.0980678911071861
0.0980691534361246
0.0980707313244488
0.0980726247569275
0.0980748337152851
0.0980773581782021
0.0980801981213164
0.0980833535172246
0.0980868243354824
0.0980906105426078
0.0980947121020813
0.0980991289743474
0.0980919671800436
0.0980161772189211
0.097822697240599
0.0975086114732994
0.0970759337886002
0.0965271465821794
0.0958651735568497
0.095093278692711
0.094215032753776
0.0932342005801372
0.0921547721671855
0.090980990192679
0.0897200866411476
0.0883835756687881
0.0869837613789945
0.0855319161660367
0.0840384943383286
0.0825132246434028
0.0809652532296631
0.0794032787702082
0.0778343186186112
0.0762600955659719
0.0746785019131612
0.0730869386583099
0.0714828789406393
0.0698638846779478
0.0682276373042023
0.066571929238053
0.0648948095934208
0.0631997894344896
0.0615007440891279
0.0598164118126706
0.0581662116985197
0.0565708219881545
0.0550536567983687
0.0536433678377678
0.0523746691446745
0.0512891876385189
0.0504290350588863
0.0498053831639233
0.0493940031960665
0.0491560400720495
0.0490547038166937
0.0490336891407097
0.0490330579648155
0.0547404132640021
0.0547411179075777
0.0547649316332434
0.0548789624508711
0.0551459817007947
0.0556072630626564
0.0563062877408886
0.057269932059438
0.0584849563874903
0.0599039678229827
0.0614804676150251
0.0631756895578977
0.0649577235891423
0.0668004925713227
0.0686809538667114
0.0705774654189336
0.0724691597178752
0.0738213845485982
0.075516398163076
0.0771771646961716
0.0787984552492925
0.0803783046942734
0.0819155500669845
0.0834094830711078
0.0848599395039256
0.0862802617442034
0.0877551856475754
0.0893796675710549
0.0911744622706636
0.0931356522828943
0.0952610776733668
0.0975497514258112
0.100175648758605
0.101582264721428
0.102891553054834
0.104095518682596
0.105189427566795
0.10616882441758
0.107029511517377
0.10776750328063
0.108379162788432
0.108861226621984
0.109210929360925
0.109426028726283
0.109509944672178
0.109517682228751
0.109512751240899
0.109508172267653
0.109503945353172
0.109500070538227
0.109496547860197
0.109493377353071
0.109490559047441
0.109488092970504
0.109485979146062
0.109484217594518
0.109482808332876
0.10948175137474
0.109481046730314
0.1094806944064
0.1094806944064
0.109481046730315
0.10948175137474
0.109482808332876
0.109484217594518
0.109485979146062
0.109488092970504
0.10949055904744
0.109493377353071
0.109496547860198
0.109500070538227
0.109503945353172
0.109508172267653
0.109512751240899
0.109517682228751
0.109509683598162
0.109425084676042
0.109209149461846
0.108858622356772
0.108375750125161
0.107763302637113
0.107024542255491
0.106163111637466
0.105182995693989
0.104088396875788
0.102883768317081
0.101573845271157
0.100166670572044
0.0975343958170209
0.0952466970696259
0.0931222507420862
0.0911619953448835
0.0893682210295367
0.0877448454839456
0.0862705677049077
0.0848502314817633
0.083399500631015
0.0819052921783464
0.080367773542601
0.0787876563728103
0.0771660215934322
0.0755049912857338
0.0738099440518167
0.0724575622900404
0.0705657839575238
0.0686693081112098
0.0667890145229626
0.0649465512620345
0.0631649736349782
0.0614703877599435
0.0598947453659714
0.0584768317270111
0.0572632196147969
0.0563012098844969
0.0556037588814714
0.0551438131010905
0.0548778348983979
0.0547645892581631
0.0547411179075779
0.0547404132640018
0.0606568453119563
0.0606576261145453
0.0606840237612753
0.0608104859715887
0.061106660905758
0.06161843454451
0.0623941360226178
0.0634635484362216
0.0648115496317027
0.0663853598954276
0.0681333613991637
0.0700125702639832
0.0719876603019488
0.0729813207370222
0.0737798896307105
0.0750169070644624
0.0766635060211752
0.0785808098930601
0.0805530406450424
0.0824836407250287
0.0843680021631437
0.0862048142548228
0.0879935404604386
0.0897341221000663
0.0914270402308602
0.0930865407708698
0.0947995693442042
0.0966623395086537
0.0986945813248919
0.100890907524264
0.103247728244793
0.105762738363263
0.108436084527557
0.111265094038099
0.114014422764749
0.11534810341249
0.11655987202191
0.117644793056307
0.118598215608058
0.119415724747891
0.120093291604842
0.120627301588703
0.121014691762428
0.121252978901699
0.121345952954509
0.121354529748168
0.121349065811206
0.121343991935155
0.121339308168948
0.121335014557761
0.121331111143016
0.121327597962371
0.121324475049728
0.121321742435224
0.121319400145231
0.121317448202359
0.121315886625448
0.121314715429575
0.121313934626043
0.121313544222393
0.121313544222394
0.121313934626043
0.121314715429575
0.121315886625448
0.121317448202359
0.121319400145231
0.121321742435224
0.121324475049728
0.121327597962371
0.121331111143016
0.121335014557761
0.121339308168948
0.121343991935155
0.121349065811206
0.121354529748168
0.12134566362372
0.121251933047722
0.121012720029667
0.120624416694916
0.120089511231549
0.119411071511552
0.118592710964458
0.117638464791812
0.116552747223407
0.115340214346548
0.114005799402157
0.11124638283337
0.108418250960409
0.10574597156128
0.103231904744729
0.100876038987764
0.0986806422094248
0.0966494088332625
0.0947877313644233
0.0930753500098573
0.0914158207958311
0.0897226022027415
0.0879817150265746
0.0861926814173958
0.0843555634035034
0.0824708306317303
0.0805399232181317
0.0785675977465785
0.0766512854747667
0.075006959127434
0.0737725435322272