1.00000000000442e-06 	1.00195556483898 	6.93889390390723e-18 	-0.00589862208705642 	1.73124738518061e-05 	2960.70552531496 	7.53968488012328e-06 	6.0405295272452e-38
1.00000000000442e-06 	1.00593833258374 	6.93889390390723e-18 	-0.00587983409102142 	0.00015582323656815 	1304.96336080845 	0.000237212010882124 	0
1.00000000000442e-06 	1.01006700077429 	6.93889390390723e-18 	-0.00584199723891905 	0.000693572232643337 	294.742947687969 	0.00211709804078085 	0
1.00000000000442e-06 	1.0143469141712 	6.93889390390723e-18 	-0.00576870910207342 	0.00196287909936322 	128.57515426795 	0.00816445523311281 	0
1.00000000000442e-06 	1.01878361332929 	6.93889390390723e-18 	-0.00562720506346117 	0.00398203677834735 	77.9365259922326 	0.0173605958091062 	0
1.00000000000442e-06 	1.02338284177015 	6.93889390390723e-18 	-0.00538760447243243 	0.0063733273986616 	54.554360533406 	0.0236745766188034 	0
1.00000000000442e-06 	1.02815055341735 	6.93889390390723e-18 	-0.00503943251843921 	0.00875689382761714 	40.0944371345088 	0.0233967647732576 	0
1.00000000000442e-06 	1.03309292030413 	3.46944695195361e-18 	-0.00459027632052219 	0.0110011153529394 	30.0765881290855 	0.0187442033420568 	0
1.00000000000442e-06 	1.03821634056339 	3.46944695195361e-18 	-0.00405447940141203 	0.0131082085692362 	23.0065217685088 	0.0133897677350898 	0
1.00000000000442e-06 	1.04352744671036 	6.93889390390723e-18 	-0.00344600032068483 	0.0150854429685158 	18.0075729280716 	0.00916773416811704 	0
1.00000000000442e-06 	1.04903311422874 	6.93889390390723e-18 	-0.00277640342129152 	0.0169260728921628 	14.4404290862177 	0.00632609862434491 	0
1.00000000000442e-06 	1.05474047047132 	6.93889390390723e-18 	-0.00205431481793251 	0.0186239210783102 	11.8519320684916 	0.00453092300519388 	0
1.00000000000442e-06 	1.06065690388671 	3.46944695195361e-18 	-0.00128547222547624 	0.0201805804726822 	9.93518990480193 	0.003410751042061 	0
1.00000000000442e-06 	1.06679007358401 	0 	-0.000473280420606823 	0.0216043720656802 	8.48595094330865 	0.00270149155055822 	0
1.00000000000442e-06 	1.07314791924792 	3.46944695195361e-18 	0.000380504656968153 	0.0229070781870791 	7.36777877042962 	0.00223977690160826 	0
1.00000000000442e-06 	1.07973867141705 	6.93889390390723e-18 	0.0012752003820165 	0.0241013097702563 	6.4882964322986 	0.00192898586136087 	0
1.00000000000442e-06 	1.08657086213875 	6.93889390390723e-18 	0.0022107514647467 	0.0251989914947919 	5.78392095727894 	0.00171221648138125 	0
1.00000000000442e-06 	1.09365333601424 	6.93889390390723e-18 	0.00318738496784687 	0.0262106877920266 	5.21017954977455 	0.00155545123318834 	0
1.00000000000442e-06 	1.10099526164836 	3.46944695195361e-18 	0.00420535703884593 	0.027145423541366 	4.7355148068628 	0.00143785678142671 	0
1.00000000000442e-06 	1.10860614351883 	0 	0.00526478784384601 	0.0280107529265634 	4.33725117123796 	0.00134632076054506 	0
1.00000000000442e-06 	1.11649583428022 	3.46944695195361e-18 	0.006365571559256 	0.0288129299832408 	3.99891212947222 	0.00127237549548584 	0
1.00000000000442e-06 	1.12467454751866 	6.93889390390723e-18 	0.00750734075509979 	0.0295571028557828 	3.70839693645518 	0.00121044757772285 	0
1.00000000000442e-06 	1.13315287097387 	1.04083408558608e-17 	0.00868946490594535 	0.0302474949358749 	3.45671727870043 	0.00115684265013154 	0
1.00000000000442e-06 	1.1419417802455 	1.38777878078145e-17 	0.00991106867028942 	0.0308875590146443 	3.23710844059682 	0.00110913881620869 	0
1.00000000000442e-06 	1.15105265300151 	1.04083408558608e-17 	0.0111710634346192 	0.0314801023816198 	3.04439758672464 	0.00106580921740073 	0
1.00000000000442e-06 	1.1604972837072 	0 	0.0124681912542946 	0.0320273860573207 	2.87455268075483 	0.00102597469680893 	0
1.00000000000442e-06 	1.17028789889366 	-6.93889390390723e-18 	0.0138010812973866 	0.0325312030253005 	2.72436057285448 	0.000989231887487051 	0
1.00000000000442e-06 	1.1804371729856 	-1.04083408558608e-17 	0.0151683152700831 	0.0329929402868739 	2.59119847014141 	0.000955526995872903 	0
1.00000000000442e-06 	1.19095824470904 	-1.73472347597681e-17 	0.0165684928429367 	0.0334136288700459 	2.47287316598611 	0.000925057806004187 	0
1.00000000000442e-06 	1.20186473410002 	-1.73472347597681e-17 	0.018000284605102 	0.0337939851443381 	2.36750925239765 	0.000898192387138309 	0
1.00000000000442e-06 	1.21317076013637 	-1.04083408558608e-17 	0.0194624609043828 	0.0341344461425138 	2.27347236256544 	0.000875397388194061 	0
1.00000000000442e-06 	1.22489095901541 	-1.04083408558608e-17 	0.0209538907271937 	0.0344352010858221 	2.18931703798026 	0.000857172687724987 	0
1.00000000000442e-06 	1.23704050310127 	-1.04083408558608e-17 	0.0224735112464874 	0.0346962208978661 	2.11375151746193 	0.000843992527145896 	0
1.00000000000442e-06 	1.24963512056618 	-1.38777878078145e-17 	0.0240202739162056 	0.0349172871272055 	2.04561384528667 	0.000836256320636108 	0
1.00000000000442e-06 	1.26269111575138 	-2.08166817117217e-17 	0.0255930785330403 	0.0350980213245782 	1.98385532710366 	0.000834252745189764 	0
1.00000000000442e-06 	1.27622539027388 	-2.08166817117217e-17 	0.027190708928147 	0.0352379155083439 	1.92752860691197 	0.00083813702904362 	0
1.00000000000442e-06 	1.29025546490642 	-2.08166817117217e-17 	0.0288117818576699 	0.0353363639775644 	1.87577856012631 	0.000847917848086409 	0
1.00000000000442e-06 	1.30479950225895 	-2.77555756156289e-17 	0.0304547161731671 	0.0353926964841107 	1.82783486235362 	0.000863449665095058 	0
1.00000000000442e-06 	1.31987633029101 	-3.12250225675825e-17 	0.0321177240924613 	0.0354062126717225 	1.78300556569191 	0.000884427177526015 	0
1.00000000000442e-06 	1.33550546668544 	-2.08166817117217e-17 	0.0337988222654766 	0.0353762177042097 	1.74067134784185 	0.000910380160253133 	0
1.00000000000442e-06 	1.35170714411495 	-1.38777878078145e-17 	0.0354958577456681 	0.0353020590701245 	1.70028033033716 	0.000940669213837853 	0
1.00000000000442e-06 	1.3685023364343 	-1.73472347597681e-17 	0.0372065431307542 	0.0351831645700764 	1.66134350904172 	0.000974484728584642 	0
1.00000000000442e-06 	1.38591278583198 	-1.73472347597681e-17 	0.0389284954929643 	0.0350190813800734 	1.62343090960157 	0.0010108522020888 	0
1.00000000000442e-06 	1.40396103097652 	-1.38777878078145e-17 	0.0406592743024517 	0.0348095158264038 	1.58616857846334 	0.00104864740212507 	0
1.00000000000442e-06 	1.42267043619387 	-1.38777878078145e-17 	0.0423964145957682 	0.0345543731752236 	1.54923645864822 	0.00108662455671267 	0
1.00000000000442e-06 	1.44206522171365 	-1.38777878078145e-17 	0.0441374533781927 	0.0342537964172576 	1.51236709776818 	0.00112345863990284 	0
1.00000000000442e-06 	1.46217049502345 	-2.08166817117217e-17 	0.045879948996254 	0.0339082027509206 	1.47534501518768 	0.00115779957444773 	0
1.00000000000442e-06 	1.48301228337162 	-2.42861286636753e-17 	0.0476214947647434 	0.0335183162415937 	1.43800643759959 	0.00118833370499846 	0
1.00000000000442e-06 	1.50461756746086 	-2.08166817117217e-17 	0.0493597290608263 	0.0330851949686893 	1.4002390200232 	0.00121384690464316 	0
1.00000000000442e-06 	1.52701431637602 	-2.42861286636753e-17 	0.0510923439832837 	0.0326102508807788 	1.36198112300329 	0.00123328381309415 	0
1.00000000000442e-06 	1.55023152379143 	-2.77555756156289e-17 	0.0528170938402223 	0.0320952605930787 	1.32322023125765 	0.00124579860700188 	0
1.00000000000442e-06 	1.57429924550461 	-3.12250225675825e-17 	0.0545318036803326 	0.0315423655321211 	1.28399017809582 	0.00125079401564635 	0
1.00000000000442e-06 	1.59924863834497 	-3.12250225675825e-17 	0.0562343773210448 	0.0309540602229977 	1.24436697245871 	0.00124794657134137 	0
1.00000000000442e-06 	1.62511200050781 	-3.12250225675825e-17 	0.0579228041963089 	0.0303331681980588 	1.20446318481736 	0.00123721692839292 	0
1.00000000000442e-06 	1.65192281336592 	-3.81639164714898e-17 	0.0595951646854317 	0.0296828061081427 	1.1644210008921 	0.00121884441200049 	0
1.00000000000442e-06 	1.67971578481282 	-3.81639164714898e-17 	0.0612496338433335 	0.0290063383880148 	1.12440417627195 	0.00119332507071017 	0
1.00000000000442e-06 	1.70852689419381 	-3.46944695195361e-17 	0.0628844833948068 	0.0283073274504555 	1.08458922549231 	0.00116137262613773 	0
1.00000000000442e-06 	1.73839343888296 	-3.12250225675825e-17 	0.0644980814561438 	0.0275894870000585 	1.04515627911789 	0.0011238624727784 	0
1.00000000000442e-06 	1.76935408256639 	-2.77555756156289e-17 	0.0660888875831452 	0.0268566448786751 	1.0062801508194 	0.00108176199677867 	0
1.00000000000442e-06 	1.80144890529425 	-2.77555756156289e-17 	0.0676554362546763 	0.0261127105444269 	0.968122236685026 	0.00103605448768044 	0
1.00000000000442e-06 	1.83471945536633 	-2.77555756156289e-17 	0.0691963041970899 	0.0253616370511616 	0.930823887911293 	0.000987663386609693 	0
1.00000000000442e-06 	1.86920880311829 	-2.77555756156289e-17 	0.0707101506644834 	0.024607374605892 	0.894501875900487 	0.000937377600264559 	0
1.00000000000442e-06 	1.9049615966783 	-3.12250225675825e-17 	0.0721961090680755 	0.0238537852619017 	0.859246393728017 	0.000885804380523753 	0
1.00000000000442e-06 	1.94202411976624 	-3.12250225675825e-17 	0.0736534315279617 	0.0231044478208584 	0.825121357567473 	0.000833540471986103 	0
1.00000000000442e-06 	1.98044435161018 	-2.77555756156289e-17 	0.075236435545565 	0.0222779095451038 	0.788508266726849 	0.000776052861276668 	0
1.00000000000442e-06 	2.04004996790234 	-2.42861286636753e-17 	0.077241106194865 	0.0212226532015289 	0.742828099462447 	0.000702015800284176 	0
1.00000000000442e-06 	2.11873460271874 	-2.42861286636753e-17 	0.0795220686202125 	0.0200148954048542 	0.691798576837533 	0.00061452252207741 	0
1.00000000000442e-06 	2.19463865000284 	-2.42861286636753e-17 	0.0816431686571447 	0.0188649462219005 	0.645152887228973 	0.000530339680607961 	0
1.00000000000442e-06 	2.26786037121375 	-2.08166817117217e-17 	0.0834822553806228 	0.0178272430290001 	0.605294562655605 	0.0004566704690519 	0
1.00000000000442e-06 	2.33849455540975 	-2.08166817117217e-17 	0.0850878671574879 	0.016882680446154 	0.571065545094562 	0.000393086625802944 	0
1.00000000000442e-06 	2.40663264195736 	-2.08166817117217e-17 	0.0864979728053467 	0.0160176117143 	0.541623298080022 	0.000338718197338874 	0
1.00000000000442e-06 	2.47236283890404 	-2.42861286636753e-17 	0.0877433013956216 	0.0152215355273874 	0.516316109408668 	0.000292536682571247 	0
1.00000000000442e-06 	2.5357702371677 	-2.77555756156289e-17 	0.0888489679662791 	0.0144858387650202 	0.494611638918287 	0.000253350959166316 	0
1.00000000000442e-06 	2.59693692069107 	-2.42861286636753e-17 	0.0898355457529377 	0.0138032391738819 	0.47606382231433 	0.000219937035508982 	0
1.00000000000442e-06 	2.65594207270333 	-2.42861286636753e-17 	0.090719968677103 	0.0131675663769123 	0.46030010739019 	0.000191169091865518 	0
1.00000000000442e-06 	2.71286207822658 	-2.77555756156289e-17 	0.0915162529930535 	0.0125736538380727 	0.447015830421386 	0.000166099580375922 	0
1.00000000000442e-06 	2.76777062295999 	-2.42861286636753e-17 	0.092236066721862 	0.0120172395261987 	0.435969132963989 	0.000143984944928718 	0
1.00000000000442e-06 	2.82073878866949 	-2.42861286636753e-17 	0.0928891773365907 	0.0114948486997495 	0.426974539025186 	0.000124273902484518 	0
1.00000000000442e-06 	2.87183514520654 	-3.12250225675825e-17 	0.0934838032031212 	0.0110036652017276 	0.419895611387147 	0.000106577493024093 	0
1.00000000000442e-06 	2.92112583927514 	-3.81639164714898e-17 	0.0940268907086235 	0.0105414055710932 	0.414637732743599 	9.06346605284663e-05 	0
1.00000000000442e-06 	2.9686746800619 	-3.81639164714898e-17 	0.0945243349109272 	0.0101062073796025 	0.411141877148394 	7.62809541501664e-05 	0
