/*--------------------------------*- C++ -*----------------------------------*\
  =========                 |
  \\      /  F ield         | OpenFOAM: The Open Source CFD Toolbox
   \\    /   O peration     | Website:  https://openfoam.org
    \\  /    A nd           | Version:  7
     \\/     M anipulation  |
\*---------------------------------------------------------------------------*/
FoamFile
{
    version     2.0;
    format      ascii;
    class       volScalarField;
    location    "0";
    object      Cz;
}
// * * * * * * * * * * * * * * * * * * * * * * * * * * * * * * * * * * * * * //

dimensions      [0 1 0 0 0 0 0];

internalField   nonuniform List<scalar> 
15600
(
4.28271454389253e-18
2.243348854143e-18
4.64206873794657e-18
-2.47932285915157e-18
5.84406595959696e-18
1.58996389802674e-18
-3.34702438800418e-18
-3.31132049160555e-18
6.78126264023394e-18
9.44289289567791e-20
0
0
0
-2.97296660272091e-18
0
2.63290055286656e-18
-5.05962374574996e-18
-9.50296968409188e-20
-6.97141784122154e-18
-4.37360296106106e-18
0
-9.52065230937753e-20
-1.97822461597359e-18
-1.90002856324517e-18
0
1.8255837217497e-18
5.00890490735954e-18
6.25308196247425e-18
4.41599491102983e-18
-9.57722490523972e-20
2.60797453645004e-18
-1.90585624609702e-16
-2.14802626114386e-16
2.14834240339544e-18
-4.46730718699901e-18
0
0
6.6168188718456e-18
2.30260570778362e-16
2.39418569132156e-16
0
0
0
0
0
4.37908807189566e-18
-2.41063730666041e-16
-2.44551942621846e-16
0
0
0
-4.47546159990127e-18
-2.3026057077831e-16
-2.28910786846682e-16
6.52044534384062e-18
0
0
4.37908807189523e-18
2.2377307999504e-18
0
9.63735280056269e-20
-2.23773079995042e-18
-4.37908807189526e-18
0
2.23773079995035e-18
0
0
0
2.23773079995008e-18
-2.14135727194504e-18
-4.28271454388962e-18
2.23773079995041e-18
2.30164197250333e-16
4.69723862278382e-16
2.29026454031818e-16
-4.37908807189518e-18
0
0
0
2.32401928050281e-16
2.24064780236151e-16
0
-6.71319239985058e-18
2.14135727194505e-18
0
-6.50850944823079e-18
-6.63664556439846e-18
-2.22458818371246e-18
0
2.41338298165763e-18
9.6972750469419e-20
0
-4.80896659045827e-18
3.46807409744698e-18
1.72915370402671e-18
-1.81650017765121e-18
1.89908217813869e-18
-4.05223360083315e-18
0
-2.11903049178315e-18
-2.2835585594404e-18
0
4.68352517595062e-18
0
-2.63453024138118e-18
-1.3552893852857e-17
5.75964448042025e-18
0
-4.61924806416488e-18
9.82528624365249e-20
0
8.67080463270956e-18
6.90961738318435e-18
4.92352387486283e-18
-3.27977036687412e-18
2.87800126990089e-18
-5.06361983406839e-18
0
-4.39099824295823e-18
4.47546159990373e-18
-6.39469532965805e-18
0
-4.29556454924173e-18
2.39213468499814e-18
0
-3.25501282653033e-18
1.42095565619811e-18
0
3.26416484102585e-18
0
6.57184813003974e-18
0
0
-2.68050500710954e-18
0
2.25345189115178e-18
4.88234691672223e-18
1.91350348542029e-19
2.17782016102537e-18
8.81092810842884e-18
-4.08518172442127e-18
0
-1.90638438261126e-18
0
-3.50371189320375e-18
-1.66791812569262e-18
0
1.48453757821286e-18
0
0
0
2.105450178812e-16
1.95199104467802e-16
-4.14806901437684e-18
-2.44890935308973e-18
2.26007446233335e-18
0
0
-2.29822247851648e-16
-2.25374040706373e-16
0
6.58744238591378e-18
0
-1.92781001085893e-19
0
-2.2600744623334e-18
2.33956834774088e-16
2.26154272410174e-16
0
0
-4.32736792358048e-18
-4.52014892466629e-18
2.2342758646679e-16
2.24091781067297e-16
-4.32736792358054e-18
0
0
1.92781001085895e-19
-2.26007446233342e-18
-1.92781001085892e-19
1.9278100108589e-19
-2.26007446233341e-18
-1.92781001085902e-19
0
4.13458692249467e-18
0
0
-1.92781001085895e-19
-6.5874423859137e-18
4.13458692249456e-18
0
-4.52014892466637e-18
-2.30015028852737e-16
-4.46877500231679e-16
-2.28148577334066e-16
-4.52014892466685e-18
-6.78022338699892e-18
0
0
-2.23234805465715e-16
-2.25202660559688e-16
-1.92781001085893e-19
4.52014892466565e-18
0
-4.32736792358049e-18
-2.06345943213567e-18
2.45943603101981e-18
9.1689210536447e-18
2.27013818123556e-18
0
2.78681257314361e-18
0
0
5.1217466256112e-18
-8.91576749039802e-18
-3.69554777988964e-18
5.68466483895969e-18
1.93818633017449e-19
-1.97610929158497e-18
6.31931710640573e-18
0
0
0
4.6887334547299e-18
0
5.4965492423442e-18
5.55216931395836e-18
1.6037331794804e-18
6.12402439655594e-18
-3.28819675296621e-18
1.7925927509896e-18
-3.06861402468155e-18
8.78162527803768e-18
3.41886178074754e-18
-4.79292137241627e-18
-5.54956990038986e-18
0
-2.34232803520598e-18
-2.26584305130987e-18
0
4.18451648558056e-18
0
2.07322655325181e-18
0
0
4.23717727814158e-18
6.3998277206427e-18
1.578600050092e-18
-1.90703024879245e-19
-1.90721959885262e-19
0
4.85628489785897e-18
2.71558900409714e-18
0
0
0
-1.91289923563628e-19
9.0800190607376e-18
-6.48584417206953e-18
-1.91449632811964e-19
2.15956052483251e-18
0
2.02867305605677e-18
-1.5731787126671e-18
0
-1.99144248933133e-18
0
5.72655887457786e-18
1.92048567623812e-19
0
-5.06307322292686e-18
-1.92376502125224e-19
2.26659089910635e-18
0
0
0
4.18448126895427e-18
-4.37726354208826e-18
0
-2.381414044178e-18
-4.57004581522212e-18
0
3.99169899582074e-18
2.38141404417772e-18
-1.92782273133926e-19
0
0
4.570045815222e-18
4.37726354208862e-18
0
-6.18033076686431e-18
2.18863177104411e-18
1.92782273133913e-19
2.18863177104434e-18
6.37311303999754e-18
-2.1886317710443e-18
4.3772635420881e-18
4.18448126895373e-18
6.56589531313292e-18
2.57419631731166e-18
-6.18033076686506e-18
-4.18448126895419e-18
-2.18863177104429e-18
0
-6.18033076686506e-18
2.18863177104429e-18
-2.18863177104387e-18
1.92782273133921e-19
-4.18448126895429e-18
0
4.18448126895418e-18
-6.18033076686506e-18
-4.18448126895418e-18
0
-2.38141404417798e-18
1.80306722477649e-18
4.18448126895373e-18
1.99584949791036e-18
-1.92782273133912e-19
-4.37726354208813e-18
-8.36896253790855e-18
0
4.37726354208781e-18
4.37726354208866e-18
0
8.54706971699705e-18
4.19675998698523e-18
0
2.38427190852148e-18
-5.06165955609047e-18
2.50214464268703e-18
5.54907796655787e-18
2.86114441091822e-18
-3.62406994252218e-18
-1.41330805898146e-18
-5.25666776189148e-18
3.5278965338728e-18
3.87631791425649e-19
-2.29184663863803e-18
0
0
0
-2.17336367827285e-18
0
1.94137849713218e-19
-5.11372725149536e-18
-1.94281708855624e-19
0
4.2812103382575e-18
0
-3.0764039821579e-18
-1.76525419361274e-18
3.35169370211197e-18
3.29974486213206e-18
5.90757602187304e-18
2.67521780506199e-18
1.93624838794734e-19
-4.53544203260369e-18
0
1.99584949790978e-18
3.95027586693662e-18
-2.12468574367079e-18
2.19367299273036e-18
-2.22689318884739e-18
-5.15220770776281e-18
5.68851912309165e-18
-1.68565669052866e-18
0
-3.02456353066299e-18
0
-4.49237058222594e-18
-2.93989284105924e-18
0
-2.29436408994222e-18
1.91144498282176e-19
2.26784416342278e-18
0
1.91349949992318e-19
1.9140289402432e-19
-4.10304190353837e-18
0
7.72495883189698e-18
-1.91585793105973e-19
1.7007857009951e-18
1.91706880048818e-19
1.91778186643924e-19
-1.91858279749843e-19
1.91949275165635e-19
5.36174504783118e-18
0
-2.4496776598091e-18
4.4247262063473e-18
-2.19476441425931e-18
-2.12584472400244e-18
-6.15550686700362e-18
2.11971649463994e-18
0
-4.04664939532777e-18
0
-2.11971649463985e-18
-3.85386580137626e-18
5.97358229601566e-18
2.11971649464004e-18
0
-5.97358229601631e-18
-2.11971649463982e-18
0
0
0
-4.04664939532775e-18
-4.04664939532775e-18
-2.83455532150433e-16
-2.89391966450207e-16
0
0
-1.92693290068817e-18
0
0
4.04664939532774e-18
0
-2.11971649464031e-18
0
1.9278359395189e-19
0
-4.23943298928007e-18
-2.11971649464005e-18
0
2.85575248645074e-16
2.83585434636065e-16
1.92783593951887e-19
1.92783593951897e-19
0
0
1.92783593951887e-19
-2.11971649463981e-18
1.92693290068813e-18
0
-1.92783593951889e-19
2.11971649463987e-18
-1.92693290068815e-18
0
-1.92693290068815e-18
0
1.92783593951888e-19
0
0
-6.18422634224672e-18
1.93055510218285e-19
2.30803698240269e-18
2.44903636662859e-18
2.6074092860404e-18
-5.35936159353498e-18
0
1.93589334136776e-19
-1.35543609162184e-18
3.44696133560817e-18
1.93764967524401e-19
-3.92659777762754e-18
2.028550177073e-18
-2.08935662025869e-18
0
-2.2144086439549e-18
-2.28763357143953e-18
-1.10701692297113e-17
0
3.88400766872171e-19
1.94276078118791e-19
0
0
1.62770086009362e-18
-1.48052955487932e-18
-6.24199074041165e-18
2.84482196023231e-18
-4.87453860565125e-18
-2.8458339950143e-18
5.54647312547254e-18
0
-6.39406606531932e-18
0
-6.16636588996856e-18
-3.91373179518206e-18
2.25070266010517e-18
-5.98816063324082e-18
-1.95673557413426e-18
0
-3.12226613183274e-18
9.01830114989795e-18
1.65373466025588e-18
-1.45555907691775e-18
-6.27404897842975e-18
0
8.12903725263363e-18
0
0
1.91144606912906e-19
1.91221594453096e-19
-6.67101468703026e-18
-1.91349740588607e-19
0
0
-3.84519209831789e-18
0
0
3.46967362568046e-18
-1.56859070209585e-18
1.91777770338082e-19
-1.91857925244455e-19
-2.85472248801302e-18
1.92048411724387e-19
0
2.56297352246969e-18
2.42734024582835e-18
-1.93297605348357e-18
0
0
7.82738777352751e-18
1.92784965494261e-19
0
0
0
-1.86045446063505e-18
0
0
0
-2.0532394261293e-18
0
0
0
-2.05323942612931e-18
-3.91369388676384e-18
1.8604544606348e-18
2.77477295411822e-16
2.71713759758512e-16
0
4.10647885225859e-18
-1.86045446063482e-18
-2.05323942612907e-18
2.05323942612906e-18
0
-1.86045446063482e-18
0
-1.9278496549426e-19
0
2.05323942612929e-18
0
0
0
-2.71510362098932e-16
-2.7357421421917e-16
0
-1.92784965494247e-19
1.86045446063481e-18
1.92784965494262e-19
0
-8.02017273902211e-18
0
2.05323942612907e-18
3.91369388676385e-18
3.91369388676385e-18
-2.05323942612932e-18
-1.86045446063487e-18
-1.9278496549425e-19
0
0
0
1.92809143160578e-19
3.9251448231898e-18
4.25008564303293e-18
0
0
0
-2.68489309784323e-18
-5.51512038667226e-18
-1.93588043632536e-19
1.68691531710973e-18
-1.93709922925912e-19
1.93762371520526e-19
-2.09265759753024e-18
-7.45858168643803e-18
1.93892302055497e-19
-2.07737893307671e-18
1.93970298861984e-19
0
-1.94069233963121e-19
-1.94128388553854e-19
7.23161387641123e-18
9.95518725863576e-18
5.03065800478013e-18
3.03340910725559e-18
0
0
1.64973352981308e-18
0
-7.78235815269623e-18
2.54735325511124e-18
-1.94063893448478e-19
0
1.93313650933707e-18
3.92384589636083e-18
1.92784965494252e-19
0
1.80099194355212e-18
1.92367356065121e-19
4.14624945931873e-18
4.78866174399198e-18
3.0218944248974e-18
-5.73491369726856e-18
1.7897355774685e-18
1.59156228442447e-18
-2.74361772149871e-18
2.65621095701223e-18
-5.28435823776285e-18
-1.90959769103476e-19
2.30394878447577e-18
6.9753883131654e-18
-4.20667499550189e-18
-2.21013131289306e-18
2.32604664993484e-18
0
1.81510937821757e-18
1.75997085198712e-18
0
-1.91584924601241e-19
1.91642106654659e-19
-1.91705978790941e-19
0
-2.53727551460802e-18
-2.75975240816933e-18
0
-2.44079436825099e-18
6.49908931513919e-18
-1.92378554708661e-19
3.9247830895641e-18
-3.98962399164918e-18
0
-3.97822903091821e-18
0
0
-1.92786389800243e-19
3.59265625131778e-18
-1.98911451545914e-18
-1.92786389800253e-19
-1.92786389800246e-19
0
-3.78544264111804e-18
3.78544264111804e-18
1.98911451545915e-18
4.1710154207181e-18
0
-3.78544264111762e-18
0
0
-3.59265625131729e-18
1.98911451545909e-18
0
3.78544264111805e-18
0
0
5.77455715657726e-18
1.92786389800245e-19
0
-1.92786389800253e-19
1.92786389800244e-19
0
1.98911451545914e-18
0
0
3.78544264111799e-18
0
0
1.92786389800243e-19
-1.92786389800254e-19
0
-3.78544264111799e-18
0
-1.98911451545935e-18
5.96734354637686e-18
0
1.98911451545916e-18
0
-1.98911451545914e-18
0
0
7.57088528223527e-18
0
0
0
0
-4.13394938608636e-18
-4.20151167451056e-18
0
-2.40318425764554e-18
-2.37239517807605e-18
0
-4.12458134074206e-18
-3.02194444315043e-18
1.96617648767985e-18
1.8366778235167e-18
1.03973142068033e-15
9.31819924931552e-16
-3.82273280770473e-18
0
-3.88025040281132e-19
-4.42383673238425e-18
-1.94123421042563e-19
-1.2420492979032e-15
-1.1645224626553e-15
0
0
1.94507563893986e-19
5.67964725574577e-18
1.94584600662004e-19
1.79735624705077e-18
2.7726610224633e-18
-1.94346526733284e-19
3.88124200009639e-19
-6.80972414688051e-18
-1.86616690584187e-18
0
1.98911451545766e-18
3.56535611845879e-18
-3.67059269039023e-18
1.80045355990681e-18
1.91890667417497e-19
4.99923486002314e-18
1.91033141110023e-19
0
-2.52021836142682e-18
3.07761767783854e-18
3.02157463881236e-18
0
3.81721172337986e-19
0
-4.62709821164402e-18
-2.30718453506062e-18
-4.24209429791262e-18
1.94428069580899e-18
8.06103763371771e-18
-1.9140204967051e-19
1.74848254431367e-18
-5.46936071684627e-18
-3.47451766091388e-18
-1.77516070818616e-18
-1.5219569553305e-18
-1.91705504558147e-19
4.74007228364341e-18
0
1.91948518566076e-19
2.51175336433114e-18
-2.36165948521008e-18
6.27864284381895e-18
2.09549792661111e-18
-1.99417235044307e-18
-3.67286715842e-18
-1.92763535679972e-19
-3.6617296473323e-18
-1.92725875816515e-18
0
1.92725875816519e-18
1.92787868998117e-19
1.92725875816493e-18
1.92787868998118e-19
-5.3962005364993e-18
0
-3.66172964733215e-18
1.92725875816513e-18
1.73447088916726e-18
0
-1.92725875816536e-18
-1.92787868998119e-19
-5.58898840549752e-18
-9.25071805283069e-18
0
-3.66172964733269e-18
-1.92787868998127e-19
-1.92787868998117e-19
9.25071805282859e-18
-1.73447088916703e-18
0
7.51624716366225e-18
-3.66172964733207e-18
0
0
5.58898840549801e-18
3.46894177833371e-18
-1.73447088916723e-18
1.92725875816516e-18
7.3234592946651e-18
-1.92725875816517e-18
3.66172964733227e-18
0
-1.92725875816537e-18
1.73447088916705e-18
1.92787868998115e-19
-5.78177627449476e-18
0
0
-1.92787868998118e-19
0
0
0
0
-1.92725875816535e-18
0
-1.92725875816532e-18
0
0
-1.99381112248686e-18
0
-4.24792981989934e-18
4.52941963580228e-18
0
0
5.64632584966247e-18
8.71207345812554e-18
6.21219722770354e-18
0
0
-8.67568184091652e-16
-1.01992922394891e-15
-7.18513965616671e-18
1.93962254074479e-19
0
0
1.83030299166309e-18
1.08111555858294e-15
1.24221552322495e-15
-2.33062098990448e-18
-5.09355436490291e-18
0
-2.63908989978296e-18
2.69542734405061e-18
-1.94564020417744e-19
-2.66958428466454e-18
-2.73872369303948e-18
0
0
1.80156587479198e-18
0
-5.78177627449626e-18
0
-1.67909844701038e-18
-2.12291973174854e-18
1.91890819275897e-19
1.56068584143385e-15
1.58237294751012e-15
2.76044783311479e-18
0
-1.33559897291494e-15
-1.36782033885269e-15
-2.65027884171261e-18
0
-1.90960867184532e-19
0
1.91144954678271e-19
0
0
0
1.93158440699568e-18
8.80398273526068e-18
-3.45796172725084e-18
1.77289124635743e-18
1.71729221226321e-18
1.91641140385319e-19
0
0
0
0
-1.92048155922917e-19
4.57064242466833e-18
-8.21615992739572e-18
4.05888439482125e-18
0
0
0
-1.86759208796629e-18
5.21719745328101e-18
0
1.9278940530951e-19
-5.40998685858978e-18
-7.27757894655558e-18
0
5.21719745328088e-18
0
-3.73518417593295e-18
-1.92789405309517e-19
1.68950398033116e-16
1.76904314345972e-16
0
-3.54239477062304e-18
-1.92789405309521e-19
-1.67480268265696e-18
0
-1.67480268265691e-18
5.40998685858975e-18
-7.08478954124667e-18
-5.40998685858921e-18
0
0
0
0
0
0
1.92789405309508e-19
1.92789405309521e-19
1.67480268265698e-18
1.92789405309521e-19
-7.27757894655653e-18
-3.5423947706234e-18
-8.95238162921219e-18
3.73518417593291e-18
-3.54239477062339e-18
3.54239477062377e-18
0
0
0
0
0
7.08478954124686e-18
-3.54239477062304e-18
0
8.95238162921307e-18
-1.86759208796645e-18
1.86759208796651e-18
0
1.86459160541027e-18
0
0
1.83594691340643e-18
1.9565036468613e-18
0
1.93435979217252e-19
5.15916458902843e-18
2.92229284930499e-18
-1.93646498046847e-19
4.40378121131376e-18
0
0
1.96838128437277e-18
4.89785130405148e-18
0
0
-1.99590081083424e-18
5.80841994846005e-18
-1.94112988699455e-19
-2.03614023500672e-18
4.46210496680275e-18
0
3.888394205891e-19
1.94491147183085e-19
-1.94542961818619e-19
-2.98284338737937e-18
0
-1.94489203741141e-19
2.64527116910385e-18
-2.42182276174552e-18
0
2.12564340899279e-18
5.42351508256253e-18
0
6.66182003203272e-18
0
8.96767078936203e-18
5.9705525665648e-18
-1.57908786365109e-15
-1.46602911606222e-15
1.90835006011301e-19
0
1.37323489811079e-15
1.22846039152052e-15
-2.74793551145661e-18
2.46040622617849e-18
-1.96917162201396e-18
-2.05522071355271e-18
2.15246601456402e-18
-1.91221484307415e-19
-3.98858306904592e-18
-7.32700244548726e-18
0
-5.05813939523743e-18
-1.57321755269116e-18
0
-1.661473504677e-18
0
0
-2.57947530090399e-18
1.91856377042707e-19
-4.98902400925486e-18
-6.66662280173443e-18
-1.9215270503207e-19
-5.86085128195282e-18
0
1.92506705830976e-19
3.43764788836677e-18
-1.61429250748277e-18
1.92791001054163e-19
-1.81003727316816e-18
6.66177608950954e-18
0
-1.4998635751451e-16
-9.32536039055531e-19
1.58001531237739e-16
0
6.85456709056371e-18
-6.85456709056362e-18
-3.42728354528223e-18
-1.6273153669035e-16
-1.65926489054978e-16
0
0
0
1.92791001054159e-19
6.85456709056449e-18
3.42728354528188e-18
-1.61724627211386e-18
0
-1.92791001054156e-19
0
3.62007454633603e-18
-1.81003727316798e-18
-1.92791001054155e-19
-1.92791001054155e-19
5.04452981739575e-18
0
-5.23732081845036e-18
-1.92791001054158e-19
5.23732081845039e-18
0
1.92791001054155e-19
0
-1.92791001054167e-19
0
0
0
3.29275938928086e-16
3.13459041091584e-16
1.61724627211385e-18
0
-1.56069760600837e-16
-1.47912471602947e-16
0
3.62007454633605e-18
0
-3.42728354528217e-18
1.92791001054155e-19
0
-1.9294047577503e-19
0
1.77226912460291e-18
3.96962517578329e-18
1.93354717519614e-19
-1.93435743478832e-19
-4.98879938325993e-18
-1.93582407656688e-19
2.77167374165451e-18
-1.93700278720068e-19
-1.60610556312887e-18
0
3.23927567297724e-18
-1.57262281488647e-18
1.81551849835704e-18
1.86927034734076e-18
1.9399895117769e-19
3.7983077718262e-18
2.07100678928014e-18
-1.94172265501629e-19
0
6.86513341767766e-18
2.26824658439375e-18
-2.55973585242948e-18
2.63765307644349e-18
2.88473326703389e-18
0
0
-2.36079816283796e-18
-1.94056331070802e-19
-1.67141802314086e-18
-1.87233640107526e-18
0
5.23732081844362e-18
0
5.08244471940448e-18
0
-3.78564359362532e-18
3.9442012725066e-18
-2.27267444136389e-18
0
2.60699325573437e-18
2.78313608744623e-18
-2.54199177030698e-18
-1.90783576888488e-19
2.18365118419355e-18
0
-6.12547648915874e-18
-2.27035202656237e-18
1.99916269284061e-18
0
0
-6.83934542782305e-18
-1.75388919982788e-18
-4.54597997009906e-18
7.72010122285718e-18
5.66419721400073e-18
0
2.79952165806081e-18
0
1.91855955186913e-19
0
-2.46578587860683e-18
-4.08913252603868e-18
1.92263623102944e-19
-1.51949275132521e-18
3.43574318287958e-18
0
-1.9276829581157e-19
8.1942211077313e-18
-3.31624697482307e-18
3.31624697482305e-18
-1.75451981673893e-18
1.47727544375523e-16
3.00302479862291e-19
-1.47463024439249e-16
-1.56172715808411e-18
-3.31624697482346e-18
-1.92792658654812e-19
1.75451981673912e-18
0
0
0
4.87797413290725e-18
0
1.92792658654813e-19
1.92792658654802e-19
0
6.43970129099207e-18
0
1.92792658654814e-19
-1.75451981673894e-18
1.92792658654814e-19
0
-1.92792658654813e-19
1.75451981673894e-18
-5.07076679156191e-18
1.92792658654811e-19
3.31624697482381e-18
5.07076679156203e-18
-1.75451981673893e-18
-1.75451981673894e-18
0
1.75451981673896e-18
1.75451981673913e-18
-1.92792658654811e-19
-1.75451981673913e-18
3.31624697482307e-18
-3.05403829675451e-16
-3.1372686159736e-16
0
0
1.49289271533578e-16
3.16457097117156e-16
1.58727983162938e-16
0
0
4.87797413290715e-18
-1.57097907323996e-16
-1.56121607459961e-16
3.32587154527095e-18
0
-3.61485909608807e-18
0
1.93355086049505e-19
0
0
-4.90582299448303e-18
0
2.80015535534303e-18
0
-1.60924934504501e-18
8.99461203106731e-18
6.44676861197393e-18
1.75575043039952e-18
4.84037825314273e-18
-1.93994124682603e-19
7.52319098593973e-18
-1.80704473697194e-18
2.08117904412052e-18
8.10231055463968e-18
0
-4.36481597600519e-18
4.93993966585893e-18
-2.5448726177633e-18
1.94550525692445e-19
0
-2.7707683387983e-18
1.94328154883841e-19
2.07015165747747e-18
0
0
0
-1.92792658654814e-19
0
0
1.56427336366899e-18
0
-1.99324381057629e-18
2.18887524594263e-18
-7.06733497501841e-18
0
5.00236933830588e-18
-2.45249935405704e-18
0
4.20164758138868e-18
2.00025344973052e-18
-3.80760362581116e-18
0
0
7.06888970263245e-18
-3.41107465745197e-18
1.91400785995831e-19
-1.91446827862015e-19
-7.68041883174043e-18
0
0
2.81504024236997e-18
0
0
0
0
1.92047871149654e-19
0
1.5676727241171e-18
-1.92382528956759e-19
-1.75830628170992e-18
0
0
1.70096785993395e-18
0
0
0
1.50817347929147e-18
0
1.70096785993379e-18
-1.92794380642542e-19
-1.50817347929137e-18
1.50817347929126e-18
0
1.92794380642539e-19
-6.41828267845169e-18
0
0
0
0
1.70096785993374e-18
0
6.41828267845085e-18
0
0
0
-1.92794380642535e-19
-1.92794380642547e-19
6.41828267845058e-18
-3.20914133922492e-18
0
0
3.20914133922581e-18
6.41828267845013e-18
1.50817347929126e-18
0
0
1.50817347929144e-18
0
0
3.20914133922583e-18
-1.92794380642534e-19
0
6.61107705909268e-18
-1.92794380642535e-19
1.92794380642537e-19
-6.41828267845013e-18
-1.50148715104102e-16
-1.55789638630542e-16
0
6.41828267845091e-18
0
1.50534303865389e-16
1.60505898792132e-16
-1.92944171105494e-19
-3.3230917706658e-18
-6.99270729929403e-18
-7.42129709564056e-18
-4.14412187940816e-18
0
4.47241046446371e-18
0
-5.17691547246719e-18
5.41061308801108e-18
0
-2.53330233917302e-18
0
0
-1.31029230167833e-18
1.93944486590618e-19
-4.82749478934513e-18
0
5.41311417574838e-18
-1.81640273944163e-18
-1.90272747083857e-18
1.99905406412219e-18
0
0
-2.64992164984579e-18
1.94541332029195e-19
0
-2.48710324923833e-18
-4.57432833920825e-18
6.37460668642737e-18
1.93628911963538e-19
-1.75842053838869e-18
-1.51209900460164e-18
0
0
1.9270555441994e-19
0
0
2.30409476794368e-18
-1.91034468029756e-19
0
-1.90742034138445e-19
-1.90714215824913e-19
0
-2.10647198435518e-18
-2.02095427797506e-18
2.30649007087621e-18
0
-1.91145473385804e-19
0
-1.60934622709912e-18
2.9088463714736e-18
1.68827547310876e-18
-1.44915216699063e-18
0
5.44556933737825e-18
0
2.91069095852914e-18
-5.22615605030409e-18
0
0
-4.7047765689953e-18
0
0
1.92264617062697e-19
0
-1.70446255105483e-18
-3.1151319964703e-18
1.92771785346907e-19
6.21165601801576e-18
1.64931208933503e-18
1.64931208933503e-18
0
-2.91303183934547e-18
1.92796169662237e-19
0
0
-7.86096810735096e-18
-1.92796169662245e-19
-7.05684207471417e-16
-7.17894119494098e-16
0
1.45651591967261e-18
1.64931208933503e-18
1.45651591967279e-18
0
0
-6.21165601801632e-18
-7.13352379409019e-16
-7.16994124038578e-16
0
1.64931208933503e-18
1.64931208933503e-18
0
-1.64931208933491e-18
0
1.45651591967279e-18
0
4.56234392868088e-18
1.64931208933498e-18
0
0
0
7.18985646918128e-16
7.12344631837664e-16
0
-1.92796169662235e-19
-1.92796169662248e-19
-3.10582800900795e-18
0
-3.10582800900772e-18
-1.92796169662238e-19
1.92796169662233e-19
0
0
0
-1.92796169662234e-19
6.21165601801569e-18
-1.64931208933503e-18
3.1007052783783e-18
0
0
-1.40125661101091e-18
-7.17597063993404e-18
-6.01801530605025e-18
0
0
0
0
2.61381541290318e-18
-5.24614480003237e-18
2.82074055018916e-18
2.91548630697901e-18
0
-1.44859832479541e-18
4.87663532602647e-18
3.29283852566673e-18
-8.43094399236666e-18
0
-1.74830497510707e-18
-3.6621660792001e-18
0
-1.94385880487318e-19
4.59988399207994e-18
0
0
7.09934929257306e-18
2.20662620882271e-18
0
-3.84698053245487e-18
1.86905307760604e-18
1.93203596238608e-19
0
0
1.50311211696041e-18
-1.60287679562909e-18
-2.91669537528671e-18
-1.91891667440269e-19
-1.85196573615053e-18
-8.50242939760037e-18
4.62820497034587e-18
2.15196332749717e-18
1.90715660703965e-19
0
-1.90787234511518e-19
4.0787440082774e-18
-1.66061075969871e-18
-1.57191771492147e-18
-1.4924086946437e-18
-1.99526315870461e-18
-4.64797858132952e-18
3.17625605635001e-18
1.44134780899005e-18
1.91446003605013e-19
0
1.91530899369344e-19
-6.80856179787712e-16
-7.92434669637512e-16
1.91702295061237e-19
0
4.60749389061234e-18
1.99064570745739e-18
0
-3.69232632051136e-18
6.94190883949307e-18
-3.27280810983875e-18
-1.46001290558188e-18
-7.44154794235371e-18
-1.59695029887149e-18
-6.01234653182978e-18
0
0
0
3.1989712943936e-18
1.92798028478618e-19
3.19897129439384e-18
0
0
0
7.01716095954727e-16
6.84096280984279e-16
3.19897129439357e-18
0
1.21388959023967e-18
3.00617326591486e-18
0
0
0
6.96917639013056e-16
6.82580838148171e-16
0
-3.00617326591486e-18
0
-3.19897129439383e-18
3.00617326591453e-18
0
0
-1.21388959023968e-18
0
0
-1.59948564719674e-18
-3.19897129439381e-18
0
-6.84643046501471e-16
-7.00553409910288e-16
-4.41286088463351e-18
0
1.9279802847861e-19
3.00617326591483e-18
-8.82572176926733e-18
-1.59948564719679e-18
0
0
1.59948564719692e-18
0
0
1.59948564719673e-18
0
0
0
0
0
-4.8110653238948e-18
0
0
0
0
0
0
-4.85743776970974e-18
-2.82114031312908e-18
-5.44829534092271e-18
3.00894172676256e-18
-2.9002179080528e-18
-1.58886824568222e-18
-3.0754347227286e-18
0
-1.74261512426545e-18
-1.61203011345969e-18
0
-1.76199188473316e-18
2.04477024153006e-18
0
0
0
0
1.94513810681139e-19
-2.31813342911281e-18
1.94312701114777e-19
-3.51400599428693e-18
-3.4268907077012e-18
0
6.02695436409041e-18
0
0
-1.92709069625583e-19
-1.92375343014755e-19
0
-5.35515646126997e-18
0
-2.04329758828484e-18
-1.90744597445535e-19
-2.24657148881848e-18
4.40554768690822e-18
8.17488369408615e-18
0
3.56238457284204e-18
0
-1.91145758323001e-19
0
-7.83977733393573e-18
6.13013189011329e-18
0
0
-2.60716186085006e-18
3.83060726377747e-19
7.83662982037117e-16
6.38447354358542e-16
-6.74370508663319e-18
-1.91773304229543e-19
0
-1.91946408841503e-19
1.80177976889335e-18
-7.13858867089671e-18
4.93894590160451e-18
0
-6.21718831305153e-18
0
0
-2.91004812996399e-18
0
0
0
6.57254916063904e-16
6.7591952955028e-16
5.82009625992864e-18
0
5.82009625992843e-18
-1.92799959982396e-19
0
0
0
-8.53734442990922e-18
0
-5.82009625992754e-18
1.92799959982397e-19
1.92799959982398e-19
0
8.53734442991017e-18
-2.71724816998149e-18
2.71724816998181e-18
-8.53734442990924e-18
-5.62729629994536e-18
2.91004812996454e-18
0
8.53734442990928e-18
0
-2.71724816998182e-18
6.70841156913835e-16
6.63612609849633e-16
-1.92799959982389e-19
0
0
0
0
-2.52444820999975e-18
-3.10284808994615e-18
-2.910048129964e-18
0
2.91004812996419e-18
1.92799959982406e-19
8.53734442990889e-18
2.91004812996368e-18
3.10284808994682e-18
6.78800101463799e-16
6.51400764780545e-16
8.53734442990919e-18
0
0
0
0
0
0
-3.35551487567489e-18
7.32990056955927e-18
0
0
2.22813166958401e-18
-2.14360048211789e-18
-2.4404365421508e-18
-2.73187473754142e-18
0
-2.71831002522196e-18
0
-2.68650115062135e-18
1.93929557692693e-19
-6.13291757166884e-18
-4.86023899346557e-18
-1.93974881058205e-18
3.62687229672222e-18
-1.6953643989816e-18
-1.94286835599572e-19
-1.86863217235619e-18
1.94435420782427e-19
-2.20574795780716e-18
6.36029485869673e-18
-4.33444208995887e-18
-1.84924270151258e-18
1.94307205052389e-19
3.57404107528189e-18
-1.93630772671076e-19
0
0
-8.53734442990901e-18
0
0
-2.71957292244568e-18
3.0060851101707e-18
-7.26478346281781e-18
1.6913406053738e-18
0
-4.17299779442969e-18
1.97698331946947e-18
0
1.90789862029525e-19
1.79807467352343e-18
0
0
1.75021169564081e-18
0
1.2443249457961e-18
0
-5.72735837787479e-18
-5.74975432220481e-18
0
2.24058634903546e-18
0
0
0
2.25861674755164e-18
-2.15413351029516e-18
0
-3.85984175128413e-18
0
1.52712814510912e-18
-1.82042433648869e-18
0
2.82568020864431e-18
0
1.92801967197044e-19
0
0
-1.92801967197051e-19
-6.41603814769672e-16
-6.3162830684939e-16
0
2.8173281926439e-18
3.01013015984127e-18
0
0
-1.92801967197037e-19
0
1.92801967197049e-19
2.81732819264433e-18
1.92801967197051e-19
3.01013015984127e-18
5.24905245089326e-18
-1.92801967197049e-19
0
0
0
1.92801967197046e-19
0
-1.92801967197046e-19
-2.62452622544651e-18
2.62452622544695e-18
-3.85603934394073e-19
0
-6.37318772154748e-16
-6.46184668296022e-16
0
-2.81732819264412e-18
6.50248601314877e-16
6.34731845466631e-16
1.92801967197055e-19
0
0
0
0
0
5.63465638528842e-18
0
5.63465638528822e-18
-3.01013015984144e-18
-6.34501443962099e-16
-6.55573360599961e-16
0
-2.8173281926441e-18
0
0
6.55775367510301e-16
5.83943385269745e-16
0
1.93273510929225e-19
0
-3.66676518464053e-18
0
-1.93572343406848e-19
0
-2.35832430958245e-18
4.90408276353229e-18
2.54111474041859e-18
-2.62493668389502e-18
-2.70343226795565e-18
-1.93885773802496e-19
5.73020810561747e-18
5.72456488646669e-18
1.43493388379188e-18
4.67399929263674e-18
-3.11643846260849e-18
0
-1.90659547498007e-18
-1.79707380904126e-18
-3.9396438967732e-18
-2.12841570655812e-18
-1.97641232293593e-18
1.99101285490379e-18
-1.94437587554167e-19
-1.88329590876231e-18
1.94042837371633e-19
-1.9363143958898e-19
-1.93209404385604e-19
0
0
-9.6430522101812e-20
0
-1.92377746883029e-19
-1.91892255832553e-19
0
0
-2.08265548335683e-18
8.04147485398279e-18
-1.90720263464921e-19
-3.81477985443731e-19
-1.99210111018459e-18
0
-4.94365372039275e-18
6.66221474261218e-18
0
0
-5.71837830098557e-18
0
-2.76404483581891e-18
2.68288763886923e-18
7.63485526520923e-18
2.5335496354105e-18
4.90634653427663e-18
0
8.72939508819875e-18
0
0
-3.76088846239395e-18
7.08899669287903e-18
6.67224160179781e-18
-5.5370352334674e-16
-6.43860609170964e-16
0
0
0
0
2.7278934560468e-18
-5.45578691209301e-18
-2.72789345604681e-18
2.92069750933237e-18
0
-1.92804053285868e-19
6.10177676935272e-16
6.35770399106258e-16
0
-2.53508940276094e-18
-5.26298285880715e-18
-1.92804053285867e-19
-2.53508940276065e-18
-2.72789345604679e-18
0
0
2.7278934560466e-18
0
0
0
0
0
0
2.92069750933308e-18
0
0
-5.45578691209302e-18
0
-5.455786912093e-18
0
0
1.92804053285864e-19
-6.1544065979396e-16
-6.23285536895821e-16
2.72789345604681e-18
0
0
0
-2.72789345604679e-18
0
0
0
-1.92804053285851e-19
0
1.92804053285864e-19
0
1.92804053285869e-19
-2.72789345604682e-18
0
0
-5.91591607114855e-16
-6.38201695305915e-16
0
6.08510830730591e-18
0
-1.93433834793807e-19
-2.17022845954191e-18
-6.05813755228491e-18
-1.99059078198321e-18
0
-1.93727231455012e-19
4.7151047186443e-18
0
-1.93846172655633e-19
2.49050371033015e-18
0
2.66192322739165e-18
2.95625348279661e-18
0
0
-6.66501623244355e-18
0
0
5.59585307432886e-18
-1.94464401067746e-19
-8.18503164930307e-18
4.21873281576614e-18
0
0
0
4.55091197033155e-18
-5.64191893332823e-18
-5.46864036924516e-18
0
5.09050929234104e-18
-2.64738962361241e-18
2.53615843167514e-18
0
-1.91380130879232e-19
-1.91036029948409e-19
-3.83104489106726e-18
0
0
-1.9074059871533e-19
0
-3.70668616318138e-18
6.5301114693736e-18
0
-7.3980708959411e-16
-8.31959996685207e-16
-3.04227334531778e-18
-1.91346615373299e-19
0
0
-5.03774656923157e-18
0
4.35591580080327e-18
0
1.91699765866917e-19
4.03008896107698e-18
1.9185255638224e-19
1.91945333441123e-19
0
-1.92154160805733e-19