/*--------------------------------*- C++ -*----------------------------------*\
  =========                 |
  \\      /  F ield         | OpenFOAM: The Open Source CFD Toolbox
   \\    /   O peration     | Website:  https://openfoam.org
    \\  /    A nd           | Version:  7
     \\/     M anipulation  |
\*---------------------------------------------------------------------------*/
FoamFile
{
    version     2.0;
    format      ascii;
    class       volScalarField;
    location    "0";
    object      k_LES;
}
// * * * * * * * * * * * * * * * * * * * * * * * * * * * * * * * * * * * * * //

dimensions      [0 2 -2 0 0 0 0];

internalField   nonuniform List<scalar>
15600
(
0.00505136
0.00393440
0.00031097
0.00014326
0.00015946
0.00012684
0.00003726
0.00002405
0.00006927
0.00002480
0.00001814
0.00001619
0.00007393
0.00005798
0.00006438
0.00005326
0.00006232
0.00006817
0.00006707
0.00005897
0.00005441
0.00010847
0.00010152
0.00010277
0.00011405
0.00014138
0.00011544
0.00010379
0.00011787
0.00008467
0.00006433
0.00012339
0.00015483
0.00010819
0.00008304
0.00006701
0.00006806
0.00006895
0.00007349
0.00007730
0.00008290
0.00008764
0.00009922
0.00010114
0.00011686
0.00011629
0.00012550
0.00013447
0.00014275
0.00015488
0.00016182
0.00017376
0.00018766
0.00019846
0.00020614
0.00021903
0.00022983
0.00023964
0.00025216
0.00026609
0.00028451
0.00030596
0.00032089
0.00034396
0.00037155
0.00038566
0.00041231
0.00044233
0.00047955
0.00049293
0.00053094
0.00057431
0.00059354
0.00066982
0.00067101
0.00072878
0.00075204
0.00080198
0.00084229
0.00089101
0.00097756
0.00106368
0.00116176
0.00129375
0.00131123
0.00123851
0.00046639
0.00016842
0.00000743
-0.00002292
-0.00001788
-0.00001288
-0.00016343
-0.00002402
-0.00018644
0.00001947
-0.00011130
-0.00017015
-0.00011507
-0.00002253
0.00003350
-0.00003471
-0.00018159
-0.00018322
-0.00028948
-0.00043677
-0.00018850
-0.00011585
-0.00028757
-0.00026273
-0.00020164
-0.00002808
0.00004899
-0.00037340
-0.00077680
-0.00132631
-0.00084359
0.00030269
0.00360435
0.00497663
0.01023004
0.00890221
0.00219261
0.00050038
0.00064559
0.00028490
0.00017471
0.00009852
0.00019465
0.00008589
0.00008232
0.00008435
0.00019336
0.00019048
0.00017134
0.00018241
0.00022333
0.00018389
0.00018735
0.00022237
0.00026302
0.00037906
0.00032523
0.00035811
0.00036930
0.00047502
0.00038248
0.00050863
0.00050504
0.00047196
0.00052405
0.00054452
0.00051030
0.00044739
0.00039730
0.00037724
0.00038687
0.00040171
0.00042292
0.00045071
0.00048184
0.00051664
0.00055971
0.00060423
0.00064824
0.00069633
0.00074360
0.00079568
0.00085127
0.00091152
0.00097730
0.00104339
0.00110280
0.00116304
0.00123260
0.00130011
0.00135685
0.00141369
0.00147960
0.00155967
0.00165491
0.00175422
0.00185065
0.00195576
0.00207623
0.00220211
0.00233330
0.00246366
0.00260549
0.00276554
0.00294074
0.00311529
0.00328150
0.00346752
0.00363514
0.00384407
0.00404074
0.00425377
0.00448256
0.00476047
0.00511791
0.00547578
0.00583412
0.00610474
0.00600150
0.00518262
0.00368653
0.00261715
0.00154348
0.00085938
0.00026683
0.00030590
0.00032638
-0.00006445
0.00019751
-0.00003057
-0.00013447
-0.00007186
0.00020362
0.00000541
-0.00007589
-0.00055347
-0.00066670
-0.00031686
-0.00015515
0.00000712
0.00016596
0.00032249
-0.00022440
-0.00019516
-0.00017973
0.00008004
-0.00002166
-0.00139892
-0.00038408
0.00037768
0.00035070
0.00268592
0.00924899
0.01025611
0.01554069
0.01439613
0.00636448
0.00112831
0.00104831
0.00061066
0.00038292
0.00025443
0.00037882
0.00019637
0.00024137
0.00024785
0.00032742
0.00034046
0.00035133
0.00038302
0.00047093
0.00050424
0.00050681
0.00050091
0.00065117
0.00074468
0.00076785
0.00083757
0.00088279
0.00095094
0.00100165
0.00105125
0.00110716
0.00104897
0.00101911
0.00099644
0.00093660
0.00085484
0.00080212
0.00080433
0.00083074
0.00086809
0.00091604
0.00097636
0.00104655
0.00112854
0.00122033
0.00131354
0.00141117
0.00151570
0.00162171
0.00173252
0.00185222
0.00197969
0.00211548
0.00224832
0.00237369
0.00249893
0.00263281
0.00276256
0.00287699
0.00298995
0.00311535
0.00326331
0.00343040
0.00359836
0.00376680
0.00395129
0.00415947
0.00438560
0.00461345
0.00484015
0.00507475
0.00534918
0.00563419
0.00593326
0.00624259
0.00653289
0.00684743
0.00718422
0.00753170
0.00788433
0.00825652
0.00870201
0.00921507
0.00971373
0.01012299
0.01032452
0.00999735
0.00884550
0.00727651
0.00598130
0.00486191
0.00399780
0.00322453
0.00227986
0.00210809
0.00118636
0.00130214
0.00090266
0.00073222
0.00088985
0.00094203
0.00129983
0.00026823
0.00045825
0.00035489
0.00102022
0.00097579
0.00084219
0.00105102
0.00079650
0.00045250
0.00007017
-0.00000096
0.00051015
-0.00072250
-0.00124832
0.00023049
0.00498469
0.00710175
0.01015451
0.01646369
0.01590967
0.01984586
0.01874211
0.01235958
0.00222270
0.00147878
0.00103531
0.00077396
0.00051675
0.00060634
0.00040786
0.00042475
0.00043038
0.00052087
0.00055579
0.00060322
0.00065397
0.00077803
0.00089789
0.00095228
0.00100002
0.00116665
0.00127056
0.00132355
0.00142971
0.00151250
0.00153194
0.00158645
0.00162503
0.00161413
0.00155735
0.00151441
0.00144284
0.00134091
0.00124730
0.00120432
0.00123700
0.00129027
0.00135628
0.00143590
0.00153201
0.00164427
0.00177742
0.00191673
0.00206414
0.00221869
0.00238283
0.00254770
0.00271824
0.00289992
0.00309371
0.00329004
0.00348057
0.00366037
0.00383669
0.00401707
0.00418758
0.00434237
0.00449493
0.00465819
0.00484181
0.00504001
0.00523838
0.00544027
0.00566543
0.00591873
0.00619206
0.00647572
0.00675865
0.00704332
0.00736945
0.00772532
0.00809088
0.00846233
0.00883620
0.00921897
0.00962817
0.01005115
0.01046184
0.01089438
0.01139090
0.01190785
0.01238712
0.01273400
0.01284756
0.01247456
0.01141715
0.01013953
0.00909014
0.00823357
0.00751075
0.00695944
0.00636868
0.00573560
0.00518173
0.00497287
0.00460063
0.00325108
0.00450907
0.00433558
0.00437503
0.00312713
0.00380062
0.00454912
0.00283827
0.00216454
0.00201722
0.00243965
0.00188107
0.00217523
0.00145518
0.00090278
0.00317714
0.00042842
0.00026208
0.00192733
0.01677795
0.01907170
0.02239649
0.02327929
0.02091681
0.02351912
0.02221935
0.01786321
0.00436331
0.00198475
0.00150181
0.00117490
0.00086288
0.00088258
0.00067483
0.00067482
0.00069563
0.00080883
0.00088030
0.00094745
0.00101191
0.00115503
0.00129579
0.00139993
0.00151808
0.00168069
0.00177093
0.00184409
0.00196879
0.00204084
0.00209739
0.00209444
0.00212854
0.00210088
0.00204287
0.00195051
0.00183812
0.00170879
0.00160590
0.00158235
0.00164458
0.00173127
0.00183057
0.00194277
0.00207475
0.00222969
0.00240790
0.00259460
0.00279222
0.00300483
0.00322355
0.00344310
0.00366374
0.00389895
0.00414446
0.00438672
0.00461514
0.00482885
0.00503173
0.00523465
0.00542385
0.00559723
0.00576492
0.00593764
0.00612825
0.00632791
0.00653182
0.00673807
0.00697507
0.00724592
0.00754631
0.00785630
0.00816548
0.00847344
0.00882639
0.00920765
0.00960951
0.01001984
0.01043145
0.01086148
0.01130824
0.01174033
0.01217299
0.01262827
0.01309997
0.01358266
0.01399578
0.01428448
0.01434841
0.01401803
0.01317864
0.01222452
0.01149151
0.01093128
0.01056070
0.01022101
0.01003609
0.00984701
0.00983505
0.00943432
0.00934792
0.00934975
0.00977779
0.00922354
0.00877964
0.00894547
0.00992999
0.01023059
0.00684808
0.00671061
0.00710111
0.00702742
0.00594361
0.00577641
0.00499129
0.00406864
0.00801569
0.00339684
0.00712994
0.00759134
0.02626014
0.03042887
0.03253909
0.02888357
0.02525000
0.02680539
0.02538819
0.02138560
0.00778425
0.00244204
0.00205186
0.00164520
0.00129190
0.00119295
0.00101192
0.00097428
0.00100053
0.00110522
0.00120590
0.00128243
0.00139485
0.00152606
0.00168659
0.00182088
0.00196626
0.00212757
0.00226710
0.00234982
0.00242753
0.00249534
0.00255990
0.00256703
0.00255612
0.00252461
0.00243128
0.00231732
0.00218429
0.00204732
0.00194116
0.00193700
0.00202795
0.00214908
0.00228192
0.00242681
0.00259425
0.00278898
0.00300669
0.00323753
0.00348133
0.00374502
0.00401322
0.00427673
0.00453496
0.00480845
0.00509100
0.00536115
0.00560736
0.00583769
0.00604728
0.00624881
0.00643597
0.00661052
0.00677687
0.00694314
0.00712223
0.00731523
0.00751428
0.00771769
0.00795756
0.00823918
0.00854755
0.00887362
0.00919949
0.00953462
0.00990084
0.01029926
0.01071607
0.01114705
0.01158382
0.01203326
0.01248916
0.01292326
0.01335120
0.01379672
0.01423563
0.01466749
0.01502053
0.01526954
0.01531626
0.01505797
0.01443095
0.01374154
0.01327948
0.01306443
0.01293361
0.01294267
0.01298683
0.01317654
0.01334922
0.01364047
0.01423285
0.01441756
0.01491690
0.01448520
0.01520231
0.01564169
0.01681931
0.01657870
0.01443700
0.01458662
0.01451130
0.01398308
0.01147759
0.01091752
0.01058137
0.01030959
0.01348976
0.00983548
0.01641004
0.01745938
0.03477663
0.03846848
0.03693537
0.03268544
0.02884916
0.02930783
0.02793941
0.02450654
0.01230927
0.00308234
0.00249674
0.00201413
0.00167396
0.00150860
0.00132327
0.00126113
0.00131292
0.00140661
0.00151369
0.00161565
0.00174296
0.00191016
0.00205437
0.00220278
0.00236629
0.00253440
0.00268145
0.00278123
0.00285928
0.00291672
0.00295930
0.00296005
0.00290782
0.00286049
0.00276601
0.00264065
0.00249923
0.00235987
0.00225974
0.00227452
0.00239271
0.00254515
0.00270819
0.00288417
0.00308664
0.00331624
0.00356713
0.00383862
0.00412324
0.00442752
0.00473328
0.00502978
0.00531378
0.00561068
0.00591258
0.00619266
0.00644713
0.00667562
0.00687955
0.00706879
0.00724527
0.00740969
0.00756505
0.00771880
0.00788252
0.00806938
0.00826450
0.00846781
0.00871363
0.00900451
0.00931649
0.00964889
0.00999402
0.01035338
0.01073474
0.01113927
0.01156512
0.01200037
0.01244890
0.01290894
0.01335863
0.01377891
0.01419527
0.01462130
0.01502491
0.01541423
0.01572112
0.01594463
0.01600116
0.01582374
0.01537541
0.01490857
0.01467720
0.01465979
0.01478367
0.01499024
0.01530511
0.01580276
0.01623020
0.01696825
0.01755989
0.01823721
0.01888867
0.01958435
0.02013823
0.02134987
0.02194419
0.02163928
0.02101132
0.02066067
0.02083331
0.02040343
0.01635021
0.01592540
0.01549291
0.01811189
0.01730199
0.01771991
0.02586276
0.03069887
0.03999270
0.04148750
0.03902924
0.03502997
0.03145034
0.03100836
0.02967000
0.02734946
0.01714083
0.00414878
0.00290809
0.00241613
0.00200667
0.00179570
0.00159856
0.00155418
0.00159228
0.00170378
0.00180671
0.00193154
0.00208093
0.00225479
0.00242092
0.00258055
0.00274158
0.00290069
0.00304356
0.00314461
0.00322697
0.00326918
0.00327137
0.00325137
0.00320999
0.00314606
0.00305294
0.00292829
0.00278538
0.00265333
0.00256658
0.00260028
0.00274175
0.00291975
0.00310802
0.00331378
0.00354871
0.00380825
0.00408822
0.00439360
0.00471166
0.00504488
0.00537629
0.00569187
0.00599029
0.00629764
0.00660254
0.00688410
0.00713435
0.00735816
0.00754959
0.00772349
0.00788173
0.00803223
0.00817514
0.00831920
0.00847265
0.00865662
0.00885468
0.00906626
0.00932338
0.00961887
0.00993093
0.01027065
0.01063292
0.01101695
0.01141354
0.01182181
0.01224721
0.01268010
0.01313098
0.01359240
0.01402798
0.01443193
0.01482439
0.01522710
0.01560237
0.01595215
0.01623692
0.01645155
0.01652978
0.01643338
0.01612906
0.01584778
0.01578348
0.01595218
0.01623761
0.01664169
0.01711216
0.01777762
0.01852165
0.01936366
0.02017754
0.02102049
0.02198715
0.02298072
0.02379557
0.02471058
0.02539349
0.02569036
0.02553319
0.02632595
0.02688462
0.02688097
0.02438848
0.02266722
0.02100530
0.02609826
0.02491750
0.02655647
0.03408720
0.03930256
0.04041205
0.04181998
0.03998600
0.03640797
0.03314063
0.03228850
0.03094870
0.02918169
0.02125225
0.00597683
0.00327997
0.00282337
0.00233524
0.00207676
0.00186187
0.00182218
0.00185776
0.00196167
0.00208235
0.00222741
0.00239735
0.00258490
0.00275711
0.00291497
0.00307743
0.00321887
0.00333950
0.00343070
0.00349803
0.00353144
0.00353478
0.00350626
0.00345579
0.00338616
0.00329728
0.00318282
0.00305277
0.00293188
0.00286242
0.00291400
0.00307462
0.00327157
0.00348126
0.00371399
0.00397707
0.00426220
0.00456610
0.00489786
0.00524076
0.00559415
0.00593775
0.00626183
0.00656648
0.00687368
0.00717240
0.00744630
0.00769156
0.00790446
0.00808516
0.00823950
0.00838357
0.00851846
0.00865392
0.00879440
0.00894607
0.00913037
0.00933928
0.00956712
0.00983703
0.01013391
0.01044647
0.01079669
0.01117331
0.01157610
0.01198615
0.01239318
0.01281403
0.01324379
0.01368815
0.01414398
0.01455816
0.01494615
0.01531713
0.01569460
0.01604814
0.01636438
0.01664416
0.01686753
0.01697311
0.01694613
0.01676417
0.01663290
0.01670805
0.01700117
0.01744631
0.01796241
0.01860475
0.01939674
0.02027328
0.02119495
0.02223739
0.02330791
0.02435577
0.02535328
0.02642487
0.02729441
0.02812829
0.02849809
0.02905409
0.02966873
0.03047282
0.03045504
0.02955765
0.02998440
0.02924164
0.03317102
0.03276631
0.03566373
0.03918478
0.04059271
0.04184883
0.04222497
0.04023727
0.03721301
0.03432726
0.03325450
0.03198438
0.03044888
0.02468628
0.00889359
0.00374990
0.00320444
0.00269856
0.00234694
0.00214974
0.00207873
0.00212102
0.00223422
0.00235790
0.00251883
0.00268575
0.00286615
0.00304112
0.00318849
0.00333926
0.00348399
0.00358638
0.00366139
0.00372435
0.00375087
0.00375160
0.00371890
0.00366160
0.00359485
0.00351245
0.00341393
0.00330119
0.00319642
0.00314621
0.00321404
0.00338876
0.00359928
0.00382704
0.00408335
0.00437005
0.00467632
0.00499901
0.00534917
0.00570963
0.00607518
0.00642097
0.00674436
0.00704886
0.00734943
0.00763669
0.00790067
0.00814036
0.00834282
0.00851176
0.00865004
0.00878007
0.00890540
0.00904048
0.00918402
0.00934079
0.00953151
0.00975481
0.01000227
0.01028323
0.01057823
0.01089569
0.01125759
0.01164581
0.01205865
0.01248004
0.01288301
0.01329617
0.01372049
0.01414913
0.01459487
0.01498799
0.01536235
0.01571798
0.01607145
0.01640979
0.01670532
0.01698757
0.01723385
0.01737226
0.01739960
0.01731744
0.01731233
0.01750712
0.01791788
0.01845814
0.01910354
0.01982899
0.02075074
0.02168361
0.02270961
0.02386213
0.02495104
0.02613059
0.02721159
0.02837683
0.02950743
0.03038048
0.03107397
0.03174357
0.03245614
0.03296452
0.03318743
0.03327611
0.03411380
0.03528630
0.03621802
0.03781143
0.03907837
0.04023502
0.04264220
0.04332551
0.04228500
0.04033454
0.03771155
0.03516064
0.03394551
0.03272440
0.03149709
0.02749851
0.01292799
0.00439789
0.00358176
0.00306881
0.00266945
0.00243465
0.00234823
0.00238422
0.00248940
0.00262849
0.00277652
0.00293926
0.00311102
0.00327502
0.00341670
0.00356378
0.00369474
0.00378937
0.00386048
0.00390715
0.00393032
0.00392420
0.00389470
0.00384327
0.00377530
0.00370282
0.00362129
0.00353136
0.00344626
0.00341505
0.00349716
0.00368193
0.00390351
0.00414730
0.00442236
0.00472789
0.00505145
0.00538667
0.00574824
0.00612177
0.00649261
0.00683273
0.00715080
0.00745084
0.00774051
0.00801646
0.00826950
0.00850065
0.00869613
0.00885387
0.00897965
0.00909860
0.00922202
0.00936212
0.00951463
0.00968419
0.00988803
0.01012481
0.01038855
0.01067874
0.01097163
0.01129757
0.01166954
0.01206457
0.01248320
0.01291333
0.01330930
0.01371379
0.01412868
0.01453774
0.01496673
0.01534562
0.01570729
0.01605358
0.01639088
0.01671944
0.01700872
0.01729880
0.01757015
0.01774524
0.01781484
0.01782045
0.01792720
0.01821670
0.01870662
0.01935461
0.02007672
0.02090139
0.02183310
0.02286820
0.02404079
0.02520179
0.02628612
0.02747017
0.02865081
0.02990201
0.03110050
0.03219854
0.03307051
0.03378541
0.03442618
0.03484690
0.03507072
0.03532819
0.03613219
0.03765976
0.03845592
0.04021854
0.04080677
0.04259800
0.04325972
0.04281439
0.04203430
0.04045613
0.03804229
0.03573806
0.03446030
0.03328442
0.03225528
0.02946603
0.01746856
0.00539726
0.00401535
0.00343145
0.00300510
0.00272467
0.00262346
0.00264390
0.00273387
0.00286591
0.00300864
0.00316607
0.00332779
0.00348197
0.00361426
0.00375150
0.00386708
0.00395731
0.00401634
0.00405940
0.00407762
0.00406851
0.00404215
0.00399749
0.00393557
0.00387310
0.00380904
0.00374129
0.00367972
0.00366711
0.00376145
0.00395498
0.00418706
0.00444343
0.00473281
0.00505216
0.00538904
0.00573194
0.00610092
0.00648274
0.00685189
0.00718151
0.00749517
0.00778691
0.00806277
0.00832746
0.00856992
0.00879044
0.00898057
0.00913180
0.00925049
0.00936323
0.00949258
0.00964033
0.00980537
0.00999740
0.01021599
0.01046214
0.01073951
0.01103626
0.01133223
0.01166712
0.01204548
0.01244586
0.01286779
0.01329832
0.01368953
0.01407952
0.01448285
0.01487500
0.01528378
0.01565320
0.01600418
0.01634523
0.01667858
0.01700022
0.01729154
0.01759408
0.01789271
0.01810209
0.01820991
0.01828137
0.01848570
0.01885670
0.01942283
0.02013678
0.02093131
0.02181698
0.02279818
0.02388712
0.02507055
0.02626116
0.02744587
0.02872970
0.02995574
0.03119388
0.03233952
0.03336727
0.03433744
0.03510162
0.03583744
0.03643917
0.03695692
0.03724304
0.03782290
0.03873789
0.03973807
0.04044874
0.04176843
0.04302804
0.04244285
0.04216864
0.04172023
0.04025494
0.03821583
0.03613577
0.03484586
0.03372418
0.03277922
0.03080851
0.02175155
0.00710849
0.00448079
0.00379393
0.00332177
0.00301179
0.00286881
0.00288193
0.00296424
0.00308436
0.00321447
0.00336546
0.00351842
0.00366164
0.00378436
0.00390768
0.00401368
0.00409295
0.00414760
0.00418266
0.00419911
0.00419321
0.00416861
0.00413022
0.00407780
0.00402536
0.00397813
0.00393294
0.00389475
0.00390175
0.00400753
0.00420988
0.00445216
0.00471847
0.00501760
0.00534642
0.00569196
0.00604072
0.00641502
0.00679851
0.00716044
0.00747781
0.00778594
0.00806688
0.00833054
0.00858167
0.00881327
0.00902479
0.00921102
0.00936139
0.00947811
0.00959463
0.00973482
0.00989289
0.01007340
0.01029288
0.01052597
0.01077850
0.01106768
0.01137013
0.01167662
0.01201668
0.01239781
0.01280351
0.01322306
0.01364696
0.01403746
0.01441082
0.01479554
0.01517729
0.01556602
0.01592999
0.01627868
0.01661879
0.01695060
0.01726853
0.01756627
0.01788244
0.01819833
0.01843961
0.01858867
0.01871401
0.01899536
0.01943855
0.02006593
0.02083749
0.02169210
0.02261864
0.02366195
0.02478497
0.02597246
0.02716604
0.02839880
0.02969857
0.03102282
0.03225984
0.03339640
0.03443155
0.03537071
0.03616513
0.03687290
0.03766466
0.03833983
0.03892297
0.03961366
0.04053122
0.04117635
0.04187996
0.04340852
0.04360401
0.04325730
0.04198336
0.04137851
0.04000557
0.03825133
0.03640474
0.03513058
0.03405742
0.03320688
0.03178930
0.02534736
0.00983575
0.00506007
0.00419494
0.00363690
0.00328347
0.00311219
0.00309582
0.00316790
0.00327903
0.00340012
0.00354004
0.00367919
0.00381020
0.00392836
0.00403722
0.00413594
0.00420860
0.00425615
0.00428639
0.00429985
0.00429734
0.00427833
0.00424718
0.00420354
0.00416243
0.00413128
0.00410610
0.00409174
0.00411858
0.00423707
0.00444858
0.00470068
0.00497478
0.00527957
0.00561465
0.00596470
0.00631881
0.00669618
0.00707459
0.00742503
0.00773126
0.00802965
0.00830175
0.00855488
0.00879219
0.00901333
0.00921778
0.00940247
0.00955445
0.00967795
0.00980571
0.00996103
0.01013145
0.01033245
0.01057704
0.01082464
0.01108402
0.01138146
0.01169125
0.01201211
0.01235601
0.01273842
0.01314365
0.01355324
0.01396752
0.01435850
0.01472162
0.01508619
0.01546049
0.01583400
0.01619603
0.01654366
0.01688646
0.01721839
0.01753481
0.01783901
0.01816465
0.01848875
0.01875083
0.01894850
0.01912500
0.01946185
0.01997387
0.02065621
0.02146963
0.02236619
0.02334898
0.02440934
0.02554692
0.02677492
0.02800651
0.02924278
0.03053456
0.03179458
0.03302877
0.03424929
0.03535880
0.03634107
0.03716608
0.03789822
0.03860896
0.03946224
0.04027837
0.04079323
0.04204596
0.04252778
0.04368975
0.04419584
0.04404648
0.04341211
0.04171755
0.04099195
0.03982165
0.03824316
0.03657626
0.03532598
0.03430542
0.03352443
0.03246517
0.02814945
0.01366706
0.00587397
0.00463968
0.00398962
0.00356614
0.00335612
0.00330864
0.00336089
0.00345786
0.00356869
0.00369287
0.00382022
0.00393697
0.00404624
0.00414667
0.00423618
0.00430222
0.00434597
0.00437445
0.00438736
0.00438601
0.00437273
0.00434917
0.00431691
0.00428663
0.00427012
0.00426306
0.00427102
0.00431879
0.00445215
0.00467351
0.00493393
0.00521335
0.00552160
0.00586096
0.00621378
0.00657157
0.00694733
0.00731459
0.00765048
0.00794843
0.00823396
0.00850003
0.00874414
0.00897078
0.00918500
0.00938467
0.00956738
0.00972371
0.00986245
0.01000526
0.01017615
0.01036329
0.01058770
0.01085337
0.01111478
0.01138318
0.01168563
0.01200452
0.01233974
0.01268953
0.01307147
0.01346837
0.01386720
0.01426613
0.01465800
0.01501989
0.01537230
0.01574215
0.01611135
0.01647157
0.01681590
0.01715702
0.01749169
0.01781010
0.01812202
0.01844475
0.01877161
0.01904737
0.01929350
0.01951930
0.01990377
0.02047671
0.02120389
0.02205088
0.02298670
0.02399894
0.02509011
0.02624822
0.02746743
0.02869923
0.02997025
0.03126190
0.03252470
0.03374723
0.03495709
0.03607920
0.03710676
0.03797275
0.03872898
0.03945099
0.04029142
0.04108630
0.04191579
0.04276233
0.04378287
0.04420058
0.04314776
0.04368909
0.04262292
0.04146668
0.04065753
0.03955918
0.03817073
0.03666444
0.03546398
0.03449225
0.03376092
0.03294322
0.03009982
0.01814600
0.00713871
0.00514566
0.00436590
0.00387099
0.00360564
0.00352319
0.00354608
0.00362437
0.00372097
0.00383242
0.00394371
0.00405051
0.00414898
0.00423891
0.00431983
0.00438133
0.00442161
0.00444887
0.00446128
0.00446310
0.00445661
0.00444096
0.00441903
0.00440025
0.00439727
0.00440658
0.00443594
0.00450551
0.00465477
0.00488672
0.00515256
0.00543533
0.00574695
0.00608975
0.00644513
0.00680220
0.00717232
0.00752353
0.00784280
0.00813561
0.00840910
0.00866935
0.00890623
0.00912621
0.00933634
0.00953702
0.00972114
0.00988342
0.01004341
0.01020240
0.01038494
0.01059190
0.01084209
0.01112612
0.01139912
0.01167820
0.01198503
0.01231331
0.01265557
0.01301446
0.01339459
0.01378208
0.01417447
0.01455571
0.01494324
0.01531044
0.01566204
0.01603064
0.01640385
0.01676286
0.01710880
0.01744277
0.01777314
0.01810387
0.01841411
0.01872856
0.01905707
0.01934894
0.01963126
0.01990728
0.02033179
0.02095632
0.02171379
0.02258651
0.02355584
0.02459714
0.02569442
0.02687017
0.02808756
0.02930807
0.03059288
0.03186220
0.03311913
0.03436722
0.03559234
0.03665896
0.03761184
0.03843183
0.03918881
0.04009082
0.04090089
0.04160227
0.04230535
0.04300681
0.04392192
0.04392610
0.04314915
0.04301846
0.04171666
0.04110427
0.04033536
0.03932036
0.03807110
0.03670837
0.03555836
0.03463432
0.03393917
0.03328715
0.03143962
0.02254953
0.00915454
0.00578787
0.00478933
0.00419413
0.00386297
0.00373384
0.00372313
0.00377853
0.00386211
0.00395805
0.00405506
0.00414929
0.00423820
0.00431859
0.00439114
0.00444829
0.00448620
0.00451167
0.00452642
0.00453128
0.00453061
0.00452452
0.00451295
0.00450615
0.00451588
0.00454080
0.00459093
0.00468288
0.00484811
0.00508991
0.00535794
0.00564309
0.00595866
0.00630342
0.00666078
0.00701371
0.00737274
0.00770631
0.00801273
0.00830008
0.00856108
0.00881587
0.00904838
0.00926423
0.00947211
0.00968128
0.00987473
0.01004656
0.01022695
0.01040348
0.01059661
0.01082519
0.01110287
0.01140009
0.01168292
0.01197059
0.01228458
0.01262399
0.01296487
0.01332714
0.01370122
0.01408054
0.01446938
0.01484310
0.01522403
0.01559364
0.01595088
0.01632295
0.01670460
0.01706802
0.01742217
0.01775122
0.01807377
0.01842076
0.01872074
0.01902475
0.01935343
0.01966104
0.01996808
0.02029335
0.02074816
0.02140455
0.02218291
0.02308164
0.02407867
0.02514091
0.02624918
0.02741262
0.02862960
0.02988627
0.03116799
0.03239472
0.03358600
0.03480578
0.03602949
0.03710911
0.03805445
0.03881303
0.03955989
0.04041152
0.04130068
0.04197081
0.04267985
0.04305264
0.04357474
0.04372670
0.04312258
0.04266169
0.04126347
0.04077206
0.04002661
0.03911301
0.03798039
0.03672587
0.03562802
0.03474089
0.03407518
0.03352710
0.03231450
0.02629226
0.01224271
0.00665596
0.00528325
0.00454791
0.00413287
0.00394715
0.00389535
0.00392575
0.00398975
0.00406971
0.00415374
0.00423748
0.00431635
0.00438700
0.00445031
0.00450434
0.00454088
0.00456618
0.00458406
0.00459248
0.00459726
0.00460168
0.00460187
0.00460715
0.00462930
0.00466906
0.00473961
0.00485390
0.00503540
0.00528362
0.00555030
0.00583852
0.00615699
0.00650015
0.00685844
0.00720552
0.00754751
0.00786814
0.00816666
0.00844569
0.00869449
0.00894561
0.00917538
0.00938940
0.00960099
0.00982288
0.01002906
0.01021567
0.01041377
0.01061145
0.01082206
0.01107328
0.01137361
0.01167812
0.01196786
0.01226602
0.01258625
0.01293098
0.01327157
0.01363259
0.01399725
0.01436223
0.01474959
0.01512439
0.01550234
0.01587310
0.01624118
0.01661634
0.01700649
0.01738595
0.01774998
0.01806945
0.01838715
0.01874563
0.01904667
0.01934117
0.01966068
0.01998191
0.02030783
0.02067325
0.02115015
0.02181804
0.02261873
0.02354377
0.02455386
0.02562719
0.02674283
0.02790764
0.02913140
0.03039697
0.03164550
0.03282487
0.03398370
0.03519399
0.03636956
0.03741885
0.03835743
0.03916973
0.03988441
0.04071885
0.04154158
0.04222450
0.04292488
0.04344939
0.04374114
0.04367480
0.04318163
0.04221898
0.04111510
0.04046280
0.03975754
0.03890421
0.03787721
0.03672814
0.03570178
0.03484112
0.03418827
0.03368903
0.03288275
0.02907886
0.01632909
0.00792667
0.00588653
0.00495527
0.00442911
0.00417112
0.00407055
0.00406708
0.00411063
0.00417480
0.00424565
0.00431750
0.00438643
0.00444742
0.00450234
0.00455107
0.00458701
0.00461343
0.00463446
0.00464849
0.00465859
0.00467330
0.00468749
0.00470539
0.00473926
0.00479256
0.00488270
0.00501821
0.00521574
0.00546615
0.00573067
0.00602200
0.00634008
0.00667838
0.00703356
0.00737271
0.00770100
0.00801560
0.00830606
0.00857285
0.00881672
0.00906250
0.00929044
0.00951055
0.00973253
0.00996621
0.01018331
0.01039087
0.01060712
0.01083042
0.01106718
0.01133748
0.01164708
0.01195913
0.01225554
0.01256710
0.01289254
0.01323293
0.01357922
0.01394013
0.01428939
0.01463408
0.01502092
0.01539884
0.01577891
0.01615335
0.01653638
0.01691737
0.01731076
0.01770653
0.01807228
0.01838201
0.01869723
0.01906566
0.01938256
0.01967187
0.01998194
0.02031516
0.02066051
0.02103648
0.02153443
0.02220943
0.02303435
0.02397483
0.02499194
0.02606499
0.02719716
0.02836774
0.02959529
0.03086208
0.03205374
0.03316898
0.03429587
0.03551327
0.03666992
0.03768794
0.03856060
0.03932181
0.04010750
0.04097402
0.04174795
0.04239036
0.04296177
0.04342186
0.04355478
0.04308338
0.04271564
0.04175961
0.04088734
0.04015551
0.03951405
0.03873085
0.03780452
0.03674505
0.03577641
0.03493737
0.03428788
0.03380462
0.03325887
0.03096111
0.02089008
0.00986624
0.00666111
0.00543588
0.00476197
0.00441280
0.00425419
0.00420975
0.00422884
0.00427368
0.00433094
0.00439118
0.00445067
0.00450368
0.00454945
0.00459226
0.00462665
0.00465425
0.00467891
0.00469938
0.00471597
0.00474002
0.00476853
0.00480094
0.00484610
0.00491244
0.00501929
0.00517372
0.00538486
0.00563638
0.00590132
0.00619160
0.00650527
0.00683885
0.00718389
0.00751587
0.00783952
0.00815209
0.00843061
0.00868606
0.00893337
0.00917044
0.00939765
0.00963341
0.00986953
0.01011193
0.01034467
0.01057793
0.01081358
0.01106083
0.01132743
0.01161512
0.01192644
0.01224721
0.01255430
0.01287421
0.01320152
0.01353517
0.01388975
0.01425199
0.01458463
0.01490985
0.01529022
0.01566752
0.01605472
0.01644626
0.01683964
0.01722732
0.01762457
0.01803315
0.01838362
0.01867991
0.01900098
0.01938088
0.01971778
0.02001463
0.02032326
0.02066343
0.02103057
0.02140240
0.02190939
0.02259894
0.02343470
0.02437876
0.02540586
0.02648000
0.02761781
0.02880831
0.03003773
0.03126334
0.03240121
0.03346452
0.03455815
0.03574159
0.03685956
0.03783990
0.03867416
0.03941903
0.04019464
0.04104799
0.04180005
0.04237739
0.04284974
0.04317526
0.04322497
0.04254119
0.04208713
0.04111189
0.04047034
0.03990077
0.03928173
0.03858517
0.03774302
0.03676377
0.03586881
0.03504590
0.03438359
0.03389157
0.03349979
0.03215785
0.02516631
0.01275939
0.00773106
0.00603105
0.00515349
0.00468635
0.00445376
0.00435969
0.00434810
0.00436989
0.00441223
0.00446041
0.00450965
0.00455484
0.00459315
0.00462937
0.00466234
0.00469009
0.00471826
0.00474545
0.00477023
0.00480213
0.00484350
0.00489059
0.00494860
0.00502945
0.00514977
0.00531969
0.00554254
0.00579570
0.00606012
0.00634363
0.00665147
0.00698137
0.00731498
0.00764369
0.00796552
0.00827474
0.00854134
0.00879210
0.00904541
0.00927444
0.00950388
0.00976109
0.01001210
0.01026460
0.01052324
0.01077841
0.01103510
0.01129958
0.01159536
0.01189723
0.01221829
0.01254743
0.01286583
0.01318675
0.01351637
0.01384563
0.01420334
0.01456945
0.01488591
0.01520697
0.01557341
0.01593846
0.01633481
0.01675637
0.01716078
0.01756190
0.01797007
0.01837289
0.01870834
0.01899302
0.01931654
0.01969153
0.02005443
0.02037005
0.02068057
0.02102587
0.02141277
0.02178195
0.02228493
0.02299108
0.02381917
0.02476592
0.02579962
0.02687351
0.02802016
0.02922199
0.03043968
0.03160644
0.03268187
0.03369745
0.03476806
0.03591316
0.03699348
0.03791579
0.03871267
0.03945823
0.04024190
0.04102332
0.04171695
0.04227357
0.04269129
0.04286857
0.04272236
0.04208426
0.04166085
0.04087749
0.04022230
0.03966182
0.03909422
0.03846041
0.03770078
0.03679873
0.03596656
0.03516670
0.03448880
0.03397020
0.03364173
0.03287520
0.02856120
0.01668908
0.00926193
0.00680383
0.00563211
0.00500457
0.00467706
0.00452244
0.00447200
0.00446759
0.00449258
0.00452693
0.00456512
0.00460254
0.00463445
0.00466488
0.00469529
0.00472353
0.00475369
0.00478722
0.00482076
0.00486108
0.00491210
0.00497254
0.00504496
0.00514185
0.00527555
0.00545858
0.00569049
0.00594366
0.00620126
0.00647803
0.00678135
0.00710563
0.00743132
0.00776114
0.00808109
0.00838402
0.00864683
0.00889824
0.00915303
0.00937869
0.00961891
0.00989727
0.01016371
0.01043234
0.01071769
0.01099266
0.01127049
0.01154947
0.01186212
0.01218143
0.01251644
0.01285878
0.01318715
0.01350679
0.01384813
0.01418138
0.01453089
0.01489621
0.01520785
0.01553652
0.01588145
0.01623984
0.01664486
0.01709609
0.01752166
0.01793464
0.01834306
0.01872914
0.01905839
0.01934689
0.01966572
0.02002639
0.02040276
0.02074092
0.02105475
0.02140696
0.02179004
0.02215986
0.02266232
0.02337677
0.02419944
0.02514506
0.02616350
0.02725232
0.02841024
0.02960143
0.03078104
0.03188275
0.03290635
0.03389944
0.03493788
0.03604355
0.03707932
0.03796250
0.03873140
0.03946538
0.04024839
0.04101197
0.04162656
0.04212283
0.04248059
0.04252973
0.04226699
0.04186111
0.04130916
0.04052603
0.03993229
0.03944276
0.03892083
0.03836741
0.03767591
0.03683882
0.03607112
0.03530159
0.03460889
0.03404887
0.03372111
0.03329802
0.03088456
0.02125139
0.01152405
0.00784192
0.00624508
0.00539259
0.00493998
0.00470973
0.00460923
0.00457381
0.00457492
0.00459382
0.00462028
0.00464775