/*--------------------------------*- C++ -*----------------------------------*\
  =========                 |
  \\      /  F ield         | OpenFOAM: The Open Source CFD Toolbox
   \\    /   O peration     | Website:  https://openfoam.org
    \\  /    A nd           | Version:  7
     \\/     M anipulation  |
\*---------------------------------------------------------------------------*/
FoamFile
{
    version     2.0;
    format      ascii;
    class       volSymmTensorField;
    location    "0";
    object      tauij_LES;
}
// * * * * * * * * * * * * * * * * * * * * * * * * * * * * * * * * * * * * * //

dimensions      [0 2 -2 0 0 0 0];

internalField   nonuniform List<symmTensor>
15600
(
(0.00632894 -0.00017117 0.00000000 0.00004591 0.00000000 0.00372787)
(0.00522134 -0.00012992 0.00000000 0.00002643 0.00000000 0.00262104)
(0.00050247 -0.00000846 0.00000000 -0.00000573 0.00000000 0.00012520)
(0.00006623 -0.00005240 0.00000000 0.00003810 0.00000000 0.00018219)
(0.00008139 -0.00006389 0.00000000 0.00004748 0.00000000 0.00019006)
(0.00001376 -0.00002751 0.00000000 0.00005393 0.00000000 0.00018599)
(0.00000435 0.00000165 0.00000000 -0.00001055 0.00000000 0.00008071)
(0.00000850 -0.00000442 0.00000000 -0.00000283 0.00000000 0.00004242)
(0.00001201 -0.00001289 0.00000000 0.00001425 0.00000000 0.00011229)
(0.00000081 -0.00000452 0.00000000 0.00001529 0.00000000 0.00003349)
(0.00000010 -0.00000207 0.00000000 0.00000916 0.00000000 0.00002702)
(-0.00000007 -0.00000222 0.00000000 0.00000981 0.00000000 0.00002264)
(0.00001246 -0.00001509 0.00000000 0.00001841 0.00000000 0.00011698)
(0.00000938 -0.00001053 0.00000000 0.00001153 0.00000000 0.00009506)
(0.00001180 -0.00001411 0.00000000 0.00001596 0.00000000 0.00010099)
(0.00000804 -0.00000982 0.00000000 0.00001127 0.00000000 0.00008721)
(-0.00000094 -0.00000615 0.00000000 0.00002420 0.00000000 0.00010138)
(-0.00000600 -0.00000065 0.00000000 0.00001917 0.00000000 0.00012317)
(-0.00000213 0.00000029 0.00000000 0.00000453 0.00000000 0.00013174)
(0.00000888 -0.00000707 0.00000000 0.00000491 0.00000000 0.00010414)
(0.00001225 -0.00001410 0.00000000 0.00001801 0.00000000 0.00007856)
(0.00001878 -0.00002143 0.00000000 0.00002456 0.00000000 0.00017359)
(0.00001458 -0.00001746 0.00000000 0.00002062 0.00000000 0.00016783)
(-0.00000185 -0.00000382 0.00000000 0.00001611 0.00000000 0.00019129)
(0.00000873 -0.00001077 0.00000000 0.00001430 0.00000000 0.00020508)
(0.00002319 -0.00002623 0.00000000 0.00003096 0.00000000 0.00022862)
(-0.00000026 -0.00000583 0.00000000 0.00001757 0.00000000 0.00021357)
(0.00001643 -0.00001741 0.00000000 0.00001925 0.00000000 0.00017191)
(0.00001867 -0.00001824 0.00000000 0.00001885 0.00000000 0.00019823)
(0.00001339 -0.00001356 0.00000000 0.00001430 0.00000000 0.00014166)
(0.00003476 -0.00001912 0.00000000 0.00001059 0.00000000 0.00008331)
(0.00006816 -0.00003834 0.00000000 0.00002181 0.00000000 0.00015682)
(0.00008737 -0.00003388 0.00000000 0.00001364 0.00000000 0.00020867)
(0.00006661 -0.00001902 0.00000000 0.00000592 0.00000000 0.00014385)
(0.00006995 -0.00000044 0.00000000 0.00000006 0.00000000 0.00009608)
(0.00006046 -0.00000001 0.00000000 -0.00000001 0.00000000 0.00007357)
(0.00006289 -0.00000002 0.00000000 -0.00000001 0.00000000 0.00007325)
(0.00006579 -0.00000006 0.00000000 -0.00000005 0.00000000 0.00007216)
(0.00007245 -0.00000008 0.00000000 -0.00000003 0.00000000 0.00007456)
(0.00007893 -0.00000009 0.00000000 -0.00000004 0.00000000 0.00007571)
(0.00008702 -0.00000007 0.00000000 -0.00000006 0.00000000 0.00007883)
(0.00009382 -0.00000009 0.00000000 -0.00000006 0.00000000 0.00008152)
(0.00010908 -0.00000011 0.00000000 -0.00000001 0.00000000 0.00008936)
(0.00011269 -0.00000007 0.00000000 -0.00000009 0.00000000 0.00008969)
(0.00013059 -0.00000003 0.00000000 0.00000002 0.00000000 0.00010312)
(0.00013108 -0.00000008 0.00000000 -0.00000011 0.00000000 0.00010162)
(0.00014297 -0.00000008 0.00000000 -0.00000011 0.00000000 0.00010814)
(0.00015460 -0.00000008 0.00000000 -0.00000010 0.00000000 0.00011444)
(0.00016512 -0.00000007 0.00000000 -0.00000013 0.00000000 0.00012051)
(0.00018032 -0.00000009 0.00000000 -0.00000011 0.00000000 0.00012954)
(0.00019021 -0.00000011 0.00000000 -0.00000018 0.00000000 0.00013361)
(0.00020563 -0.00000007 0.00000000 -0.00000018 0.00000000 0.00014207)
(0.00022157 0.00000001 0.00000000 -0.00000013 0.00000000 0.00015387)
(0.00023291 0.00000003 0.00000000 -0.00000013 0.00000000 0.00016414)
(0.00024088 -0.00000002 0.00000000 -0.00000020 0.00000000 0.00017159)
(0.00025586 0.00000003 0.00000000 -0.00000020 0.00000000 0.00018239)
(0.00026703 0.00000010 0.00000000 -0.00000024 0.00000000 0.00019286)
(0.00027618 0.00000011 0.00000000 -0.00000024 0.00000000 0.00020333)
(0.00028898 0.00000010 0.00000000 -0.00000025 0.00000000 0.00021559)
(0.00030322 0.00000012 0.00000000 -0.00000027 0.00000000 0.00022922)
(0.00032430 0.00000011 0.00000000 -0.00000030 0.00000000 0.00024503)
(0.00034814 0.00000028 0.00000000 -0.00000030 0.00000000 0.00026407)
(0.00036191 0.00000031 0.00000000 -0.00000036 0.00000000 0.00028024)
(0.00038579 0.00000035 0.00000000 -0.00000035 0.00000000 0.00030249)
(0.00041592 0.00000051 0.00000000 -0.00000026 0.00000000 0.00032743)
(0.00042931 0.00000040 0.00000000 -0.00000047 0.00000000 0.00034247)
(0.00045632 0.00000050 0.00000000 -0.00000048 0.00000000 0.00036879)
(0.00048641 0.00000066 0.00000000 -0.00000045 0.00000000 0.00039869)
(0.00052374 0.00000098 0.00000000 -0.00000023 0.00000000 0.00043558)
(0.00053622 0.00000055 0.00000000 -0.00000070 0.00000000 0.00045034)
(0.00057633 0.00000079 0.00000000 -0.00000070 0.00000000 0.00048626)
(0.00062177 0.00000114 0.00000000 -0.00000054 0.00000000 0.00052740)
(0.00063821 0.00000096 0.00000000 -0.00000079 0.00000000 0.00054967)
(0.00071824 0.00000199 0.00000000 0.00000004 0.00000000 0.00062136)
(0.00071340 0.00000152 0.00000000 -0.00000075 0.00000000 0.00062937)
(0.00077265 0.00000180 0.00000000 -0.00000049 0.00000000 0.00068541)
(0.00079611 0.00000168 0.00000000 -0.00000072 0.00000000 0.00070870)
(0.00084231 0.00000222 0.00000000 -0.00000074 0.00000000 0.00076240)
(0.00087897 0.00000206 0.00000000 -0.00000071 0.00000000 0.00080633)
(0.00093142 0.00000201 0.00000000 -0.00000099 0.00000000 0.00085159)
(0.00103235 0.00000200 0.00000000 -0.00000093 0.00000000 0.00092369)
(0.00113589 0.00000233 0.00000000 -0.00000092 0.00000000 0.00099239)
(0.00124849 0.00000256 0.00000000 -0.00000130 0.00000000 0.00107634)
(0.00137879 0.00000400 0.00000000 -0.00000022 0.00000000 0.00120894)
(0.00133979 0.00000733 0.00000000 -0.00000090 0.00000000 0.00128357)
(0.00098103 0.00002446 0.00000000 0.00000016 0.00000000 0.00149583)
(0.00026092 0.00003965 0.00000000 0.00000506 0.00000000 0.00066680)
(0.00004793 0.00002766 0.00000000 0.00001519 0.00000000 0.00027371)
(-0.00000505 -0.00000540 0.00000000 -0.00000540 0.00000000 0.00002532)
(-0.00001236 -0.00000626 0.00000000 -0.00000246 0.00000000 -0.00003101)
(-0.00001195 -0.00000437 0.00000000 0.00000024 0.00000000 -0.00002404)
(-0.00000472 -0.00000296 0.00000000 -0.00000121 0.00000000 -0.00001984)
(-0.00005095 -0.00007595 0.00000000 -0.00010499 0.00000000 -0.00017091)
(0.00001069 0.00001396 0.00000000 0.00001830 0.00000000 -0.00007703)
(-0.00004671 -0.00008062 0.00000000 -0.00013497 0.00000000 -0.00019120)
(0.00000817 0.00000786 0.00000000 0.00000812 0.00000000 0.00002265)
(-0.00000386 -0.00000713 0.00000000 -0.00001311 0.00000000 -0.00020563)
(-0.00000927 -0.00002518 0.00000000 -0.00005398 0.00000000 -0.00027705)
(-0.00001934 -0.00004226 0.00000000 -0.00008207 0.00000000 -0.00012873)
(0.00000387 -0.00001231 0.00000000 -0.00003746 0.00000000 -0.00001146)
(0.00000727 0.00001472 0.00000000 0.00002774 0.00000000 0.00003198)
(0.00002844 0.00003152 0.00000000 0.00003261 0.00000000 -0.00013047)
(0.00000351 0.00000027 0.00000000 -0.00001364 0.00000000 -0.00035306)
(-0.00000348 -0.00001185 0.00000000 -0.00003427 0.00000000 -0.00032870)
(-0.00002477 -0.00004144 0.00000000 -0.00007444 0.00000000 -0.00047975)
(-0.00004056 -0.00010481 0.00000000 -0.00023341 0.00000000 -0.00059958)
(-0.00001817 -0.00003348 0.00000000 -0.00006704 0.00000000 -0.00029179)
(-0.00001083 -0.00003494 0.00000000 -0.00008496 0.00000000 -0.00013592)
(-0.00002793 -0.00005429 0.00000000 -0.00011141 0.00000000 -0.00043579)
(-0.00000862 -0.00003987 0.00000000 -0.00011341 0.00000000 -0.00040344)
(-0.00000906 -0.00002885 0.00000000 -0.00007745 0.00000000 -0.00031676)
(0.00000193 -0.00000752 0.00000000 -0.00002355 0.00000000 -0.00003453)
(0.00001923 0.00002275 0.00000000 0.00003046 0.00000000 0.00004830)
(0.00001947 0.00000920 0.00000000 0.00001607 0.00000000 -0.00078233)
(-0.00004701 -0.00011259 0.00000000 -0.00020599 0.00000000 -0.00130061)
(-0.00055469 -0.00038966 0.00000000 -0.00027294 0.00000000 -0.00182499)
(-0.00065604 -0.00030324 0.00000000 -0.00017366 0.00000000 -0.00085749)
(0.00030016 0.00001484 0.00000000 0.00001668 0.00000000 0.00028855)
(0.00409425 -0.00009761 0.00000000 0.00002395 0.00000000 0.00309051)
(0.00599218 -0.00017476 0.00000000 0.00004574 0.00000000 0.00391535)
(0.01314244 -0.00046823 0.00000000 0.00016503 0.00000000 0.00715262)
(0.01197617 -0.00042366 0.00000000 0.00013021 0.00000000 0.00569804)
(0.00341455 -0.00016416 0.00000000 0.00000060 0.00000000 0.00097006)
(0.00024097 -0.00018034 0.00000000 0.00014881 0.00000000 0.00061098)
(0.00029837 -0.00023519 0.00000000 0.00020131 0.00000000 0.00079150)
(0.00005890 -0.00007215 0.00000000 0.00010165 0.00000000 0.00040925)
(0.00001584 -0.00003775 0.00000000 0.00007331 0.00000000 0.00026028)
(0.00002031 -0.00001971 0.00000000 0.00001920 0.00000000 0.00015754)
(0.00003116 -0.00004438 0.00000000 0.00006587 0.00000000 0.00029227)
(0.00001918 -0.00002504 0.00000000 0.00003592 0.00000000 0.00011667)
(0.00001505 -0.00001937 0.00000000 0.00003049 0.00000000 0.00011910)
(0.00001543 -0.00002138 0.00000000 0.00003611 0.00000000 0.00011715)
(0.00002532 -0.00004078 0.00000000 0.00006872 0.00000000 0.00029268)
(0.00003120 -0.00004605 0.00000000 0.00007082 0.00000000 0.00027893)
(0.00003110 -0.00004203 0.00000000 0.00005854 0.00000000 0.00025304)
(0.00003906 -0.00005086 0.00000000 0.00006710 0.00000000 0.00025866)
(0.00004542 -0.00006853 0.00000000 0.00010725 0.00000000 0.00029399)
(0.00002037 -0.00004338 0.00000000 0.00009372 0.00000000 0.00025369)
(0.00001279 -0.00003547 0.00000000 0.00008604 0.00000000 0.00027586)
(0.00002133 -0.00004189 0.00000000 0.00008296 0.00000000 0.00034045)
(0.00005476 -0.00007003 0.00000000 0.00009217 0.00000000 0.00037912)
(0.00005934 -0.00008398 0.00000000 0.00012391 0.00000000 0.00057487)
(0.00006423 -0.00007948 0.00000000 0.00010108 0.00000000 0.00048515)
(0.00005704 -0.00008661 0.00000000 0.00013823 0.00000000 0.00052095)
(0.00004076 -0.00006979 0.00000000 0.00012665 0.00000000 0.00057120)
(0.00006979 -0.00009187 0.00000000 0.00012945 0.00000000 0.00075081)
(0.00006091 -0.00008701 0.00000000 0.00013441 0.00000000 0.00056965)
(0.00010936 -0.00011586 0.00000000 0.00012924 0.00000000 0.00077866)
(0.00011529 -0.00011947 0.00000000 0.00013340 0.00000000 0.00076139)
(0.00015561 -0.00013766 0.00000000 0.00013052 0.00000000 0.00065778)
(0.00023291 -0.00015139 0.00000000 0.00010514 0.00000000 0.00071005)
(0.00026338 -0.00015149 0.00000000 0.00009641 0.00000000 0.00072925)
(0.00029169 -0.00011033 0.00000000 0.00004932 0.00000000 0.00067960)
(0.00029823 -0.00006117 0.00000000 0.00001867 0.00000000 0.00057788)
(0.00031050 -0.00000438 0.00000000 0.00000426 0.00000000 0.00047984)
(0.00032600 0.00000120 0.00000000 0.00000372 0.00000000 0.00042476)
(0.00034867 0.00000114 0.00000000 0.00000391 0.00000000 0.00042115)
(0.00037658 0.00000052 0.00000000 0.00000398 0.00000000 0.00042287)
(0.00041223 0.00000014 0.00000000 0.00000422 0.00000000 0.00042939)
(0.00045578 -0.00000005 0.00000000 0.00000451 0.00000000 0.00044113)
(0.00050331 0.00000035 0.00000000 0.00000486 0.00000000 0.00045552)
(0.00055481 -0.00000003 0.00000000 0.00000553 0.00000000 0.00047293)
(0.00061772 -0.00000032 0.00000000 0.00000581 0.00000000 0.00049588)
(0.00067626 0.00000129 0.00000000 0.00000651 0.00000000 0.00052570)
(0.00073089 0.00000138 0.00000000 0.00000690 0.00000000 0.00055870)
(0.00079633 0.00000117 0.00000000 0.00000759 0.00000000 0.00058874)
(0.00086164 0.00000163 0.00000000 0.00000795 0.00000000 0.00061761)
(0.00093174 0.00000187 0.00000000 0.00000862 0.00000000 0.00065101)
(0.00100464 0.00000217 0.00000000 0.00000906 0.00000000 0.00068883)
(0.00108347 0.00000188 0.00000000 0.00001002 0.00000000 0.00072955)
(0.00117146 0.00000171 0.00000000 0.00001070 0.00000000 0.00077243)
(0.00125689 0.00000361 0.00000000 0.00001140 0.00000000 0.00081848)
(0.00132495 0.00000564 0.00000000 0.00001174 0.00000000 0.00086890)
(0.00139098 0.00000611 0.00000000 0.00001247 0.00000000 0.00092262)
(0.00147058 0.00000613 0.00000000 0.00001364 0.00000000 0.00098097)
(0.00154990 0.00000816 0.00000000 0.00001433 0.00000000 0.00103599)
(0.00161234 0.00001088 0.00000000 0.00001532 0.00000000 0.00108605)
(0.00167064 0.00001209 0.00000000 0.00001661 0.00000000 0.00114013)
(0.00173769 0.00001222 0.00000000 0.00001761 0.00000000 0.00120389)
(0.00182132 0.00001258 0.00000000 0.00001924 0.00000000 0.00127879)
(0.00192723 0.00001292 0.00000000 0.00002083 0.00000000 0.00136176)
(0.00203285 0.00001636 0.00000000 0.00002235 0.00000000 0.00145324)
(0.00212738 0.00001918 0.00000000 0.00002456 0.00000000 0.00154936)
(0.00223434 0.00001970 0.00000000 0.00002638 0.00000000 0.00165081)
(0.00236325 0.00002155 0.00000000 0.00002812 0.00000000 0.00176109)
(0.00249186 0.00002428 0.00000000 0.00003048 0.00000000 0.00188189)
(0.00262040 0.00002715 0.00000000 0.00003261 0.00000000 0.00201358)
(0.00274225 0.00002965 0.00000000 0.00003499 0.00000000 0.00215008)
(0.00287177 0.00003039 0.00000000 0.00003741 0.00000000 0.00230180)
(0.00302643 0.00003008 0.00000000 0.00004188 0.00000000 0.00246277)
(0.00320396 0.00003278 0.00000000 0.00004358 0.00000000 0.00263394)
(0.00337558 0.00003539 0.00000000 0.00004650 0.00000000 0.00280850)
(0.00352393 0.00003813 0.00000000 0.00005117 0.00000000 0.00298789)
(0.00369953 0.00004019 0.00000000 0.00005112 0.00000000 0.00318438)
(0.00384326 0.00004151 0.00000000 0.00005588 0.00000000 0.00337114)
(0.00404485 0.00004010 0.00000000 0.00005897 0.00000000 0.00358432)
(0.00422351 0.00004340 0.00000000 0.00006392 0.00000000 0.00379405)
(0.00440185 0.00004681 0.00000000 0.00006411 0.00000000 0.00404157)
(0.00458734 0.00004350 0.00000000 0.00006856 0.00000000 0.00430923)
(0.00483384 0.00003861 0.00000000 0.00007587 0.00000000 0.00461122)
(0.00517793 0.00003427 0.00000000 0.00007991 0.00000000 0.00497797)
(0.00549022 0.00003935 0.00000000 0.00008742 0.00000000 0.00537393)
(0.00575204 0.00004863 0.00000000 0.00009236 0.00000000 0.00582383)
(0.00580657 0.00007834 0.00000000 0.00009803 0.00000000 0.00630488)
(0.00526935 0.00016477 0.00000000 0.00009863 0.00000000 0.00663504)
(0.00363515 0.00039466 0.00000000 0.00013261 0.00000000 0.00659748)
(0.00226169 0.00068136 0.00000000 0.00025450 0.00000000 0.00485686)
(0.00135908 0.00068202 0.00000000 0.00037021 0.00000000 0.00350501)
(0.00067424 0.00043573 0.00000000 0.00029582 0.00000000 0.00211690)
(0.00033355 0.00022935 0.00000000 0.00016354 0.00000000 0.00122167)
(0.00017087 0.00008319 0.00000000 0.00003042 0.00000000 0.00033237)
(0.00010022 0.00008849 0.00000000 0.00007955 0.00000000 0.00043204)
(0.00003094 0.00005670 0.00000000 0.00008894 0.00000000 0.00053287)
(0.00001236 -0.00001918 0.00000000 -0.00005853 0.00000000 -0.00008273)
(-0.00000805 -0.00000729 0.00000000 -0.00000337 0.00000000 0.00040643)
(-0.00002529 -0.00001504 0.00000000 -0.00000230 0.00000000 -0.00003355)
(-0.00000189 -0.00003542 0.00000000 -0.00009326 0.00000000 -0.00017379)
(-0.00001985 -0.00007897 0.00000000 -0.00017808 0.00000000 0.00005421)
(-0.00003944 -0.00005102 0.00000000 -0.00006294 0.00000000 0.00050961)
(0.00000099 -0.00001719 0.00000000 -0.00004013 0.00000000 0.00004995)
(-0.00001713 -0.00001614 0.00000000 -0.00001586 0.00000000 -0.00011878)
(-0.00011311 -0.00015513 0.00000000 -0.00023123 0.00000000 -0.00076261)
(-0.00007983 -0.00017773 0.00000000 -0.00036279 0.00000000 -0.00089079)
(-0.00000656 -0.00007616 0.00000000 -0.00022050 0.00000000 -0.00040666)
(-0.00003706 -0.00010807 0.00000000 -0.00023610 0.00000000 -0.00003714)
(-0.00000929 -0.00006762 0.00000000 -0.00017466 0.00000000 0.00019820)
(-0.00008497 -0.00011590 0.00000000 -0.00017371 0.00000000 0.00059060)
(-0.00002777 -0.00004197 0.00000000 -0.00005446 0.00000000 0.00072722)
(-0.00001251 -0.00005930 0.00000000 -0.00015790 0.00000000 -0.00027839)
(-0.00001109 -0.00006326 0.00000000 -0.00017075 0.00000000 -0.00020849)
(-0.00001636 -0.00006393 0.00000000 -0.00016208 0.00000000 -0.00018102)
(-0.00003000 -0.00001480 0.00000000 0.00000502 0.00000000 0.00018506)
(0.00000248 0.00001231 0.00000000 0.00003406 0.00000000 -0.00007986)
(-0.00022285 -0.00024989 0.00000000 -0.00029450 0.00000000 -0.00228049)
(-0.00002017 -0.00009382 0.00000000 -0.00019874 0.00000000 -0.00054925)
(0.00018963 0.00015691 0.00000000 0.00011328 0.00000000 0.00045246)
(-0.00002834 0.00045830 0.00000000 0.00041431 0.00000000 0.00031544)
(0.00323065 0.00002374 0.00000000 0.00000880 0.00000000 0.00213239)
(0.01125673 -0.00022562 0.00000000 0.00011343 0.00000000 0.00712781)
(0.01279878 -0.00044638 0.00000000 0.00015975 0.00000000 0.00755370)
(0.02027686 -0.00086049 0.00000000 0.00037853 0.00000000 0.01042599)
(0.01946288 -0.00084069 0.00000000 0.00032787 0.00000000 0.00900151)
(0.00956544 -0.00062173 0.00000000 0.00010432 0.00000000 0.00305920)
(0.00066367 -0.00042747 0.00000000 0.00033697 0.00000000 0.00125599)
(0.00045897 -0.00035466 0.00000000 0.00032607 0.00000000 0.00131157)
(0.00015175 -0.00017752 0.00000000 0.00024541 0.00000000 0.00082416)
(0.00008027 -0.00012240 0.00000000 0.00019093 0.00000000 0.00049465)
(0.00003625 -0.00005990 0.00000000 0.00010106 0.00000000 0.00037155)
(0.00006203 -0.00009623 0.00000000 0.00015438 0.00000000 0.00054124)
(0.00003769 -0.00005327 0.00000000 0.00007942 0.00000000 0.00027562)
(0.00004629 -0.00006778 0.00000000 0.00010298 0.00000000 0.00033346)
(0.00005033 -0.00007362 0.00000000 0.00011140 0.00000000 0.00033397)
(0.00003871 -0.00007606 0.00000000 0.00015675 0.00000000 0.00045938)
(0.00004794 -0.00008561 0.00000000 0.00016154 0.00000000 0.00047145)
(0.00005506 -0.00009110 0.00000000 0.00015688 0.00000000 0.00049071)
(0.00007265 -0.00010885 0.00000000 0.00017006 0.00000000 0.00052333)
(0.00009859 -0.00014824 0.00000000 0.00023198 0.00000000 0.00061129)
(0.00012420 -0.00017611 0.00000000 0.00025758 0.00000000 0.00062669)
(0.00011643 -0.00017477 0.00000000 0.00027100 0.00000000 0.00062618)
(0.00009010 -0.00015368 0.00000000 0.00027661 0.00000000 0.00063511)
(0.00015614 -0.00020545 0.00000000 0.00028155 0.00000000 0.00086466)
(0.00013819 -0.00020815 0.00000000 0.00033542 0.00000000 0.00101575)
(0.00015078 -0.00020921 0.00000000 0.00030870 0.00000000 0.00107621)
(0.00016959 -0.00023192 0.00000000 0.00033704 0.00000000 0.00116851)
(0.00019476 -0.00025520 0.00000000 0.00035757 0.00000000 0.00121324)
(0.00018889 -0.00024004 0.00000000 0.00034479 0.00000000 0.00136820)
(0.00024899 -0.00027869 0.00000000 0.00034030 0.00000000 0.00141401)
(0.00026124 -0.00026167 0.00000000 0.00030170 0.00000000 0.00153957)
(0.00029875 -0.00027482 0.00000000 0.00029245 0.00000000 0.00162312)
(0.00036280 -0.00027285 0.00000000 0.00024226 0.00000000 0.00149289)
(0.00038725 -0.00025208 0.00000000 0.00020412 0.00000000 0.00144684)
(0.00043710 -0.00023942 0.00000000 0.00017315 0.00000000 0.00138263)
(0.00050624 -0.00017988 0.00000000 0.00009713 0.00000000 0.00126983)
(0.00054194 -0.00009697 0.00000000 0.00004449 0.00000000 0.00112325)
(0.00058702 -0.00001352 0.00000000 0.00002290 0.00000000 0.00099432)
(0.00066990 0.00000491 0.00000000 0.00002221 0.00000000 0.00091655)
(0.00073811 0.00000580 0.00000000 0.00002251 0.00000000 0.00090085)
(0.00081057 0.00000403 0.00000000 0.00002330 0.00000000 0.00090231)
(0.00089446 0.00000268 0.00000000 0.00002455 0.00000000 0.00091307)
(0.00099154 0.00000190 0.00000000 0.00002606 0.00000000 0.00093512)
(0.00110199 0.00000235 0.00000000 0.00002816 0.00000000 0.00096296)
(0.00122836 0.00000063 0.00000000 0.00003151 0.00000000 0.00099721)
(0.00136478 0.00000149 0.00000000 0.00003326 0.00000000 0.00104263)
(0.00149294 0.00000570 0.00000000 0.00003610 0.00000000 0.00109803)
(0.00162241 0.00000565 0.00000000 0.00003947 0.00000000 0.00116045)
(0.00176875 0.00000480 0.00000000 0.00004187 0.00000000 0.00122079)
(0.00191892 0.00000651 0.00000000 0.00004469 0.00000000 0.00127982)
(0.00207252 0.00000685 0.00000000 0.00004694 0.00000000 0.00134558)
(0.00223545 0.00000755 0.00000000 0.00005065 0.00000000 0.00141835)
(0.00240582 0.00000652 0.00000000 0.00005484 0.00000000 0.00149872)
(0.00258579 0.00000661 0.00000000 0.00005795 0.00000000 0.00158722)
(0.00275631 0.00001218 0.00000000 0.00006048 0.00000000 0.00167985)
(0.00290525 0.00001886 0.00000000 0.00006400 0.00000000 0.00177814)
(0.00304798 0.00001994 0.00000000 0.00006804 0.00000000 0.00188185)
(0.00320328 0.00002060 0.00000000 0.00007263 0.00000000 0.00198970)
(0.00335533 0.00002726 0.00000000 0.00007695 0.00000000 0.00209284)
(0.00348373 0.00003560 0.00000000 0.00008220 0.00000000 0.00218806)
(0.00360150 0.00004027 0.00000000 0.00008871 0.00000000 0.00228968)
(0.00372528 0.00004049 0.00000000 0.00009495 0.00000000 0.00241048)
(0.00387315 0.00004008 0.00000000 0.00010282 0.00000000 0.00255065)
(0.00404259 0.00004083 0.00000000 0.00011051 0.00000000 0.00270770)
(0.00420510 0.00004824 0.00000000 0.00011827 0.00000000 0.00287335)
(0.00435928 0.00005391 0.00000000 0.00012785 0.00000000 0.00304648)
(0.00453279 0.00005379 0.00000000 0.00013862 0.00000000 0.00323116)
(0.00473724 0.00005662 0.00000000 0.00014806 0.00000000 0.00343365)
(0.00495151 0.00006236 0.00000000 0.00015754 0.00000000 0.00366215)
(0.00515254 0.00006794 0.00000000 0.00016962 0.00000000 0.00390474)
(0.00534097 0.00007229 0.00000000 0.00018247 0.00000000 0.00415687)
(0.00552217 0.00006935 0.00000000 0.00019854 0.00000000 0.00442880)
(0.00575545 0.00006319 0.00000000 0.00021279 0.00000000 0.00473012)
(0.00600785 0.00006270 0.00000000 0.00022796 0.00000000 0.00503256)
(0.00627011 0.00006422 0.00000000 0.00024022 0.00000000 0.00535618)
(0.00652132 0.00006866 0.00000000 0.00025269 0.00000000 0.00571117)
(0.00673802 0.00006649 0.00000000 0.00026795 0.00000000 0.00605981)
(0.00698444 0.00006111 0.00000000 0.00028300 0.00000000 0.00642741)
(0.00725219 0.00005167 0.00000000 0.00030136 0.00000000 0.00681490)
(0.00751610 0.00005351 0.00000000 0.00031478 0.00000000 0.00723251)
(0.00773888 0.00005513 0.00000000 0.00032637 0.00000000 0.00770340)
(0.00795379 0.00003973 0.00000000 0.00034810 0.00000000 0.00821116)
(0.00824165 0.00001914 0.00000000 0.00037409 0.00000000 0.00878829)
(0.00857546 0.00000703 0.00000000 0.00039726 0.00000000 0.00945741)
(0.00884023 0.00002702 0.00000000 0.00041909 0.00000000 0.01016813)
(0.00889911 0.00007264 0.00000000 0.00044158 0.00000000 0.01090529)
(0.00861487 0.00018209 0.00000000 0.00045314 0.00000000 0.01158104)
(0.00766865 0.00042467 0.00000000 0.00045164 0.00000000 0.01187440)
(0.00592058 0.00088943 0.00000000 0.00049637 0.00000000 0.01127405)
(0.00451923 0.00143144 0.00000000 0.00071570 0.00000000 0.00931810)
(0.00326375 0.00164535 0.00000000 0.00101628 0.00000000 0.00768257)
(0.00235645 0.00159936 0.00000000 0.00122005 0.00000000 0.00614732)
(0.00157953 0.00130800 0.00000000 0.00117626 0.00000000 0.00523982)
(0.00120849 0.00108334 0.00000000 0.00102598 0.00000000 0.00421458)
(0.00064883 0.00073794 0.00000000 0.00087447 0.00000000 0.00303642)
(0.00056451 0.00067212 0.00000000 0.00083732 0.00000000 0.00281435)
(0.00025519 0.00030760 0.00000000 0.00040296 0.00000000 0.00171457)
(0.00029063 0.00043922 0.00000000 0.00068783 0.00000000 0.00162581)
(0.00028783 0.00026730 0.00000000 0.00027250 0.00000000 0.00124500)
(0.00001910 0.00000943 0.00000000 0.00001456 0.00000000 0.00143078)
(0.00000795 0.00007766 0.00000000 0.00021384 0.00000000 0.00155792)
(0.00007584 0.00019370 0.00000000 0.00044377 0.00000000 0.00136445)
(0.00020503 0.00027830 0.00000000 0.00040894 0.00000000 0.00198570)
(0.00010435 0.00009578 0.00000000 0.00008467 0.00000000 0.00034744)
(0.00023927 0.00010062 0.00000000 -0.00009502 0.00000000 0.00077224)
(0.00011849 -0.00003760 0.00000000 -0.00025365 0.00000000 0.00084495)
(-0.00002033 -0.00004407 0.00000000 -0.00004030 0.00000000 0.00210106)
(-0.00003287 -0.00003240 0.00000000 0.00000486 0.00000000 0.00197959)
(-0.00005040 -0.00001413 0.00000000 0.00010864 0.00000000 0.00162615)
(-0.00002579 0.00008198 0.00000000 0.00037436 0.00000000 0.00175348)
(-0.00001955 0.00005311 0.00000000 0.00027681 0.00000000 0.00133574)
(-0.00003944 -0.00001675 0.00000000 0.00003693 0.00000000 0.00090750)
(-0.00000412 -0.00003633 0.00000000 -0.00008729 0.00000000 0.00023175)
(-0.00001423 -0.00004293 0.00000000 -0.00009742 0.00000000 0.00010973)
(0.00002226 0.00004008 0.00000000 0.00007357 0.00000000 0.00092448)
(-0.00009320 -0.00010765 0.00000000 -0.00011900 0.00000000 -0.00123279)
(-0.00015762 -0.00023802 0.00000000 -0.00035281 0.00000000 -0.00198621)
(-0.00014091 -0.00017622 0.00000000 -0.00024433 0.00000000 0.00084622)
(0.00227980 0.00167443 0.00000000 0.00121379 0.00000000 0.00647580)
(0.00517310 0.00355544 0.00000000 0.00241579 0.00000000 0.00661461)
(0.01178341 0.00099759 0.00000000 0.00034790 0.00000000 0.00817770)
(0.02028994 -0.00020561 0.00000000 0.00035624 0.00000000 0.01228120)
(0.02022316 -0.00073556 0.00000000 0.00037551 0.00000000 0.01122067)
(0.02607256 -0.00126212 0.00000000 0.00069891 0.00000000 0.01292025)
(0.02533687 -0.00131174 0.00000000 0.00063795 0.00000000 0.01150939)
(0.01813358 -0.00138797 0.00000000 0.00035489 0.00000000 0.00623069)
(0.00184473 -0.00086846 0.00000000 0.00059850 0.00000000 0.00200217)
(0.00060322 -0.00044771 0.00000000 0.00046239 0.00000000 0.00189194)
(0.00024197 -0.00031176 0.00000000 0.00047734 0.00000000 0.00135130)
(0.00025638 -0.00030449 0.00000000 0.00038574 0.00000000 0.00090580)
(0.00009872 -0.00015526 0.00000000 0.00025465 0.00000000 0.00068014)
(0.00011825 -0.00017410 0.00000000 0.00026980 0.00000000 0.00082463)
(0.00007673 -0.00011875 0.00000000 0.00018941 0.00000000 0.00054958)
(0.00008108 -0.00012390 0.00000000 0.00019554 0.00000000 0.00057287)
(0.00008643 -0.00013118 0.00000000 0.00020526 0.00000000 0.00056907)
(0.00008152 -0.00015033 0.00000000 0.00029473 0.00000000 0.00066548)
(0.00009715 -0.00017071 0.00000000 0.00031860 0.00000000 0.00069583)
(0.00011269 -0.00019165 0.00000000 0.00034301 0.00000000 0.00075075)
(0.00012786 -0.00020905 0.00000000 0.00036180 0.00000000 0.00081828)
(0.00015965 -0.00025688 0.00000000 0.00043455 0.00000000 0.00096187)
(0.00023558 -0.00032088 0.00000000 0.00045937 0.00000000 0.00110083)
(0.00025976 -0.00035038 0.00000000 0.00049654 0.00000000 0.00114827)
(0.00026328 -0.00037202 0.00000000 0.00055244 0.00000000 0.00118433)
(0.00028991 -0.00038564 0.00000000 0.00054771 0.00000000 0.00149568)
(0.00030202 -0.00041460 0.00000000 0.00061713 0.00000000 0.00162197)
(0.00031953 -0.00042705 0.00000000 0.00062110 0.00000000 0.00170646)
(0.00031967 -0.00043023 0.00000000 0.00064186 0.00000000 0.00189789)
(0.00038216 -0.00045021 0.00000000 0.00059536 0.00000000 0.00204749)
(0.00037867 -0.00043323 0.00000000 0.00057564 0.00000000 0.00210957)
(0.00041972 -0.00043387 0.00000000 0.00053165 0.00000000 0.00222154)
(0.00042941 -0.00039832 0.00000000 0.00046860 0.00000000 0.00235205)
(0.00046907 -0.00038432 0.00000000 0.00042374 0.00000000 0.00233544)
(0.00051265 -0.00035678 0.00000000 0.00035380 0.00000000 0.00224824)
(0.00055482 -0.00033113 0.00000000 0.00030579 0.00000000 0.00216822)
(0.00062280 -0.00029425 0.00000000 0.00024494 0.00000000 0.00201795)
(0.00068900 -0.00021899 0.00000000 0.00015259 0.00000000 0.00184023)
(0.00076175 -0.00011702 0.00000000 0.00008640 0.00000000 0.00164644)
(0.00085098 -0.00002207 0.00000000 0.00006289 0.00000000 0.00149478)
(0.00100976 0.00001013 0.00000000 0.00006276 0.00000000 0.00140148)
(0.00114588 0.00001386 0.00000000 0.00006404 0.00000000 0.00137061)
(0.00127823 0.00001077 0.00000000 0.00006566 0.00000000 0.00136868)
(0.00142279 0.00000798 0.00000000 0.00006903 0.00000000 0.00137998)
(0.00158171 0.00000578 0.00000000 0.00007307 0.00000000 0.00140924)
(0.00176325 0.00000420 0.00000000 0.00007896 0.00000000 0.00144633)
(0.00197313 0.00000080 0.00000000 0.00008678 0.00000000 0.00149492)
(0.00218472 0.00000388 0.00000000 0.00009132 0.00000000 0.00155742)
(0.00239433 0.00000997 0.00000000 0.00009827 0.00000000 0.00163568)
(0.00260723 0.00000914 0.00000000 0.00010702 0.00000000 0.00172313)
(0.00284103 0.00000719 0.00000000 0.00011320 0.00000000 0.00181142)
(0.00307775 0.00000958 0.00000000 0.00012028 0.00000000 0.00189736)
(0.00332100 0.00000918 0.00000000 0.00012719 0.00000000 0.00198830)
(0.00357315 0.00000962 0.00000000 0.00013652 0.00000000 0.00209016)
(0.00383487 0.00000782 0.00000000 0.00014708 0.00000000 0.00220547)
(0.00409296 0.00000889 0.00000000 0.00015533 0.00000000 0.00233180)
(0.00433412 0.00001819 0.00000000 0.00016174 0.00000000 0.00246527)
(0.00454889 0.00002936 0.00000000 0.00017011 0.00000000 0.00260173)
(0.00475155 0.00003098 0.00000000 0.00018082 0.00000000 0.00274102)
(0.00495840 0.00003262 0.00000000 0.00019237 0.00000000 0.00288337)
(0.00514860 0.00004472 0.00000000 0.00020330 0.00000000 0.00302327)
(0.00531312 0.00005820 0.00000000 0.00021723 0.00000000 0.00315439)
(0.00546268 0.00006691 0.00000000 0.00023343 0.00000000 0.00329375)
(0.00560954 0.00006522 0.00000000 0.00025026 0.00000000 0.00345658)
(0.00577074 0.00006165 0.00000000 0.00027025 0.00000000 0.00364263)
(0.00593705 0.00006038 0.00000000 0.00028881 0.00000000 0.00385415)
(0.00609307 0.00006626 0.00000000 0.00030856 0.00000000 0.00407513)
(0.00624672 0.00006959 0.00000000 0.00033271 0.00000000 0.00430111)
(0.00642248 0.00006307 0.00000000 0.00035980 0.00000000 0.00454859)