/*--------------------------------*- C++ -*----------------------------------*\
  =========                 |
  \\      /  F ield         | OpenFOAM: The Open Source CFD Toolbox
   \\    /   O peration     | Website:  https://openfoam.org
    \\  /    A nd           | Version:  7
     \\/     M anipulation  |
\*---------------------------------------------------------------------------*/
FoamFile
{
    version     2.0;
    format      ascii;
    class       volVectorField;
    location    "0";
    object      U_LES;
}
// * * * * * * * * * * * * * * * * * * * * * * * * * * * * * * * * * * * * * //

dimensions      [0 1 -1 0 0 0 0];

internalField   nonuniform List<vector>
15600
(
(0.07384868 0.00001425 0.00000000)
(0.06271508 -0.00035986 0.00000000)
(0.00685381 0.00001281 0.00000000)
(-0.00368823 0.00283300 0.00000000)
(-0.00395039 0.00305215 0.00000000)
(-0.00100127 0.00133232 0.00000000)
(-0.00062963 0.00061427 0.00000000)
(-0.00041537 0.00033280 0.00000000)
(-0.00058842 0.00086415 0.00000000)
(-0.00022170 0.00061391 0.00000000)
(-0.00024063 0.00057725 0.00000000)
(-0.00022710 0.00060826 0.00000000)
(-0.00136133 0.00185628 0.00000000)
(-0.00141267 0.00178398 0.00000000)
(-0.00142241 0.00188858 0.00000000)
(-0.00120067 0.00163628 0.00000000)
(-0.00093573 0.00228901 0.00000000)
(-0.00108672 0.00265999 0.00000000)
(-0.00113228 0.00221046 0.00000000)
(-0.00161289 0.00176535 0.00000000)
(-0.00106333 0.00119201 0.00000000)
(-0.00147822 0.00173423 0.00000000)
(-0.00105016 0.00126072 0.00000000)
(-0.00051811 0.00103756 0.00000000)
(-0.00041753 0.00058115 0.00000000)
(-0.00008409 0.00003766 0.00000000)
(0.00020682 -0.00049489 0.00000000)
(0.00105014 -0.00105057 0.00000000)
(0.00172769 -0.00164582 0.00000000)
(0.00203563 -0.00183667 0.00000000)
(0.00330284 -0.00184921 0.00000000)
(0.00486360 -0.00270337 0.00000000)
(0.00576989 -0.00224230 0.00000000)
(0.00512134 -0.00146801 0.00000000)
(0.00513785 -0.00002338 0.00000000)
(0.00415539 0.00001979 0.00000000)
(0.00363155 0.00002077 0.00000000)
(0.00314766 0.00001710 0.00000000)
(0.00270442 0.00001538 0.00000000)
(0.00232793 0.00001250 0.00000000)
(0.00200687 0.00001150 0.00000000)
(0.00166665 0.00001269 0.00000000)
(0.00125383 0.00001594 0.00000000)
(0.00087402 0.00001487 0.00000000)
(0.00039111 0.00001845 0.00000000)
(-0.00004524 0.00001673 0.00000000)
(-0.00058314 0.00001994 0.00000000)
(-0.00119555 0.00002205 0.00000000)
(-0.00183480 0.00002321 0.00000000)
(-0.00254677 0.00002518 0.00000000)
(-0.00323721 0.00002420 0.00000000)
(-0.00400766 0.00002629 0.00000000)
(-0.00480247 0.00002905 0.00000000)
(-0.00564451 0.00002991 0.00000000)
(-0.00647523 0.00002855 0.00000000)
(-0.00735168 0.00003107 0.00000000)
(-0.00833161 0.00003610 0.00000000)
(-0.00946632 0.00004137 0.00000000)
(-0.01073494 0.00004625 0.00000000)
(-0.01211598 0.00004867 0.00000000)
(-0.01358995 0.00005276 0.00000000)
(-0.01511642 0.00005455 0.00000000)
(-0.01665978 0.00005391 0.00000000)
(-0.01824705 0.00005606 0.00000000)
(-0.01987295 0.00006152 0.00000000)
(-0.02159150 0.00005921 0.00000000)
(-0.02334557 0.00006174 0.00000000)
(-0.02513398 0.00006499 0.00000000)
(-0.02690500 0.00006871 0.00000000)
(-0.02875796 0.00006155 0.00000000)
(-0.03058912 0.00006314 0.00000000)
(-0.03238159 0.00006623 0.00000000)
(-0.03420327 0.00006318 0.00000000)
(-0.03590308 0.00007475 0.00000000)
(-0.03781080 0.00006442 0.00000000)
(-0.03957044 0.00007132 0.00000000)
(-0.04152986 0.00007126 0.00000000)
(-0.04345759 0.00007519 0.00000000)
(-0.04548950 0.00007645 0.00000000)
(-0.04761141 0.00007325 0.00000000)
(-0.04949033 0.00006518 0.00000000)
(-0.05101952 0.00004817 0.00000000)
(-0.05183031 0.00000951 0.00000000)
(-0.05045130 -0.00009738 0.00000000)
(-0.04534717 -0.00032771 0.00000000)
(-0.03631028 -0.00112433 0.00000000)
(-0.01360182 -0.00282519 0.00000000)
(-0.00696041 -0.00365078 0.00000000)
(-0.00217069 -0.00116629 0.00000000)
(0.00081184 0.00044765 0.00000000)
(0.00095625 0.00054976 0.00000000)
(0.00042346 0.00029860 0.00000000)
(-0.00031989 0.00067321 0.00000000)
(0.00073756 0.00109284 0.00000000)
(0.00009492 0.00093953 0.00000000)
(-0.00033677 -0.00025071 0.00000000)
(0.00162040 0.00233499 0.00000000)
(0.00159484 0.00253809 0.00000000)
(0.00004600 0.00063760 0.00000000)
(-0.00063615 -0.00007627 0.00000000)
(0.00002137 -0.00013590 0.00000000)
(0.00025172 0.00105497 0.00000000)
(0.00163860 0.00265663 0.00000000)
(0.00126772 0.00210773 0.00000000)
(0.00145127 0.00218521 0.00000000)
(-0.00037830 0.00121092 0.00000000)
(0.00037168 0.00078764 0.00000000)
(-0.00015679 0.00023316 0.00000000)
(0.00049282 0.00089248 0.00000000)
(0.00001819 0.00037955 0.00000000)
(0.00000300 0.00003200 0.00000000)
(0.00009310 0.00001538 0.00000000)
(0.00013517 0.00012540 0.00000000)
(-0.00235752 -0.00266844 0.00000000)
(-0.00278394 -0.00526264 0.00000000)
(-0.01501067 -0.01124615 0.00000000)
(-0.01249365 -0.00647535 0.00000000)
(0.01420648 0.00203718 0.00000000)
(0.07423009 0.00180450 0.00000000)
(0.07680240 0.00069343 0.00000000)
(0.12334501 -0.00006879 0.00000000)
(0.10854755 -0.00092061 0.00000000)
(0.03979612 -0.00084506 0.00000000)
(-0.00586017 0.00529335 0.00000000)
(-0.00824822 0.00594915 0.00000000)
(-0.00262844 0.00273374 0.00000000)
(-0.00121938 0.00184336 0.00000000)
(-0.00106420 0.00119017 0.00000000)
(-0.00128229 0.00193708 0.00000000)
(-0.00105908 0.00150638 0.00000000)
(-0.00132047 0.00187351 0.00000000)
(-0.00148988 0.00223840 0.00000000)
(-0.00212761 0.00382708 0.00000000)
(-0.00251477 0.00406707 0.00000000)
(-0.00277236 0.00413739 0.00000000)
(-0.00320491 0.00441730 0.00000000)
(-0.00336974 0.00529063 0.00000000)
(-0.00275904 0.00533017 0.00000000)
(-0.00241845 0.00520078 0.00000000)
(-0.00251660 0.00498836 0.00000000)
(-0.00338697 0.00436775 0.00000000)
(-0.00303251 0.00465438 0.00000000)
(-0.00274334 0.00346519 0.00000000)
(-0.00207345 0.00310269 0.00000000)
(-0.00126084 0.00195400 0.00000000)
(-0.00067073 0.00055175 0.00000000)
(0.00043542 -0.00086358 0.00000000)
(0.00208191 -0.00266330 0.00000000)
(0.00365244 -0.00441736 0.00000000)
(0.00587567 -0.00564337 0.00000000)
(0.00878663 -0.00594739 0.00000000)
(0.01021106 -0.00610831 0.00000000)
(0.01122558 -0.00441910 0.00000000)
(0.01164483 -0.00251884 0.00000000)
(0.01165554 -0.00010804 0.00000000)
(0.01059165 0.00019397 0.00000000)
(0.00914550 0.00020865 0.00000000)
(0.00775174 0.00018921 0.00000000)
(0.00646500 0.00016607 0.00000000)
(0.00533237 0.00014226 0.00000000)
(0.00431810 0.00013636 0.00000000)
(0.00324982 0.00015119 0.00000000)
(0.00211200 0.00016297 0.00000000)
(0.00084231 0.00018114 0.00000000)
(-0.00050580 0.00018829 0.00000000)
(-0.00195129 0.00020554 0.00000000)
(-0.00355448 0.00023556 0.00000000)
(-0.00534834 0.00025753 0.00000000)
(-0.00728899 0.00027579 0.00000000)
(-0.00932434 0.00028762 0.00000000)
(-0.01142594 0.00029830 0.00000000)
(-0.01365495 0.00031960 0.00000000)
(-0.01599957 0.00033367 0.00000000)
(-0.01845450 0.00034335 0.00000000)
(-0.02098784 0.00035133 0.00000000)
(-0.02362259 0.00037729 0.00000000)
(-0.02655371 0.00043313 0.00000000)
(-0.02990483 0.00049171 0.00000000)
(-0.03362161 0.00053843 0.00000000)
(-0.03756339 0.00056740 0.00000000)
(-0.04171548 0.00060305 0.00000000)
(-0.04600797 0.00061300 0.00000000)
(-0.05034556 0.00062539 0.00000000)
(-0.05477660 0.00063248 0.00000000)
(-0.05928055 0.00065801 0.00000000)
(-0.06388126 0.00067563 0.00000000)
(-0.06857973 0.00069041 0.00000000)
(-0.07334935 0.00070145 0.00000000)
(-0.07817868 0.00069451 0.00000000)
(-0.08278203 0.00069160 0.00000000)
(-0.08748046 0.00068581 0.00000000)
(-0.09204859 0.00068452 0.00000000)
(-0.09647256 0.00069256 0.00000000)
(-0.10123917 0.00067928 0.00000000)
(-0.10555495 0.00067311 0.00000000)
(-0.11004805 0.00068190 0.00000000)
(-0.11427841 0.00071312 0.00000000)
(-0.11905412 0.00072705 0.00000000)
(-0.12350501 0.00072890 0.00000000)
(-0.12754535 0.00068379 0.00000000)
(-0.13111181 0.00054886 0.00000000)
(-0.13268688 0.00030574 0.00000000)
(-0.13206725 -0.00018265 0.00000000)
(-0.12601616 -0.00120504 0.00000000)
(-0.11097783 -0.00326530 0.00000000)
(-0.08164538 -0.00848894 0.00000000)
(-0.05418919 -0.01600062 0.00000000)
(-0.03666356 -0.01787091 0.00000000)
(-0.02275505 -0.01412867 0.00000000)
(-0.01602334 -0.01059415 0.00000000)
(-0.00973761 -0.00539638 0.00000000)
(-0.00611230 -0.00500261 0.00000000)
(-0.00472425 -0.00597243 0.00000000)
(-0.00088394 0.00064990 0.00000000)
(-0.00262758 -0.00430802 0.00000000)
(0.00122675 0.00056181 0.00000000)
(-0.00048991 0.00126996 0.00000000)
(-0.00344966 -0.00209285 0.00000000)
(-0.00250096 -0.00491469 0.00000000)
(-0.00083730 -0.00050401 0.00000000)
(0.00095309 0.00104549 0.00000000)
(0.00435389 0.00555338 0.00000000)
(0.00227902 0.00539832 0.00000000)
(-0.00072007 0.00162917 0.00000000)
(-0.00189911 -0.00066634 0.00000000)
(-0.00203935 -0.00126793 0.00000000)
(-0.00087792 -0.00223482 0.00000000)
(-0.00070810 -0.00165923 0.00000000)
(-0.00006544 0.00057077 0.00000000)
(-0.00050176 -0.00008386 0.00000000)
(-0.00017661 -0.00013317 0.00000000)
(-0.00018009 0.00003949 0.00000000)
(-0.00025246 -0.00010615 0.00000000)
(-0.00781964 -0.00821979 0.00000000)
(0.00115825 -0.00183735 0.00000000)
(0.00863536 0.00658062 0.00000000)
(0.00594437 0.01256347 0.00000000)
(0.08661012 0.00903980 0.00000000)
(0.14526143 0.00608069 0.00000000)
(0.13300276 0.00165190 0.00000000)
(0.17790022 0.00047209 0.00000000)
(0.15836527 -0.00132372 0.00000000)
(0.08534196 -0.00217233 0.00000000)
(-0.00241361 0.00599225 0.00000000)
(-0.01258661 0.00908434 0.00000000)
(-0.00484220 0.00498575 0.00000000)
(-0.00213462 0.00319819 0.00000000)
(-0.00170890 0.00262424 0.00000000)
(-0.00226406 0.00343700 0.00000000)
(-0.00202245 0.00299125 0.00000000)
(-0.00259419 0.00396089 0.00000000)
(-0.00303027 0.00460881 0.00000000)
(-0.00306194 0.00646129 0.00000000)
(-0.00349387 0.00699605 0.00000000)
(-0.00397965 0.00737875 0.00000000)
(-0.00459997 0.00777668 0.00000000)
(-0.00570594 0.00905699 0.00000000)
(-0.00629683 0.00949398 0.00000000)
(-0.00603274 0.00971199 0.00000000)
(-0.00521572 0.00965504 0.00000000)
(-0.00633865 0.00875865 0.00000000)
(-0.00541940 0.00878319 0.00000000)
(-0.00484658 0.00713431 0.00000000)
(-0.00430284 0.00592114 0.00000000)
(-0.00309052 0.00415123 0.00000000)
(-0.00181086 0.00182588 0.00000000)
(0.00011654 -0.00060091 0.00000000)
(0.00206020 -0.00336407 0.00000000)
(0.00486642 -0.00593055 0.00000000)
(0.00813526 -0.00734503 0.00000000)
(0.01043916 -0.00808970 0.00000000)
(0.01273706 -0.00811335 0.00000000)
(0.01474210 -0.00595503 0.00000000)
(0.01551611 -0.00320640 0.00000000)
(0.01540647 -0.00022149 0.00000000)
(0.01420877 0.00050053 0.00000000)
(0.01215021 0.00056720 0.00000000)
(0.00996405 0.00053231 0.00000000)
(0.00789700 0.00047825 0.00000000)
(0.00602811 0.00041983 0.00000000)
(0.00428386 0.00040666 0.00000000)
(0.00248245 0.00044267 0.00000000)
(0.00056327 0.00047572 0.00000000)
(-0.00152217 0.00052551 0.00000000)
(-0.00378672 0.00055479 0.00000000)
(-0.00617295 0.00059759 0.00000000)
(-0.00881170 0.00068004 0.00000000)
(-0.01172448 0.00073895 0.00000000)
(-0.01487030 0.00078883 0.00000000)
(-0.01813693 0.00081756 0.00000000)
(-0.02152103 0.00084781 0.00000000)
(-0.02507666 0.00090295 0.00000000)
(-0.02886331 0.00095356 0.00000000)
(-0.03283340 0.00098591 0.00000000)
(-0.03693102 0.00101257 0.00000000)
(-0.04127432 0.00109174 0.00000000)
(-0.04607582 0.00124362 0.00000000)
(-0.05144255 0.00139530 0.00000000)
(-0.05726336 0.00150822 0.00000000)
(-0.06333550 0.00157806 0.00000000)
(-0.06964665 0.00165362 0.00000000)
(-0.07608664 0.00167962 0.00000000)
(-0.08261907 0.00170829 0.00000000)
(-0.08918869 0.00172454 0.00000000)
(-0.09577555 0.00176629 0.00000000)
(-0.10243166 0.00178974 0.00000000)
(-0.10904917 0.00181604 0.00000000)
(-0.11566474 0.00183310 0.00000000)
(-0.12220090 0.00181586 0.00000000)
(-0.12864094 0.00177803 0.00000000)
(-0.13469827 0.00175273 0.00000000)
(-0.14077989 0.00173498 0.00000000)
(-0.14682041 0.00173143 0.00000000)
(-0.15241819 0.00169135 0.00000000)
(-0.15809063 0.00166195 0.00000000)
(-0.16335318 0.00165779 0.00000000)
(-0.16860736 0.00168795 0.00000000)
(-0.17381953 0.00168044 0.00000000)
(-0.17834337 0.00160661 0.00000000)
(-0.18206272 0.00138783 0.00000000)
(-0.18418951 0.00093530 0.00000000)
(-0.18359783 0.00020009 0.00000000)
(-0.17900809 -0.00118145 0.00000000)
(-0.16773164 -0.00369404 0.00000000)
(-0.14658654 -0.00815525 0.00000000)
(-0.11411594 -0.01674787 0.00000000)
(-0.08650405 -0.02681715 0.00000000)
(-0.06522850 -0.03187644 0.00000000)
(-0.05074967 -0.03352958 0.00000000)
(-0.03995700 -0.03246489 0.00000000)
(-0.03471758 -0.02991461 0.00000000)
(-0.02510742 -0.02761246 0.00000000)
(-0.02244865 -0.02506365 0.00000000)
(-0.01783818 -0.01973111 0.00000000)
(-0.01308135 -0.01870768 0.00000000)
(-0.01622554 -0.01448466 0.00000000)
(-0.00967454 -0.01399419 0.00000000)
(-0.00707339 -0.01445454 0.00000000)
(-0.00723081 -0.01377768 0.00000000)
(-0.01142149 -0.01393623 0.00000000)
(-0.00386557 -0.00306806 0.00000000)
(-0.01217836 -0.00720163 0.00000000)
(-0.01154255 -0.00786530 0.00000000)
(-0.00521169 -0.00977740 0.00000000)
(-0.00359854 -0.00788644 0.00000000)
(-0.00269557 -0.00684446 0.00000000)
(-0.00244307 -0.00677340 0.00000000)
(-0.00115616 -0.00386595 0.00000000)
(-0.00084635 -0.00199311 0.00000000)
(-0.00052530 -0.00042894 0.00000000)
(-0.00012274 -0.00017480 0.00000000)
(0.00065974 0.00069268 0.00000000)
(-0.00251429 -0.00252828 0.00000000)
(-0.00375091 -0.00601386 0.00000000)
(0.00329918 0.00205036 0.00000000)
(0.07585292 0.05703148 0.00000000)
(0.10714990 0.07735701 0.00000000)
(0.20049591 0.02820443 0.00000000)
(0.23011048 0.01361388 0.00000000)
(0.19680190 0.00404251 0.00000000)
(0.23303646 0.00204243 0.00000000)
(0.20775572 -0.00106033 0.00000000)
(0.13477038 -0.00374035 0.00000000)
(0.01038098 0.00465257 0.00000000)
(-0.01520607 0.01110199 0.00000000)
(-0.00754408 0.00881773 0.00000000)
(-0.00401836 0.00516806 0.00000000)
(-0.00281265 0.00448543 0.00000000)
(-0.00343292 0.00508973 0.00000000)
(-0.00316736 0.00525391 0.00000000)
(-0.00385533 0.00632199 0.00000000)
(-0.00445503 0.00724924 0.00000000)
(-0.00476371 0.00954092 0.00000000)
(-0.00537735 0.01058695 0.00000000)
(-0.00615770 0.01167873 0.00000000)
(-0.00676414 0.01247667 0.00000000)
(-0.00758240 0.01360044 0.00000000)
(-0.00935531 0.01409132 0.00000000)
(-0.00966373 0.01437577 0.00000000)
(-0.00951127 0.01467047 0.00000000)
(-0.00947686 0.01357223 0.00000000)
(-0.00874473 0.01294860 0.00000000)
(-0.00783138 0.01132742 0.00000000)
(-0.00665845 0.00935452 0.00000000)
(-0.00550817 0.00663165 0.00000000)
(-0.00354018 0.00358351 0.00000000)
(-0.00138974 0.00036414 0.00000000)
(0.00101502 -0.00306794 0.00000000)
(0.00405052 -0.00613410 0.00000000)
(0.00751828 -0.00818371 0.00000000)
(0.01062965 -0.00942424 0.00000000)
(0.01361536 -0.00920816 0.00000000)
(0.01602441 -0.00677949 0.00000000)
(0.01723638 -0.00344029 0.00000000)
(0.01686454 -0.00017354 0.00000000)
(0.01539907 0.00092239 0.00000000)
(0.01283966 0.00107671 0.00000000)
(0.01005730 0.00103618 0.00000000)
(0.00731246 0.00095078 0.00000000)
(0.00476293 0.00085332 0.00000000)
(0.00230491 0.00083643 0.00000000)
(-0.00018338 0.00089352 0.00000000)
(-0.00282931 0.00095899 0.00000000)
(-0.00569551 0.00105492 0.00000000)
(-0.00880070 0.00111908 0.00000000)
(-0.01209173 0.00120049 0.00000000)
(-0.01566157 0.00135137 0.00000000)
(-0.01961477 0.00147087 0.00000000)
(-0.02381362 0.00155740 0.00000000)
(-0.02816172 0.00160976 0.00000000)
(-0.03267470 0.00167364 0.00000000)
(-0.03739831 0.00177620 0.00000000)
(-0.04240354 0.00187814 0.00000000)
(-0.04768451 0.00194907 0.00000000)
(-0.05318747 0.00201851 0.00000000)
(-0.05903003 0.00218041 0.00000000)
(-0.06543555 0.00245534 0.00000000)
(-0.07244065 0.00271657 0.00000000)
(-0.07987752 0.00289612 0.00000000)
(-0.08752154 0.00300971 0.00000000)
(-0.09536473 0.00312087 0.00000000)
(-0.10327911 0.00316157 0.00000000)
(-0.11124545 0.00320152 0.00000000)
(-0.11919810 0.00321266 0.00000000)
(-0.12702466 0.00324505 0.00000000)
(-0.13467818 0.00325805 0.00000000)
(-0.14228622 0.00327672 0.00000000)
(-0.14980560 0.00327821 0.00000000)
(-0.15713608 0.00323279 0.00000000)
(-0.16419129 0.00313355 0.00000000)
(-0.17090787 0.00305460 0.00000000)
(-0.17732961 0.00299894 0.00000000)
(-0.18346705 0.00296057 0.00000000)
(-0.18934839 0.00286127 0.00000000)
(-0.19479404 0.00277493 0.00000000)
(-0.19983690 0.00271273 0.00000000)
(-0.20465837 0.00269089 0.00000000)
(-0.20889933 0.00259509 0.00000000)
(-0.21211181 0.00234117 0.00000000)
(-0.21414066 0.00181068 0.00000000)
(-0.21370576 0.00084933 0.00000000)
(-0.21022296 -0.00056922 0.00000000)
(-0.20243051 -0.00299614 0.00000000)
(-0.18850198 -0.00706322 0.00000000)
(-0.16639152 -0.01360612 0.00000000)
(-0.13647258 -0.02426103 0.00000000)
(-0.11040059 -0.03617399 0.00000000)
(-0.09055025 -0.04469722 0.00000000)
(-0.07682971 -0.05058086 0.00000000)
(-0.06612472 -0.05302308 0.00000000)
(-0.05897707 -0.05452105 0.00000000)
(-0.05344772 -0.05626389 0.00000000)
(-0.04501031 -0.05429912 0.00000000)
(-0.04368083 -0.05350698 0.00000000)
(-0.04056031 -0.04916965 0.00000000)
(-0.03483979 -0.04860637 0.00000000)
(-0.02567892 -0.04475462 0.00000000)
(-0.03231939 -0.04576541 0.00000000)
(-0.03027887 -0.04184420 0.00000000)
(-0.02356601 -0.03967255 0.00000000)
(-0.02873168 -0.03140686 0.00000000)
(-0.02454791 -0.03491978 0.00000000)
(-0.02068875 -0.03438001 0.00000000)
(-0.01156628 -0.02610972 0.00000000)
(-0.00692695 -0.01703738 0.00000000)
(-0.00662337 -0.01372943 0.00000000)
(-0.00634608 -0.01087569 0.00000000)
(-0.00432769 -0.00739894 0.00000000)
(-0.00268095 -0.00476560 0.00000000)
(-0.00088738 -0.00205666 0.00000000)
(0.00015412 -0.00014009 0.00000000)
(0.00613596 0.00506679 0.00000000)
(0.00293564 0.00179794 0.00000000)
(0.01415045 0.00770713 0.00000000)
(0.01069539 0.01532846 0.00000000)
(0.15578985 0.10941500 0.00000000)
(0.24390353 0.14124104 0.00000000)
(0.33646441 0.05936103 0.00000000)
(0.31349210 0.02464545 0.00000000)
(0.26249111 0.00829884 0.00000000)
(0.28632034 0.00440009 0.00000000)
(0.25604178 -0.00029282 0.00000000)
(0.18350994 -0.00467423 0.00000000)
(0.03522102 0.00151691 0.00000000)
(-0.01621644 0.01254897 0.00000000)
(-0.01101943 0.01197521 0.00000000)
(-0.00630166 0.00713079 0.00000000)
(-0.00437745 0.00654718 0.00000000)
(-0.00459049 0.00695951 0.00000000)
(-0.00461396 0.00769527 0.00000000)
(-0.00548709 0.00898936 0.00000000)
(-0.00632162 0.01041468 0.00000000)
(-0.00715356 0.01281342 0.00000000)
(-0.00823993 0.01442987 0.00000000)
(-0.00915106 0.01583715 0.00000000)
(-0.00984506 0.01706407 0.00000000)
(-0.01077640 0.01880000 0.00000000)
(-0.01218648 0.01872647 0.00000000)
(-0.01268012 0.01908961 0.00000000)
(-0.01279290 0.01928333 0.00000000)
(-0.01227665 0.01824408 0.00000000)
(-0.01161763 0.01694078 0.00000000)
(-0.01075810 0.01491406 0.00000000)
(-0.00931457 0.01265982 0.00000000)
(-0.00790484 0.00911007 0.00000000)
(-0.00577734 0.00557392 0.00000000)
(-0.00334342 0.00176216 0.00000000)
(-0.00072378 -0.00220292 0.00000000)
(0.00262349 -0.00567703 0.00000000)
(0.00612591 -0.00817400 0.00000000)
(0.00960843 -0.00964606 0.00000000)
(0.01289833 -0.00942774 0.00000000)
(0.01547466 -0.00687933 0.00000000)
(0.01687630 -0.00328063 0.00000000)
(0.01637263 0.00007894 0.00000000)
(0.01452639 0.00143731 0.00000000)
(0.01161288 0.00170480 0.00000000)
(0.00835146 0.00168122 0.00000000)
(0.00506355 0.00157341 0.00000000)
(0.00189317 0.00144440 0.00000000)
(-0.00118709 0.00142458 0.00000000)
(-0.00433807 0.00150550 0.00000000)
(-0.00765114 0.00161446 0.00000000)
(-0.01123305 0.00176872 0.00000000)
(-0.01507455 0.00187577 0.00000000)
(-0.01916103 0.00200905 0.00000000)
(-0.02359643 0.00224494 0.00000000)
(-0.02844242 0.00243819 0.00000000)
(-0.03354963 0.00256229 0.00000000)
(-0.03879422 0.00264437 0.00000000)
(-0.04423144 0.00275023 0.00000000)
(-0.04993480 0.00291382 0.00000000)
(-0.05596124 0.00308435 0.00000000)
(-0.06230670 0.00321039 0.00000000)
(-0.06897630 0.00334334 0.00000000)
(-0.07607294 0.00361042 0.00000000)
(-0.08375717 0.00401244 0.00000000)
(-0.09194174 0.00438027 0.00000000)
(-0.10047543 0.00461232 0.00000000)
(-0.10914998 0.00476191 0.00000000)
(-0.11794693 0.00489608 0.00000000)
(-0.12674928 0.00493753 0.00000000)
(-0.13547423 0.00496999 0.00000000)
(-0.14409237 0.00495656 0.00000000)
(-0.15244776 0.00494416 0.00000000)
(-0.16054211 0.00491476 0.00000000)
(-0.16839406 0.00490111 0.00000000)
(-0.17603221 0.00486537 0.00000000)
(-0.18337173 0.00477388 0.00000000)
(-0.19043850 0.00458486 0.00000000)
(-0.19694738 0.00442096 0.00000000)
(-0.20311131 0.00429566 0.00000000)
(-0.20882318 0.00418867 0.00000000)
(-0.21408909 0.00400086 0.00000000)
(-0.21890616 0.00381542 0.00000000)
(-0.22313955 0.00365542 0.00000000)
(-0.22669046 0.00351366 0.00000000)
(-0.22950532 0.00324955 0.00000000)
(-0.23120196 0.00273955 0.00000000)
(-0.23109690 0.00178490 0.00000000)
(-0.22861002 0.00025505 0.00000000)
(-0.22300683 -0.00188801 0.00000000)
(-0.21355977 -0.00529299 0.00000000)
(-0.19898579 -0.01069462 0.00000000)
(-0.17815242 -0.01881457 0.00000000)
(-0.15190915 -0.03079244 0.00000000)
(-0.12846315 -0.04432188 0.00000000)
(-0.11040021 -0.05567425 0.00000000)
(-0.09759865 -0.06429913 0.00000000)
(-0.08796663 -0.07044083 0.00000000)
(-0.08008660 -0.07473354 0.00000000)
(-0.07490823 -0.07881862 0.00000000)
(-0.06872340 -0.08261807 0.00000000)
(-0.06667614 -0.08300121 0.00000000)
(-0.06162151 -0.08307211 0.00000000)
(-0.05729943 -0.08234526 0.00000000)
(-0.06195708 -0.08407829 0.00000000)
(-0.05807866 -0.07897167 0.00000000)
(-0.04664194 -0.07907997 0.00000000)
(-0.04299711 -0.07460547 0.00000000)
(-0.04416790 -0.06890123 0.00000000)
(-0.04339503 -0.06716169 0.00000000)
(-0.03779761 -0.06093299 0.00000000)
(-0.03141531 -0.04787461 0.00000000)
(-0.02972507 -0.04005657 0.00000000)
(-0.02734012 -0.03487580 0.00000000)
(-0.02224279 -0.02735378 0.00000000)
(-0.01267932 -0.01785517 0.00000000)
(-0.00715881 -0.01095166 0.00000000)
(-0.00215909 -0.00442595 0.00000000)
(0.00123730 0.00073115 0.00000000)
(0.01099339 0.01305962 0.00000000)
(0.01477804 0.01321283 0.00000000)
(0.04364417 0.03581298 0.00000000)
(0.06935343 0.06913645 0.00000000)
(0.23619108 0.16344094 0.00000000)
(0.37089160 0.18844505 0.00000000)
(0.43412575 0.08820832 0.00000000)
(0.38509804 0.03687576 0.00000000)
(0.32415921 0.01359926 0.00000000)
(0.33596537 0.00723799 0.00000000)
(0.30250337 0.00088012 0.00000000)
(0.22879533 -0.00479838 0.00000000)
(0.07249731 -0.00243316 0.00000000)
(-0.01347789 0.01272907 0.00000000)
(-0.01525660 0.01462009 0.00000000)
(-0.00890935 0.00930636 0.00000000)
(-0.00607669 0.00872322 0.00000000)
(-0.00570289 0.00912416 0.00000000)
(-0.00620974 0.01026147 0.00000000)
(-0.00692717 0.01184892 0.00000000)
(-0.00793429 0.01366604 0.00000000)
(-0.00890550 0.01612779 0.00000000)
(-0.01044914 0.01790837 0.00000000)
(-0.01168753 0.01963836 0.00000000)
(-0.01281693 0.02131271 0.00000000)
(-0.01371266 0.02304296 0.00000000)
(-0.01481759 0.02299387 0.00000000)
(-0.01550768 0.02334524 0.00000000)
(-0.01562712 0.02335852 0.00000000)
(-0.01494575 0.02228568 0.00000000)
(-0.01431211 0.02075703 0.00000000)
(-0.01349454 0.01818723 0.00000000)
(-0.01191304 0.01548901 0.00000000)
(-0.01027914 0.01153133 0.00000000)
(-0.00808984 0.00761291 0.00000000)
(-0.00561034 0.00343332 0.00000000)
(-0.00288797 -0.00087632 0.00000000)
(0.00046392 -0.00464179 0.00000000)
(0.00395352 -0.00749723 0.00000000)
(0.00753413 -0.00914562 0.00000000)
(0.01086611 -0.00897181 0.00000000)
(0.01349865 -0.00654923 0.00000000)
(0.01493959 -0.00284341 0.00000000)
(0.01428765 0.00050863 0.00000000)
(0.01205964 0.00204237 0.00000000)
(0.00885061 0.00243285 0.00000000)
(0.00524094 0.00244838 0.00000000)
(0.00151490 0.00233317 0.00000000)
(-0.00217211 0.00218343 0.00000000)
(-0.00584243 0.00217172 0.00000000)
(-0.00958397 0.00227704 0.00000000)
(-0.01351123 0.00243965 0.00000000)
(-0.01772722 0.00265971 0.00000000)
(-0.02222936 0.00282211 0.00000000)
(-0.02700982 0.00302059 0.00000000)
(-0.03218471 0.00335047 0.00000000)
(-0.03776930 0.00362110 0.00000000)
(-0.04361338 0.00378236 0.00000000)
(-0.04957972 0.00389539 0.00000000)
(-0.05576025 0.00405624 0.00000000)
(-0.06223676 0.00429230 0.00000000)
(-0.06909016 0.00453901 0.00000000)
(-0.07630201 0.00473521 0.00000000)
(-0.08386325 0.00495147 0.00000000)
(-0.09192364 0.00534403 0.00000000)
(-0.10050745 0.00585649 0.00000000)
(-0.10948553 0.00631095 0.00000000)
(-0.11867647 0.00657314 0.00000000)
(-0.12793392 0.00674657 0.00000000)
(-0.13722020 0.00688332 0.00000000)
(-0.14640882 0.00690643 0.00000000)
(-0.15542883 0.00690443 0.00000000)
(-0.16420241 0.00683992 0.00000000)
(-0.17260476 0.00674784 0.00000000)
(-0.18057811 0.00665163 0.00000000)
(-0.18828063 0.00657847 0.00000000)
(-0.19557614 0.00648081 0.00000000)
(-0.20265124 0.00632831 0.00000000)
(-0.20926032 0.00602771 0.00000000)
(-0.21534085 0.00574973 0.00000000)
(-0.22082721 0.00552154 0.00000000)
(-0.22581491 0.00531910 0.00000000)
(-0.23025383 0.00501517 0.00000000)
(-0.23402116 0.00468633 0.00000000)
(-0.23713286 0.00438933 0.00000000)
(-0.23952211 0.00408619 0.00000000)
(-0.24086089 0.00359605 0.00000000)
(-0.24096889 0.00277410 0.00000000)
(-0.23926766 0.00136505 0.00000000)
(-0.23524604 -0.00073654 0.00000000)
(-0.22849381 -0.00355688 0.00000000)
(-0.21841653 -0.00780399 0.00000000)
(-0.20425214 -0.01426973 0.00000000)
(-0.18536377 -0.02353983 0.00000000)
(-0.16262474 -0.03637493 0.00000000)
(-0.14173945 -0.05113654 0.00000000)
(-0.12553386 -0.06454338 0.00000000)
(-0.11411252 -0.07548665 0.00000000)
(-0.10500174 -0.08400082 0.00000000)
(-0.09750190 -0.09108103 0.00000000)
(-0.09191147 -0.09720104 0.00000000)
(-0.08740952 -0.10391113 0.00000000)
(-0.08431032 -0.10603329 0.00000000)
(-0.08084850 -0.10929226 0.00000000)
(-0.07788664 -0.11306768 0.00000000)
(-0.07918800 -0.11080848 0.00000000)
(-0.07462233 -0.11017560 0.00000000)
(-0.07097030 -0.10996483 0.00000000)
(-0.06792488 -0.10727555 0.00000000)
(-0.06448323 -0.09978227 0.00000000)
(-0.05894498 -0.09620535 0.00000000)
(-0.04900011 -0.08688190 0.00000000)
(-0.05017127 -0.07234566 0.00000000)
(-0.04246676 -0.06616182 0.00000000)
(-0.03490754 -0.05655603 0.00000000)
(-0.02593723 -0.04568344 0.00000000)
(-0.01195785 -0.02924499 0.00000000)
(-0.00626050 -0.01729034 0.00000000)
(-0.00047224 -0.00582482 0.00000000)
(0.00537624 0.00440791 0.00000000)
(0.01495623 0.02508109 0.00000000)
(0.02720051 0.03699347 0.00000000)
(0.07389397 0.07030237 0.00000000)
(0.14935753 0.12527471 0.00000000)
(0.28230952 0.18839174 0.00000000)
(0.41470379 0.20551576 0.00000000)
(0.47554127 0.10586978 0.00000000)
(0.43542687 0.04689515 0.00000000)
(0.37730232 0.01932205 0.00000000)
(0.37886916 0.01075484 0.00000000)
(0.34471958 0.00268075 0.00000000)
(0.27369204 -0.00434270 0.00000000)
(0.11822084 -0.00539254 0.00000000)
(-0.00556646 0.01167033 0.00000000)
(-0.01836027 0.01624485 0.00000000)
(-0.01154448 0.01164227 0.00000000)
(-0.00783424 0.01102875 0.00000000)
(-0.00690012 0.01165728 0.00000000)
(-0.00768111 0.01278103 0.00000000)
(-0.00824640 0.01484151 0.00000000)
(-0.00941190 0.01716014 0.00000000)
(-0.01058703 0.01964043 0.00000000)
(-0.01240505 0.02140001 0.00000000)
(-0.01381637 0.02332522 0.00000000)
(-0.01515787 0.02510760 0.00000000)
(-0.01626422 0.02693195 0.00000000)
(-0.01709711 0.02700803 0.00000000)
(-0.01790433 0.02724220 0.00000000)
(-0.01813251 0.02707182 0.00000000)
(-0.01756450 0.02594708 0.00000000)
(-0.01686160 0.02408253 0.00000000)
(-0.01597851 0.02126199 0.00000000)
(-0.01442471 0.01818082 0.00000000)
(-0.01266915 0.01403264 0.00000000)
(-0.01051924 0.00978519 0.00000000)
(-0.00805345 0.00530927 0.00000000)
(-0.00530755 0.00076065 0.00000000)
(-0.00218016 -0.00322541 0.00000000)
(0.00122002 -0.00632196 0.00000000)
(0.00472012 -0.00809134 0.00000000)
(0.00792410 -0.00805668 0.00000000)
(0.01046025 -0.00583021 0.00000000)
(0.01180757 -0.00219786 0.00000000)
(0.01097262 0.00110637 0.00000000)
(0.00841007 0.00274776 0.00000000)
(0.00495104 0.00325380 0.00000000)
(0.00107141 0.00332648 0.00000000)
(-0.00301271 0.00322306 0.00000000)
(-0.00714238 0.00307025 0.00000000)
(-0.01132541 0.00307407 0.00000000)
(-0.01560268 0.00321072 0.00000000)
(-0.02007165 0.00343107 0.00000000)
(-0.02484050 0.00372032 0.00000000)
(-0.02989607 0.00394443 0.00000000)
(-0.03527753 0.00422666 0.00000000)
(-0.04107797 0.00465419 0.00000000)
(-0.04725615 0.00499825 0.00000000)
(-0.05365424 0.00519230 0.00000000)
(-0.06017606 0.00533813 0.00000000)
(-0.06692685 0.00556699 0.00000000)
(-0.07402019 0.00588248 0.00000000)
(-0.08149559 0.00621817 0.00000000)
(-0.08938494 0.00649677 0.00000000)
(-0.09761373 0.00680561 0.00000000)
(-0.10634714 0.00731903 0.00000000)
(-0.11549868 0.00792192 0.00000000)
(-0.12491616 0.00843608 0.00000000)
(-0.13442198 0.00870773 0.00000000)
(-0.14392907 0.00888581 0.00000000)
(-0.15332190 0.00899800 0.00000000)
(-0.16252810 0.00898476 0.00000000)
(-0.17149594 0.00892124 0.00000000)
(-0.18009290 0.00877722 0.00000000)
(-0.18822068 0.00857697 0.00000000)
(-0.19584567 0.00839066 0.00000000)
(-0.20306429 0.00823357 0.00000000)
(-0.20990620 0.00805712 0.00000000)
(-0.21637662 0.00782676 0.00000000)
(-0.22237925 0.00740416 0.00000000)
(-0.22773256 0.00698275 0.00000000)
(-0.23247569 0.00661922 0.00000000)
(-0.23656736 0.00628969 0.00000000)
(-0.24007096 0.00585143 0.00000000)
(-0.24284564 0.00535377 0.00000000)
(-0.24484512 0.00489013 0.00000000)
(-0.24603760 0.00438980 0.00000000)
(-0.24621932 0.00364203 0.00000000)
(-0.24505264 0.00248722 0.00000000)
(-0.24217152 0.00064372 0.00000000)
(-0.23722370 -0.00198769 0.00000000)
(-0.22988888 -0.00542300 0.00000000)
(-0.21976001 -0.01038123 0.00000000)
(-0.20643802 -0.01767768 0.00000000)
(-0.18959930 -0.02780721 0.00000000)
(-0.16998750 -0.04124931 0.00000000)
(-0.15155355 -0.05680165 0.00000000)
(-0.13713672 -0.07172448 0.00000000)
(-0.12639770 -0.08440603 0.00000000)
(-0.11791403 -0.09483256 0.00000000)
(-0.11090878 -0.10379484 0.00000000)
(-0.10540405 -0.11186870 0.00000000)