4 	0.00391112967796256 	-1.38777878078145e-17 	0.158205563293229 	3.2413832968765e-05 	834.119275214724 	8.10428870054433e-06 	3.11398674308514e-38
4 	0.0118766651674913 	-1.38777878078145e-17 	0.158202732391873 	0.000353656977159804 	244.359498384618 	0.000102624168254915 	0
4 	0.020134001548576 	-6.93889390390723e-18 	0.158194726139264 	0.00165343988461951 	61.7959774738916 	0.000402860786079057 	0
4 	0.0286938283423949 	0 	0.158173916013657 	0.00413146364344477 	25.8181340450128 	0.000417738326386218 	0
4 	0.0375672266585908 	3.46944695195361e-18 	0.158131741322477 	0.00687382361684508 	14.197237518044 	0.000128800756322972 	0
4 	0.046765683540303 	1.04083408558608e-17 	0.158065876586347 	0.00930726427786611 	9.42417591074656 	3.85407451745133e-05 	0
4 	0.0563011068347006 	6.93889390390723e-18 	0.15798079340829 	0.0113921106604897 	7.0419788784169 	0.000110532242887637 	0
4 	0.0661858406082648 	0 	0.157881935202725 	0.0132189015716386 	5.65693535648398 	0.000237868473990435 	0
4 	0.0764326811267815 	0 	0.157772843576023 	0.014864795042593 	4.76169682461214 	0.000382359460362483 	0
4 	0.0870548934207258 	0 	0.157655687055274 	0.0163820640195924 	4.13954579960274 	0.000534245530345296 	0
4 	0.0980662284574838 	0 	0.157532087180373 	0.0178058742783042 	3.68459403432131 	0.000691513621057643 	0
4 	0.109480940942647 	-3.46944695195361e-18 	0.157403417930551 	0.0191606914182484 	3.33946006417428 	0.000854321607347814 	0
4 	0.121313807773417 	-6.93889390390723e-18 	0.157270885005148 	0.0204642160177003 	3.07048217734623 	0.00102350000260675 	0
4 	0.13358014716801 	-6.93889390390723e-18 	0.157135574018784 	0.0217297336732146 	2.8566571045339 	0.00120011822381313 	0
4 	0.146295838495838 	-1.04083408558608e-17 	0.156998488833082 	0.0229675488186066 	2.68422389129757 	0.0013853559822706 	0
4 	0.159477342834115 	-1.38777878078145e-17 	0.15686057590993 	0.0241858875486472 	2.54380555467133 	0.00158047186257296 	0
4 	0.173141724277517 	-1.38777878078145e-17 	0.156722738216583 	0.0253914838500472 	2.42880529169266 	0.0017868050514959 	0
4 	0.18730667202848 	-1.38777878078145e-17 	0.156585843217325 	0.0265899703479403 	2.33445969502476 	0.00200578835715251 	0
4 	0.201990523296728 	-1.38777878078145e-17 	0.1564507274734 	0.0277861438609152 	2.25725542894921 	0.00223896467237318 	0
4 	0.217212287037676 	-2.08166817117217e-17 	0.156318199179272 	0.0289841477320747 	2.1945565239207 	0.00248800397763205 	0
4 	0.232991668560442 	-2.77555756156289e-17 	0.156189039534008 	0.0301875966161683 	2.14435866053132 	0.0027547196915894 	0
4 	0.249349095037321 	-2.77555756156289e-17 	0.156064003648524 	0.0313996597212748 	2.10512268655946 	0.00304108370403154 	0
4 	0.266305741947753 	-3.12250225675825e-17 	0.155943821559712 	0.0326231125511098 	2.07565905857401 	0.00334923949695671 	0
4 	0.283883560490999 	-3.81639164714898e-17 	0.155829199838499 	0.0338603634057013 	2.05504586453445 	0.00368151262602946 	0
4 	0.30210530600303 	-3.81639164714898e-17 	0.155720824227301 	0.0351134583989738 	2.04256948147568 	0.00404041758154352 	0
4 	0.320994567414413 	-3.46944695195361e-17 	0.155619363714612 	0.0363840670397798 	2.03768076814031 	0.00442865969497497 	0
4 	0.34057579778732 	-3.12250225675825e-17 	0.155525476436945 	0.0376734492039954 	2.03996206384536 	0.00484913029796925 	0
4 	0.360874345971201 	-2.77555756156289e-17 	0.155439817679177 	0.0389824034250952 	2.04910175734108 	0.00530489277073396 	0
4 	0.38191648941809 	-2.77555756156289e-17 	0.155363049824116 	0.0403111957465205 	2.06487414114573 	0.00579915638402445 	0
4 	0.403729468200046 	-2.77555756156289e-17 	0.155295854316606 	0.0416594678552216 	2.08712287389932 	0.00633523353403504 	0
4 	0.426341520272734 	-3.12250225675825e-17 	0.155238950801321 	0.0430261228414952 	2.11574675072667 	0.00691647635873848 	0
4 	0.449781918030829 	-3.46944695195361e-17 	0.155193136763806 	0.0444091424579234 	2.15068671180892 	0.00754619118792661 	0
4 	0.474081006202548 	-3.81639164714898e-17 	0.155159312082065 	0.0458052550569189 	2.19191314456113 	0.00822748162398569 	0
4 	0.499270241132364 	-4.16333634234434e-17 	0.155138275833293 	0.0472102749378521 	2.23941222718513 	0.00896315275582604 	0
4 	0.525382231502763 	-4.16333634234434e-17 	0.155130076395389 	0.048618695891578 	2.29317001810671 	0.00975552247708342 	0
4 	0.552450780547768 	-4.16333634234434e-17 	0.155136079945441 	0.0500233375215997 	2.35315296463983 	0.0106171988371352 	0
4 	0.58051092981285 	-4.16333634234434e-17 	0.155170539249115 	0.0514158183125541 	2.41932746341675 	0.0116268889976467 	0
4 	0.60959900451791 	-3.46944695195361e-17 	0.155262974724787 	0.0527911435662646 	2.49189573162262 	0.0128615360624199 	0
4 	0.639752660582033 	-3.46944695195361e-17 	0.155422436553087 	0.0541461015846418 	2.57099893436793 	0.0142740981675683 	0
4 	0.671010933370887 	-4.5102810375397e-17 	0.15561702204308 	0.0554533501796118 	2.6546469732176 	0.0158301800912331 	0
4 	0.703414288229901 	-5.20417042793042e-17 	0.155814272117171 	0.056643325257925 	2.73745593371985 	0.0173152078632821 	0
4 	0.737004672868606 	-5.20417042793042e-17 	0.156008552105565 	0.0576301987742324 	2.8122648414645 	0.0185740634457129 	0
4 	0.771825571663976 	-5.20417042793042e-17 	0.156207825579661 	0.0583362549749372 	2.87217050868766 	0.0195442878025013 	0
4 	0.807922061953054 	-5.55111512312578e-17 	0.156419880906714 	0.0587020303486468 	2.91195078246866 	0.0202122387687479 	0
4 	0.845340872387743 	-5.55111512312578e-17 	0.156647515523109 	0.0586862579114093 	2.92862187316802 	0.0205691956102232 	0
4 	0.884130443427309 	-5.55111512312578e-17 	0.156888726773888 	0.0582632098282288 	2.92111732668601 	0.0205922018345977 	0
4 	0.924340990046898 	-5.55111512312578e-17 	0.157138677438875 	0.0574226014630941 	2.8895240792868 	0.0202507998727664 	0
4 	0.966024566743242 	-5.89805981832114e-17 	0.157391681125816 	0.0561729870233392 	2.83450723530192 	0.0195265455396059 	0
4 	1.00923513492173 	-6.59194920871187e-17 	0.157642390728577 	0.0545463328005533 	2.7571839623877 	0.0184311739336734 	0
4 	1.05402863275206 	-6.59194920871187e-17 	0.157886104672724 	0.0526004447630214 	2.65931996707256 	0.0170152479261352 	0
4 	1.10046304758287 	-6.24500451351651e-17 	0.158118480439082 	0.0504167568608722 	2.54361207433832 	0.0153656636362966 	0
4 	1.14859849100923 	-6.59194920871187e-17 	0.158335013203334 	0.0480925298301652 	2.41384187519439 	0.0135940552063681 	0
4 	1.19849727668995 	-6.59194920871187e-17 	0.158530666822377 	0.0457281745011727 	2.27472176416556 	0.0118191188358051 	0
4 	1.25022400101563 	-6.59194920871187e-17 	0.158700233109987 	0.0434122385327749 	2.13134882337264 	0.0101465190797758 	0
4 	1.30384562673186 	-6.93889390390723e-17 	0.158839658539881 	0.0412082600577304 	1.98839168281383 	0.00865161528345916 	0
4 	1.35943156962565 	-6.93889390390723e-17 	0.158946686295476 	0.0391478473369226 	1.84935949463682 	0.00737145938688022 	0
4 	1.41705378838762 	-7.63278329429795e-17 	0.159028693846067 	0.0372315541370946 	1.71629919644543 	0.0063070788797497 	0
4 	1.47678687776592 	-7.63278329429795e-17 	0.15913409378008 	0.0354350985515944 	1.58999457332429 	0.005403017934697 	0
4 	1.53870816513278 	-7.28583859910259e-17 	0.159259015782708 	0.0337267222640627 	1.47044123952544 	0.00459553145016591 	0
4 	1.60289781058851 	-7.63278329429795e-17 	0.159356708956119 	0.0320734642445617 	1.35539430883814 	0.0038803352440591 	0
4 	1.66943891073267 	-7.97972798949331e-17 	0.159428732750717 	0.0304489136417571 	1.24435834315931 	0.00325319495563634 	0
4 	1.73841760623657 	-7.63278329429795e-17 	0.159474407221917 	0.028836817831698 	1.1411525817808 	0.00271653702604172 	0
4 	1.8099231933566 	-7.28583859910259e-17 	0.159491434924548 	0.0272227435692518 	1.05025161371452 	0.00226160002116354 	0
4 	1.88404823953249 	-7.28583859910259e-17 	0.159477456113592 	0.0255903737083023 	0.972776942031956 	0.00187187879882756 	0
4 	1.96088870322038 	-6.93889390390723e-17 	0.15943369430443 	0.0239654305953183 	0.908425009858597 	0.00153960740717657 	0
4 	2.02025965173185 	-6.93889390390723e-17 	0.1593764250511 	0.0226630776183673 	0.865963523340417 	0.00130369625888516 	0
4 	2.06006301192217 	-6.93889390390723e-17 	0.159324368425358 	0.0217449957229211 	0.839615518099343 	0.00115190140821986 	0
4 	2.09845978584128 	-6.93889390390723e-17 	0.159269041364897 	0.0209062838746846 	0.818210504242505 	0.00102148595558228 	0
4 	2.13549967996946 	-6.93889390390723e-17 	0.159208782462231 	0.0201029303830293 	0.80007613703573 	0.000902623110602219 	0
4 	2.17123064424048 	-6.93889390390723e-17 	0.159144121205791 	0.0193344396476951 	0.784991932545008 	0.000794132138204896 	0
4 	2.20569893411516 	-6.93889390390723e-17 	0.1590756799717 	0.0186002508853357 	0.772793204037302 	0.000695110289184906 	0
4 	2.23894917046123 	-6.59194920871187e-17 	0.159004050327765 	0.0178996952405913 	0.763358890105879 	0.000604812464307285 	0
4 	2.27102439731726 	-6.24500451351651e-17 	0.158929777689642 	0.0172319890594055 	0.756604009661137 	0.000522605527306366 	0
4 	2.30196613761522 	-6.24500451351651e-17 	0.15885337547252 	0.0165962479027789 	0.752475144707188 	0.000447946037882655 	0
4 	2.33181444693392 	-6.24500451351651e-17 	0.158775330688141 	0.0159915109522133 	0.75094792860324 	0.000380366918771071 	0
4 	2.3606079653529 	-6.59194920871187e-17 	0.158696106098416 	0.0154167693729589 	0.752025902620844 	0.000319470041418458 	0
4 	2.38838396747391 	-7.63278329429795e-17 	0.158616141568931 	0.0148709948294374 	0.755740351385441 	0.000264922831786736 	0
4 	2.41517841067461 	-8.32667268468867e-17 	0.158535854707537 	0.0143531660571067 	0.762150886825064 	0.000216457464074614 	0
4 	2.44102598165722 	-7.97972798949331e-17 	0.158455640873591 	0.0138622924791196 	0.771346652561357 	0.000173871806957406 	0
4 	2.46596014135208 	-7.63278329429795e-17 	0.158375872739804 	0.0133974345106035 	0.783448086285618 	0.000137031677513326 	0
4 	2.49001316823444 	-7.63278329429795e-17 	0.158296899553148 	0.0129577205577923 	0.798609219408364 	0.000105874172273624 	0
4 	2.51321620011054 	-7.97972798949331e-17 	0.158219046205166 	0.0125423608920416 	0.817020519410429 	8.04119571485059e-05 	0
4 	2.535599274427 	-8.32667268468867e-17 	0.158142612201006 	0.0121506586275503 	0.838912296080607 	6.07384466743665e-05 	0
4 	2.55719136715571 	-8.32667268468867e-17 	0.158067870601542 	0.0117820180018751 	0.864558701452897 	4.70338085538161e-05 	0
4 	2.57802043030465 	-7.63278329429795e-17 	0.157995067000931 	0.0114359500807791 	0.894282356795851 	3.95717051409319e-05 	0
4 	2.59811342810315 	-6.93889390390723e-17 	0.157924418592595 	0.0111120759051289 	0.928459639863018 	3.87266393557801e-05 	0
4 	2.61749637190832 	-7.28583859910259e-17 	0.157856113369563 	0.010810126984127 	0.967526663042691 	4.49817181091409e-05 	0
4 	2.63619435387806 	-7.97972798949331e-17 	0.157790309500061 	0.0105299429312844 	1.01198596959815 	5.89365936113133e-05 	0
4 	2.65423157945406 	-8.32667268468867e-17 	0.157727134915959 	0.010271465953067 	1.06241397313025 	8.13153082472172e-05 	0
4 	2.67163139869691 	-8.32667268468867e-17 	0.157666687149934 	0.0100347318528086 	1.11946916804911 	0.000112973773629293 	0
4 	2.68841633651388 	-8.32667268468867e-17 	0.157609033456331 	0.00981985722348867 	1.18390115078191 	0.000154906684782646 	0
4 	2.7046081218185 	-8.32667268468867e-17 	0.157554211250003 	0.00962702259069397 	1.25656051832845 	0.000208253831932421 	0
4 	2.72022771565972 	-8.32667268468867e-17 	0.157502228895635 	0.00945645144450724 	1.33840975865736 	0.000274306042691748 	0
4 	2.73529533835694 	-8.32667268468867e-17 	0.157453066875736 	0.00930838536721305 	1.43053532138511 	0.000354511364288975 	0
4 	2.74983049567625 	-8.67361737988404e-17 	0.15740667935729 	0.00918305580428327 	1.5341611592935 	0.000450482543310154 	0
4 	2.76385200408156 	-8.32667268468867e-17 	0.157362996163843 	0.00908065339594979 	1.65066415853908 	0.000564007300487536 	0
4 	2.77737801509343 	-8.67361737988404e-17 	0.157321925141487 	0.00900129611761057 	1.78159201867737 	0.000697063208305316 	0
4 	2.79042603878708 	-9.71445146547012e-17 	0.157283354884907 	0.00894499768510565 	1.92868428881023 	0.000851839010575516 	0
4 	2.80301296646003 	-9.71445146547012e-17 	0.157247157766196 	0.00891163768492207 	2.09389739981602 	0.00103076383350793 	0
4 	2.81515509249872 	-9.0205620750794e-17 	0.157213193189508 	0.00890093464062083 	2.27943465199503 	0.00123654483522853 	0
4 	2.82686813547237 	-8.32667268468867e-17 	0.157181310981885 	0.00891242273662029 	2.48778224378781 	0.00147221241705175 	0
4 	2.83816725848143 	-8.32667268468867e-17 	0.157151354808811 	0.00894543228004158 	2.72175261883462 	0.00174117025296957 	0
4 	2.84906708878691 	-8.32667268468867e-17 	0.157123165445075 	0.00899907336334741 	2.98453677191222 	0.00204724522068822 	0
4 	2.85958173674616 	-8.32667268468867e-17 	0.157096583817927 	0.00907222183476452 	3.27976785885692 	0.00239473000988003 	0
4 	2.86972481407933 	-8.32667268468867e-17 	0.157071454637175 	0.00916350687952376 	3.61159977801243 	0.0027884089072304 	0
4 	2.87950945149043 	-7.97972798949331e-17 	0.157047631957302 	0.00927130060734568 	3.98480682778404 	0.00323355537926031 	0
4 	2.88894831566566 	-7.63278329429795e-17 	0.157024977825319 	0.00939371246736197 	4.40491501431364 	0.00373589910192986 	0
4 	2.89805362567106 	-7.63278329429795e-17 	0.157003319471645 	0.00952859521442611 	4.87838342940814 	0.00430309017575611 	0
4 	2.90683716877067 	-7.97972798949331e-17 	0.156982442756711 	0.00967355019768022 	5.41298873628632 	0.00495287359112814 	0
4 	2.91531031568569 	-9.0205620750794e-17 	0.156962427379256 	0.00982579421113674 	6.01910764311342 	0.00571386025357202 	0
4 	2.92348403531448 	-9.71445146547012e-17 	0.156943135106444 	0.00998165411097113 	6.71138645744349 	0.00658916463547198 	0
4 	2.93136890893229 	-1.00613961606655e-16 	0.156924421305116 	0.0101358654209193 	7.50500696329449 	0.00760533468781646 	0
4 	2.93897514388925 	-1.07552855510562e-16 	0.15690648650626 	0.0102796620216925 	8.41163414126993 	0.00874717192851484 	0
4 	2.94631258682425 	-1.11022302462516e-16 	0.156889273377905 	0.0104021103675936 	9.44253949503853 	0.0100045837250853 	0
4 	2.95339073641193 	-1.11022302462516e-16 	0.156872610646652 	0.0104910091282561 	10.6122751501902 	0.0113753459718792 	0
4 	2.96021875565916 	-1.07552855510562e-16 	0.156856395328034 	0.0105330166926444 	11.9433833791135 	0.0128602562437065 	0
4 	2.96680548376697 	-1.00613961606655e-16 	0.156840621041852 	0.0105132620214013 	13.47003039729 	0.0144600106311073 	0
4 	2.97315944757337 	-1.00613961606655e-16 	0.15682535506012 	0.0104146566547479 	15.2394144553349 	0.0161724091113673 	0
4 	2.97928887259171 	-1.04083408558608e-16 	0.156810719958193 	0.0102168195583278 	17.3202177256116 	0.01798741669679 	0
4 	2.98520169365903 	-1.00613961606655e-16 	0.156796884067846 	0.00989438095329502 	19.8170809106672 	0.0198763849214259 	0
4 	2.99090556520807 	-1.00613961606655e-16 	0.156784051860287 	0.00941484395506155 	22.8906513790217 	0.0217682486884147 	0
4 	2.99640787117633 	-1.04083408558608e-16 	0.156772450489644 	0.00873639301484147 	26.7953541225531 	0.0234935946373073 	0
4 	3.00171573456492 	-1.00613961606655e-16 	0.15676230203086 	0.00780796625551861 	31.9584031028056 	0.0247170768811151 	0
4 	3.00683602665963 	-9.71445146547012e-17 	0.156753804685936 	0.00657451291797063 	39.1707250651259 	0.0247613124129759 	0
4 	3.01177537592613 	-9.71445146547012e-17 	0.156747214561826 	0.00499906390770642 	50.1171880419494 	0.0219999574569211 	0
4 	3.01654017659085 	-1.00613961606655e-16 	0.156742610828262 	0.00317798822607712 	69.1443099276669 	0.0149390681236687 	0
4 	3.02113659691864 	-1.04083408558608e-16 	0.156739693047229 	0.00151642632030797 	110.593221201718 	0.00634538237574869 	0
4 	3.02557058719784 	-1.04083408558608e-16 	0.156737895580802 	0.000486749742858197 	236.212365369193 	0.00140966701902008 	0
4 	3.02984788744324 	-1.07552855510562e-16 	0.156736631484426 	9.1070121827461e-05 	884.664480199542 	0.000144731639241106 	0
