4 	0.00391112967796256 	-1.38777878078145e-17 	-0.0365794659750671 	-1.61638485048167e-05 	-3.71266120736921e-32
4 	0.0118766651674913 	-1.38777878078145e-17 	-0.0985291029992838 	-0.000139518961160823 	5.62574198095636e-32
4 	0.020134001548576 	-6.93889390390723e-18 	-0.14258279087426 	-0.000419311229829307 	-5.59073088095215e-23
4 	0.0286938283423949 	0 	-0.165249012476378 	-0.000853499078126513 	-4.98795380530127e-22
4 	0.0375672266585908 	3.46944695195361e-18 	-0.172922863981024 	-0.00136786400543685 	2.68273463588026e-22
4 	0.046765683540303 	1.04083408558608e-17 	-0.173998942190048 	-0.00192893715670068 	1.78566448459032e-23
4 	0.0563011068347006 	6.93889390390723e-18 	-0.1725352242733 	-0.00253241542748887 	-2.00096407996947e-23
4 	0.0661858406082648 	0 	-0.169961382120361 	-0.0031739822064772 	8.27939678637032e-24
4 	0.0764326811267815 	0 	-0.166792703632733 	-0.00384917459915641 	1.21805930182426e-23
4 	0.0870548934207258 	0 	-0.163237919805943 	-0.00455558904045045 	6.65859253956225e-24
4 	0.0980662284574838 	0 	-0.159389020651257 	-0.00529232348714445 	6.37421143709369e-23
4 	0.109480940942647 	-3.46944695195361e-18 	-0.155286976172765 	-0.00605918441778697 	6.6517242415065e-24
4 	0.121313807773417 	-6.93889390390723e-18 	-0.150947618852895 	-0.00685632258294934 	-1.95623572651756e-23
4 	0.13358014716801 	-6.93889390390723e-18 	-0.146372997220964 	-0.00768409720463491 	-1.11716661703298e-22
4 	0.146295838495838 	-1.04083408558608e-17 	-0.141556780821098 	-0.00854301201811592 	-1.13105693613748e-23
4 	0.159477342834115 	-1.38777878078145e-17 	-0.136486982717733 	-0.00943367631946319 	7.90971464824969e-23
4 	0.173141724277517 	-1.38777878078145e-17 	-0.131147370499097 	-0.0103567797356565 	5.1049294368737e-25
4 	0.18730667202848 	-1.38777878078145e-17 	-0.1255181894335 	-0.0113130755118506 	-2.27879903681951e-23
4 	0.201990523296728 	-1.38777878078145e-17 	-0.119576500816485 	-0.0123033688140627 	-2.24491349373938e-23
4 	0.217212287037676 	-2.08166817117217e-17 	-0.113296290911371 	-0.0133285078819342 	-7.37005135038937e-24
4 	0.232991668560442 	-2.77555756156289e-17 	-0.106648433733659 	-0.0143893766992227 	6.42843248861814e-24
4 	0.249349095037321 	-2.77555756156289e-17 	-0.0996005538551902 	-0.015486888251469 	7.50490576613079e-23
4 	0.266305741947753 	-3.12250225675825e-17 	-0.0921168155496817 	-0.0166219776063679 	8.05892174731065e-23
4 	0.283883560490999 	-3.81639164714898e-17 	-0.0841576536368309 	-0.0177955940875798 	8.49076323831873e-18
4 	0.30210530600303 	-3.81639164714898e-17 	-0.0756794552404406 	-0.0190086917537758 	7.39563483826633e-17
4 	0.320994567414413 	-3.46944695195361e-17 	-0.0666341983045191 	-0.0202622172473856 	-6.49891473675168e-17
4 	0.34057579778732 	-3.12250225675825e-17 	-0.0569690510622037 	-0.021557093829527 	6.48959965812618e-17
4 	0.360874345971201 	-2.77555756156289e-17 	-0.0466259362128076 	-0.0228942000836712 	-7.34267279631723e-17
4 	0.38191648941809 	-2.77555756156289e-17 	-0.0355410641317504 	-0.0242743415021605 	-8.3835780266443e-18
4 	0.403729468200046 	-2.77555756156289e-17 	-0.0236444410410367 	-0.0256982129248615 	-1.22156231528362e-23
4 	0.426341520272734 	-3.12250225675825e-17 	-0.0108593609575308 	-0.027166347223697 	-1.32207551215052e-23
4 	0.449781918030829 	-3.46944695195361e-17 	0.00289811110898474 	-0.0286790364330597 	3.58264939894336e-25
4 	0.474081006202548 	-3.81639164714898e-17 	0.017719670731978 	-0.0302362186021119 	9.34852335227366e-23
4 	0.499270241132364 	-4.16333634234434e-17 	0.0337052236722725 	-0.0318373964384368 	3.36859253346897e-22
4 	0.525382231502763 	-4.16333634234434e-17 	0.0509631680948006 	-0.0334820123813617 	5.30708992855199e-23
4 	0.552450780547768 	-4.16333634234434e-17 	0.0696107716089099 	-0.0351693549428708 	5.63256465849759e-23
4 	0.58051092981285 	-4.16333634234434e-17 	0.0897959847012495 	-0.0368933947374943 	3.30034405085146e-22
4 	0.60959900451791 	-3.46944695195361e-17 	0.111848479491276 	-0.0386452206434032 	1.03721622558273e-17
4 	0.639752660582033 	-3.46944695195361e-17 	0.136417838774696 	-0.0404241054558963 	9.19616529779719e-17
4 	0.671010933370887 	-4.5102810375397e-17 	0.164124416866107 	-0.0422192678526676 	-9.92527596864006e-17
4 	0.703414288229901 	-5.20417042793042e-17 	0.195151078253282 	-0.0439994361309919 	-1.09862480536161e-17
4 	0.737004672868606 	-5.20417042793042e-17 	0.22935310272696 	-0.04573276874113 	-3.90534696015034e-22
4 	0.771825571663976 	-5.20417042793042e-17 	0.266459341533395 	-0.0473860971600339 	8.11202212353549e-22
4 	0.807922061953054 	-5.55111512312578e-17 	0.30619913445607 	-0.0489232800249452 	9.73674281251877e-22
4 	0.845340872387743 	-5.55111512312578e-17 	0.348325264876186 	-0.0503061547898932 	-2.62578546566177e-24
4 	0.884130443427309 	-5.55111512312578e-17 	0.3925669441387 	-0.0514963894868243 	-9.1783369923116e-22
4 	0.924340990046898 	-5.55111512312578e-17 	0.438566379844545 	-0.0524578711309328 	-1.53213363266855e-22
4 	0.966024566743242 	-5.89805981832114e-17 	0.485837550334403 	-0.0531593390932478 	-1.49074451398963e-22
4 	1.00923513492173 	-6.59194920871187e-17 	0.533762030731662 	-0.053576819666752 	-8.96531978049171e-22
4 	1.05402863275206 	-6.59194920871187e-17 	0.58161975987087 	-0.05369570975278 	-2.17287077014442e-22
4 	1.10046304758287 	-6.24500451351651e-17 	0.628646373784954 	-0.0535126735694954 	-7.05165713791051e-22
4 	1.14859849100923 	-6.59194920871187e-17 	0.674108937234272 	-0.0530373622217694 	-6.84786338344699e-23
4 	1.19849727668995 	-6.59194920871187e-17 	0.717390882140444 	-0.0522932487382694 	2.42408196538409e-22
4 	1.25022400101563 	-6.59194920871187e-17 	0.758070118393714 	-0.0513159725464376 	1.59016390456498e-21
4 	1.30384562673186 	-6.93889390390723e-17 	0.795965915547405 	-0.0501477456945608 	1.41243337545316e-21
4 	1.35943156962565 	-6.93889390390723e-17 	0.831133105951406 	-0.0488299795187675 	-6.69279011727198e-22
4 	1.41705378838762 	-7.63278329429795e-17 	0.86380996164456 	-0.0473916435819357 	3.07169771789969e-22
4 	1.47678687776592 	-7.63278329429795e-17 	0.894357864591398 	-0.0458111892306679 	1.1067541035515e-21
4 	1.53870816513278 	-7.28583859910259e-17 	0.923079494788679 	-0.0440935663697456 	9.4636049805342e-23
4 	1.60289781058851 	-7.63278329429795e-17 	0.950028575801234 	-0.0422454258471065 	0
4 	1.66943891073267 	-7.97972798949331e-17 	0.975152766685324 	-0.0403173806947594 	-1.59496350303651e-22
4 	1.73841760623657 	-7.63278329429795e-17 	0.998485820321784 	-0.0383338334014435 	-1.71742687779447e-21
4 	1.8099231933566 	-7.28583859910259e-17 	1.02016173806115 	-0.0362997316523328 	-1.58662955164832e-22
4 	1.88404823953249 	-7.28583859910259e-17 	1.0403434998149 	-0.0342089240900758 	0
4 	1.96088870322038 	-6.93889390390723e-17 	1.05866305935294 	-0.0321137360258213 	0
4 	2.02025965173185 	-6.93889390390723e-17 	1.07181965613592 	-0.0304574437374589 	0
4 	2.06006301192217 	-6.93889390390723e-17 	1.08050725075301 	-0.0292880688813604 	0
4 	2.09845978584128 	-6.93889390390723e-17 	1.08802265262819 	-0.0282143690664961 	0
4 	2.13549967996946 	-6.93889390390723e-17 	1.09486192762471 	-0.0271795231996671 	0
4 	2.17123064424048 	-6.93889390390723e-17 	1.10107982785834 	-0.0261821693685929 	0
4 	2.20569893411516 	-6.93889390390723e-17 	1.10672418585392 	-0.0252211218888005 	0
4 	2.23894917046123 	-6.59194920871187e-17 	1.11183696234016 	-0.0242952263862287 	0
4 	2.27102439731726 	-6.24500451351651e-17 	1.11645501098689 	-0.0234033382796463 	0
4 	2.30196613761522 	-6.24500451351651e-17 	1.12061066333737 	-0.0225443182021819 	0
4 	2.33181444693392 	-6.24500451351651e-17 	1.12433218401634 	-0.0217170276077555 	0
4 	2.3606079653529 	-6.59194920871187e-17 	1.12764413086346 	-0.020920327838267 	0
4 	2.38838396747391 	-7.63278329429795e-17 	1.13056764339983 	-0.0201530817154546 	0
4 	2.41517841067461 	-8.32667268468867e-17 	1.13312067503437 	-0.0194141562436623 	0
4 	2.44102598165722 	-7.97972798949331e-17 	1.13531817944725 	-0.0187024256588816 	0
4 	2.46596014135208 	-7.63278329429795e-17 	1.13717225857483 	-0.018016774407092 	0
4 	2.49001316823444 	-7.63278329429795e-17 	1.13869227782178 	-0.0173560998107858 	0
4 	2.51321620011054 	-7.97972798949331e-17 	1.13988495311789 	-0.0167193142985804 	0
4 	2.535599274427 	-8.32667268468867e-17 	1.14075441396372 	-0.0161053471470756 	0
4 	2.55719136715571 	-8.32667268468867e-17 	1.14130224651191 	-0.0155131457265752 	0
4 	2.57802043030465 	-7.63278329429795e-17 	1.1415275209049 	-0.0149416762638986 	0
4 	2.59811342810315 	-6.93889390390723e-17 	1.1414268074521 	-0.0143899241445421 	0
4 	2.61749637190832 	-7.28583859910259e-17 	1.14099418670002 	-0.0138568937786505 	0
4 	2.63619435387806 	-7.97972798949331e-17 	1.140221258924 	-0.0133416080548605 	0
4 	2.65423157945406 	-8.32667268468867e-17 	1.13909715891399 	-0.0128431074064872 	0
4 	2.67163139869691 	-8.32667268468867e-17 	1.13760858196243 	-0.012360448518767 	0
4 	2.68841633651388 	-8.32667268468867e-17 	1.13573982647274 	-0.0118927027168509 	0
4 	2.7046081218185 	-8.32667268468867e-17 	1.13347285736455 	-0.0114389540947762 	0
4 	2.72022771565972 	-8.32667268468867e-17 	1.13078739225633 	-0.0109982974782698 	0
4 	2.73529533835694 	-8.32667268468867e-17 	1.12766100915953 	-0.0105698363606632 	0
4 	2.74983049567625 	-8.67361737988404e-17 	1.12406927020845 	-0.0101526810116022 	0
4 	2.76385200408156 	-8.32667268468867e-17 	1.11998585112969 	-0.00974594703024355 	0
4 	2.77737801509343 	-8.67361737988404e-17 	1.11538266137986 	-0.00934875469260293 	0
4 	2.79042603878708 	-9.71445146547012e-17 	1.11022993605955 	-0.00896022951740501 	0
4 	2.80301296646003 	-9.71445146547012e-17 	1.10449627884894 	-0.00857950453402197 	0
4 	2.81515509249872 	-9.0205620750794e-17 	1.09814863613771 	-0.00820572476543182 	0
4 	2.82686813547237 	-8.32667268468867e-17 	1.09115218660115 	-0.00783805442446266 	0
4 	2.83816725848143 	-8.32667268468867e-17 	1.08347013737564 	-0.00747568727377932 	0
4 	2.84906708878691 	-8.32667268468867e-17 	1.07506342667754 	-0.00711786061586092 	0
4 	2.85958173674616 	-8.32667268468867e-17 	1.06589034166106 	-0.00676387346681113 	0
4 	2.86972481407933 	-8.32667268468867e-17 	1.05590606781935 	-0.00641310836766856 	0
4 	2.87950945149043 	-7.97972798949331e-17 	1.0450621904823 	-0.00606505179379284 	0
4 	2.88894831566566 	-7.63278329429795e-17 	1.03330616649436 	-0.0057193116454155 	0
4 	2.89805362567106 	-7.63278329429795e-17 	1.02058074049947 	-0.00537571380947761 	0
4 	2.90683716877067 	-7.97972798949331e-17 	1.00681892574028 	-0.00503438866540697 	0
4 	2.91531031568569 	-9.0205620750794e-17 	0.991910853228733 	-0.00469439869435829 	0
4 	2.92348403531448 	-9.71445146547012e-17 	0.975648544550438 	-0.00435411072528431 	0
4 	2.93136890893229 	-1.00613961606655e-16 	0.957806930713289 	-0.00401165991005725 	0
4 	2.93897514388925 	-1.07552855510562e-16 	0.93825077613862 	-0.00366818589052816 	0
4 	2.94631258682425 	-1.11022302462516e-16 	0.916888460287829 	-0.00332560968375887 	0
4 	2.95339073641193 	-1.11022302462516e-16 	0.893627913556527 	-0.00298638157784113 	0
4 	2.96021875565916 	-1.07552855510562e-16 	0.868351143180385 	-0.00265338278007379 	0
4 	2.96680548376697 	-1.00613961606655e-16 	0.840896078992382 	-0.00232967633135615 	0
4 	2.97315944757337 	-1.00613961606655e-16 	0.811037597759109 	-0.00201830881284944 	0
4 	2.97928887259171 	-1.04083408558608e-16 	0.778462929858642 	-0.00172219339508574 	0
4 	2.98520169365903 	-1.00613961606655e-16 	0.742737969928567 	-0.00144403444035462 	0
4 	2.99090556520807 	-1.00613961606655e-16 	0.70326072545078 	-0.00118627202243707 	0
4 	2.99640787117633 	-1.04083408558608e-16 	0.65919841582558 	-0.000951024049242013 	0
4 	3.00171573456492 	-1.00613961606655e-16 	0.609421100287463 	-0.000740150176177241 	0
4 	3.00683602665963 	-9.71445146547012e-17 	0.552406881690006 	-0.000555245180080051 	0
4 	3.01177537592613 	-9.71445146547012e-17 	0.486036547737844 	-0.000396149753554712 	0
4 	3.01654017659085 	-1.00613961606655e-16 	0.408126741811972 	-0.000262265519774139 	0
4 	3.02113659691864 	-1.04083408558608e-16 	0.319255917432025 	-0.000154308166791215 	0
4 	3.02557058719784 	-1.04083408558608e-16 	0.22501002319638 	-7.5520599086724e-05 	0
4 	3.02984788744324 	-1.07552855510562e-16 	0.131980814514185 	-2.64856967341838e-05 	0
