5 	0.00391112967796255 	1.38777878078145e-17 	0.19082806334758 	2.94047927801908e-05 	818.960268795023 	3.635001612369e-06 	3.58255768998224e-38
5 	0.0118766651674912 	1.38777878078145e-17 	0.190824560934596 	0.000305759527283765 	256.887671414849 	3.91584356779388e-05 	0
5 	0.020134001548576 	1.38777878078145e-17 	0.190815746860189 	0.00139983479379056 	62.7284848713404 	0.000125872082272718 	0
5 	0.0286938283423949 	1.73472347597681e-17 	0.190793930642012 	0.00354354954841842 	25.6860980795967 	0.000101892356932404 	0
5 	0.0375672266585907 	2.08166817117217e-17 	0.190749452576983 	0.00601059419940801 	13.9150200605493 	3.5560693937447e-05 	0
5 	0.046765683540303 	1.90819582357449e-17 	0.190678939004559 	0.00823129544193011 	9.13987284959434 	8.83885658935154e-05 	0
5 	0.0563011068347006 	2.08166817117217e-17 	0.190587036045741 	0.0101316446322185 	6.78687761024409 	0.000208410447594195 	0
5 	0.0661858406082648 	2.25514051876985e-17 	0.190480028646805 	0.0117897899038536 	5.43329695680788 	0.000344036842650227 	0
5 	0.0764326811267815 	2.25514051876985e-17 	0.190362124094155 	0.0132784322476656 	4.56572300545101 	0.000482854922702764 	0
5 	0.0870548934207257 	2.08166817117217e-17 	0.19023588324191 	0.014647310614637 	3.96703463915976 	0.000624162147371774 	0
5 	0.0980662284574839 	1.73472347597681e-17 	0.190103208437315 	0.0159297917269493 	3.53203945816044 	0.000769246792616842 	0
5 	0.109480940942647 	1.38777878078145e-17 	0.189965716722498 	0.0171489653620849 	3.2041132938034 	0.000919555003072056 	0
5 	0.121313807773416 	1.73472347597681e-17 	0.189824828217994 	0.0183214392413019 	2.95021603923924 	0.00107643740418979 	0
5 	0.13358014716801 	2.42861286636753e-17 	0.189681815123984 	0.0194596025272057 	2.74982328726791 	0.00124116738908646 	0
5 	0.146295838495838 	2.60208521396521e-17 	0.189537842672541 	0.0205729994403987 	2.5895388245319 	0.00141499056720538 	0
5 	0.159477342834115 	2.60208521396521e-17 	0.189393995030568 	0.02166918767849 	2.46026507723049 	0.00159916792361617 	0
5 	0.173141724277517 	2.60208521396521e-17 	0.189251289016946 	0.0227542902172522 	2.35562170383127 	0.00179500962507934 	0
5 	0.18730667202848 	2.42861286636753e-17 	0.189110680870732 	0.0238333578462325 	2.27101499066329 	0.00200390092302493 	0
5 	0.201990523296728 	2.25514051876985e-17 	0.188973069086759 	0.0249106101439018 	2.2030659109494 	0.00222732178295636 	0
5 	0.217212287037676 	2.25514051876985e-17 	0.188839294846421 	0.02598959499127 	2.14924530430096 	0.00246686131841235 	0
5 	0.232991668560441 	2.08166817117217e-17 	0.18871014103618 	0.0270732908895373 	2.10763351508715 	0.00272422741951772 	0
5 	0.249349095037321 	1.90819582357449e-17 	0.188586330608159 	0.0281641669553609 	2.07675739944287 	0.00300125134243668 	0
5 	0.266305741947753 	1.73472347597681e-17 	0.188468524897105 	0.0292642097033844 	2.05547683359291 	0.00329988648562043 	0
5 	0.283883560490998 	1.90819582357449e-17 	0.188357322465315 	0.0303749220688731 	2.04290366163377 	0.00362220007718979 	0
5 	0.302105306003029 	2.08166817117217e-17 	0.188253258811529 	0.031497297731312 	2.03834230627604 	0.00397035575176917 	0
5 	0.320994567414413 	2.25514051876985e-17 	0.18815680639243 	0.0326317739534614 	2.04124503186951 	0.00434658318614091 	0
5 	0.34057579778732 	2.42861286636753e-17 	0.188068377222117 	0.0337781754656501 	2.05117716202263 	0.00475313535295118 	0
5 	0.3608743459712 	2.42861286636753e-17 	0.187988329384114 	0.0349356404549367 	2.06778899416121 	0.00519222949540609 	0
5 	0.38191648941809 	2.77555756156289e-17 	0.187916967673321 	0.0361024944645093 	2.09079207849257 	0.00566596078559257 	0
5 	0.403729468200046 	2.77555756156289e-17 	0.187854561168901 	0.0372761032012182 	2.11993813155584 	0.00617618806294892 	0
5 	0.426341520272733 	2.42861286636753e-17 	0.187801392621038 	0.0384527052634256 	2.15499921599279 	0.00672438594569145 	0
5 	0.449781918030829 	2.25514051876985e-17 	0.187757700449013 	0.0396272268560583 	2.19574802496835 	0.0073115020722862 	0
5 	0.474081006202548 	1.73472347597681e-17 	0.187723044876541 	0.0407930726080542 	2.24193712497737 	0.00793787937151176 	0
5 	0.499270241132363 	1.21430643318376e-17 	0.187695935826033 	0.0419418889179831 	2.29327578587059 	0.00860360264110778 	0
5 	0.525382231502763 	8.67361737988404e-18 	0.1876812240156 	0.0430633359537695 	2.34940524772678 	0.00933457235312189 	0
5 	0.552450780547767 	6.93889390390723e-18 	0.187706458302537 	0.0441462685775501 	2.40997151628567 	0.0102325789078125 	0
5 	0.580510929812849 	8.67361737988404e-18 	0.187796091101365 	0.0451832713809511 	2.47482263699172 	0.0112171045126758 	0
5 	0.60959900451791 	1.04083408558608e-17 	0.18792386956019 	0.0461569205480758 	2.5425241505662 	0.0123102309415048 	0
5 	0.639752660582032 	8.67361737988404e-18 	0.188045190003959 	0.0470167821394732 	2.6088592771844 	0.0133569561080627 	0
5 	0.671010933370886 	6.93889390390723e-18 	0.188144382257075 	0.0476978413112151 	2.66813312901239 	0.0142306725947375 	0
5 	0.7034142882299 	8.67361737988404e-18 	0.188226272501155 	0.0481405203220387 	2.71487319707736 	0.0148825399844677 	0
5 	0.737004672868605 	1.04083408558608e-17 	0.188299469902256 	0.0482990171886175 	2.74482345752276 	0.0153080872293148 	0
5 	0.771825571663975 	1.04083408558608e-17 	0.188369172080951 	0.0481412785530304 	2.75525563562975 	0.0155112880975799 	0
5 	0.807922061953053 	8.67361737988404e-18 	0.188435993589188 	0.0476467607687583 	2.74485452474743 	0.0154852598889016 	0
5 	0.845340872387742 	5.20417042793042e-18 	0.188497207288331 	0.0468060619964498 	2.71334901365449 	0.0152130126998464 	0
5 	0.884130443427309 	3.46944695195361e-18 	0.188548557112788 	0.0456232690764316 	2.66109846499092 	0.0146800527188025 	0
5 	0.924340990046897 	5.20417042793042e-18 	0.188585664752655 	0.0441196357486085 	2.58885300158614 	0.0138883887353048 	0
5 	0.966024566743241 	6.93889390390723e-18 	0.188604731416659 	0.0423363429014678 	2.49775457014648 	0.0128648535628171 	0
5 	1.00923513492173 	5.20417042793042e-18 	0.188602697354853 	0.0403343940675234 	2.38950337030424 	0.0116613602817359 	0
5 	1.05402863275205 	3.46944695195361e-18 	0.18857716035427 	0.0381906964555955 	2.26657169672517 	0.0103481847378957 	0
5 	1.10046304758287 	3.46944695195361e-18 	0.188526289690107 	0.0359925026519151 	2.13279944027345 	0.00900374106888644 	0
5 	1.14859849100923 	0 	0.188448744028952 	0.033834306281196 	1.99492654422156 	0.00770602121547148 	0
5 	1.19849727668994 	-1.73472347597681e-18 	0.188343517251244 	0.0317937708624198 	1.85914871407898 	0.00652022385873547 	0
5 	1.25022400101563 	-1.73472347597681e-18 	0.188209747528258 	0.0299120091772089 	1.72792299944147 	0.00548761825636486 	0
5 	1.30384562673185 	-1.73472347597681e-18 	0.18804679253677 	0.0282026748446765 	1.60250095557888 	0.00462343949473947 	0
5 	1.35943156962565 	-1.73472347597681e-18 	0.187859885661872 	0.0266591726842072 	1.48390597980389 	0.00391946850260098 	0
5 	1.41705378838762 	-3.46944695195361e-18 	0.187667963494581 	0.0252598274000521 	1.37277790125865 	0.00334627272506904 	0
5 	1.47678687776592 	-1.73472347597681e-18 	0.187474153335193 	0.0239750323863639 	1.26930995075982 	0.00284627008996568 	0
5 	1.53870816513277 	-3.46944695195361e-18 	0.187261628058731 	0.0227779565180034 	1.17286434607978 	0.00241354134700627 	0
5 	1.60289781058851 	-6.93889390390723e-18 	0.187027241467012 	0.0216399068443871 	1.08141728893466 	0.00203615379011631 	0
5 	1.66943891073266 	-5.20417042793042e-18 	0.186773174193966 	0.0205354605273316 	0.994905883606419 	0.00171344238638802 	0
5 	1.73841760623657 	-6.93889390390723e-18 	0.186499486170689 	0.0194490680016156 	0.917128517558361 	0.00143986862682265 	0
5 	1.80992319335659 	-1.38777878078145e-17 	0.186205170841664 	0.0183669038866851 	0.850715642693945 	0.00120502527976863 	0
5 	1.88404823953248 	-1.56125112837913e-17 	0.185889347549404 	0.0172727946014799 	0.794604780027775 	0.000998439239584261 	0
5 	1.96088870322037 	-6.93889390390723e-18 	0.185563139395837 	0.0161886521345197 	0.748284374309723 	0.000818035191594171 	0
5 	2.02025965173184 	0 	0.185296713141645 	0.0153127648390187 	0.717665617584713 	0.000686913939052166 	0
5 	2.06006301192217 	-3.46944695195361e-18 	0.185103172064151 	0.0146877612875794 	0.698800666194671 	0.000599988629049647 	0
5 	2.09845978584128 	-6.93889390390723e-18 	0.184924346999529 	0.0141239417871971 	0.684026332703488 	0.000525682245131615 	0
5 	2.13549967996945 	-6.93889390390723e-18 	0.18474987644993 	0.0135852359483267 	0.671975405546088 	0.000457843079200374 	0
5 	2.17123064424048 	-6.93889390390723e-18 	0.184579756576034 	0.0130714615231366 	0.662540789345427 	0.000396011239439281 	0
5 	2.20569893411515 	-6.93889390390723e-18 	0.184414005353937 	0.0125823554590576 	0.655651800703854 	0.00033982112810927 	0
5 	2.23894917046122 	-6.93889390390723e-18 	0.184252656912119 	0.0121175628216318 	0.651267756324793 	0.00028896337230342 	0
5 	2.27102439731725 	-6.93889390390723e-18 	0.184095754072125 	0.0116766454691413 	0.649374600864687 	0.000243173769522388 	0
5 	2.30196613761521 	-6.93889390390723e-18 	0.183943350405439 	0.0112591009800602 	0.64998344075122 	0.000202230602950824 	0
5 	2.33181444693391 	-6.93889390390723e-18 	0.183795509806351 	0.010864385747194 	0.653130305520226 	0.000165954747983851 	0
5 	2.3606079653529 	-6.93889390390723e-18 	0.183652304111744 	0.01049193858041 	0.658876738495889 	0.000134211280647937 	0
5 	2.3883839674739 	-6.93889390390723e-18 	0.183513809955911 	0.0101412027405931 	0.667310989057353 	0.000106912013934968 	0
5 	2.41517841067461 	-8.67361737988404e-18 	0.183380105159803 	0.00981164531312029 	0.678549681695093 	8.40185548000806e-05 	0
5 	2.44102598165722 	-1.04083408558608e-17 	0.183251264848891 	0.00950277342048887 	0.692739898850567 	6.55456512264788e-05 	0
5 	2.46596014135207 	-1.21430643318376e-17 	0.183127357508054 	0.00921414710556071 	0.710061650925611 	5.15647077164689e-05 	0
4.99999999999999 	2.49001316823443 	-1.56125112837913e-17 	0.183008441153495 	0.00894538888225523 	0.730730727569895 	4.22073934675305e-05 	0
4.99999999999999 	2.51321620011054 	-1.90819582357449e-17 	0.182894559768894 	0.00869619001494499 	0.755001935609848 	3.76692815069096e-05 	0
4.99999999999999 	2.535599274427 	-1.90819582357449e-17 	0.182785740126735 	0.00846631359776813 	0.783172734886096 	3.8213460456288e-05 	0
4.99999999999999 	2.55719136715571 	-1.56125112837913e-17 	0.182681989093041 	0.00825559449408547 	0.815587286705403 	4.41740681782713e-05 	0
5 	2.57802043030465 	-1.38777878078145e-17 	0.182583291492823 	0.00806393618890851 	0.852640932729808 	5.59597204902166e-05 	0
4.99999999999999 	2.59811342810315 	-1.56125112837913e-17 	0.182489608593933 	0.00789130462089584 	0.894785126505685 	7.40568579206046e-05 	0
4.99999999999999 	2.61749637190832 	-1.73472347597681e-17 	0.182400877248081 	0.00773771910645255 	0.942532846434222 	9.90331141099897e-05 	0
4.99999999999999 	2.63619435387806 	-1.73472347597681e-17 	0.182317009708753 	0.00760324055005552 	0.996464527835337 	0.000131540918351545 	0
4.99999999999999 	2.65423157945406 	-1.38777878078145e-17 	0.182237894125896 	0.00748795724661752 	1.05723456154734 	0.000172321668344336 	0
5 	2.67163139869691 	-8.67361737988404e-18 	0.182163395696043 	0.00739196870782566 	1.12557841421912 	0.000222210920303676 	0
5 	2.68841633651388 	-5.20417042793042e-18 	0.182093358423907 	0.00731536805980849 	1.20232042638743 	0.000282145101457761 	0
5 	2.7046081218185 	-1.73472347597681e-18 	0.182027607428129 	0.00725822363328549 	1.28838233299221 	0.000353170205143621 	0
5 	2.72022771565972 	0 	0.181965951701269 	0.00722056037014963 	1.38479252262078 	0.000436452732794438 	0
5 	2.73529533835694 	-1.73472347597681e-18 	0.181908187214092 	0.00720234158473383 	1.4926960062131 	0.000533292767068016 	0
5 	2.74983049567625 	-3.46944695195361e-18 	0.181854100239072 	0.00720345144925303 	1.61336501144534 	0.000645138494134202 	0
5 	2.76385200408156 	-5.20417042793042e-18 	0.18180347076455 	0.00722367835766643 	1.7482100769115 	0.000773600782584844 	0
5 	2.77737801509343 	-6.93889390390723e-18 	0.181756075887951 	0.00726269912978358 	1.89879152948864 	0.000920465664167317 	0
5 	2.79042603878708 	-6.93889390390723e-18 	0.181711693068391 	0.00732006394278198 	2.06683134996307 	0.00108770189398379 	0
5 	2.80301296646003 	-5.20417042793042e-18 	0.181670102918984 	0.00739518202541832 	2.25422575536488 	0.00127746042552912 	0
5 	2.81515509249872 	-5.20417042793042e-18 	0.181631091167664 	0.00748730861291887 	2.46305947690492 	0.00149206303964287 	0
5 	2.82686813547237 	-5.20417042793042e-18 	0.181594452174802 	0.00759553448148472 	2.69562385327154 	0.00173397901894326 	0
5 	2.83816725848142 	-3.46944695195361e-18 	0.181560001620724 	0.00771878051065554 	2.95444266382991 	0.0020057910500673 	0
5 	2.84906708878691 	-3.46944695195361e-18 	0.181527579513956 	0.00785580101173965 	3.24231219552423 	0.00231016594767924 	0
5 	2.85958173674616 	-5.20417042793042e-18 	0.181496912144687 	0.00800520015132558 	3.56236497567339 	0.00265227356280778 	0
5 	2.86972481407933 	-6.93889390390723e-18 	0.181467432869651 	0.00816546667621813 	3.91838852020063 	0.00304816125234165 	0
5 	2.87950945149043 	-8.67361737988404e-18 	0.18143912094158 	0.00833503834079549 	4.31614021858647 	0.00350368222354735 	0
5 	2.88894831566566 	-6.93889390390723e-18 	0.181412284073465 	0.00851205017004574 	4.76281398683966 	0.00403068482082304 	0
5 	2.89805362567106 	-5.20417042793042e-18 	0.181386958790258 	0.00869257753273295 	5.26364826836052 	0.0046301104876344 	0
5 	2.90683716877067 	-8.67361737988404e-18 	0.181363199670778 	0.00887024178915291 	5.82085105545792 	0.0052894374327379 	0
5 	2.91531031568569 	-6.93889390390723e-18 	0.181340894560416 	0.00903740535245678 	6.43528047647417 	0.00599838431170757 	0
5 	2.92348403531448 	-3.46944695195361e-18 	0.181319831487014 	0.00918612122964205 	7.10825482948322 	0.00675096190178201 	0
5 	2.93136890893229 	-1.73472347597681e-18 	0.181299819786503 	0.00930853434085775 	7.84293532807914 	0.00754351341291228 	0
5 	2.93897514388925 	0 	0.181280731374205 	0.00939693593542585 	8.64548191747291 	0.00837354131858688 	0
5 	2.94631258682425 	0 	0.181262498065218 	0.00944362728974251 	9.52624450046297 	0.00923932203726474 	0
5 	2.95339073641193 	1.73472347597681e-18 	0.18124509832903 	0.00944065328631817 	10.5018761301975 	0.0101399492173859 	0
5 	2.96021875565915 	3.46944695195361e-18 	0.181228547651034 	0.00937939222871331 	11.5991334621005 	0.0110752065482126 	0
5 	2.96680548376697 	3.46944695195361e-18 	0.181212894940189 	0.009250133155811 	12.8521069353 	0.0120447875298982 	0
5 	2.97315944757337 	1.73472347597681e-18 	0.181198220999136 	0.00904150589942495 	14.3067487704775 	0.0130461811341557 	0
5 	2.97928887259171 	0 	0.181184635439024 	0.00873930537123326 	16.0324396466703 	0.0140695194596185 	0
5 	2.98520169365902 	1.73472347597681e-18 	0.181172269537926 	0.00832519856816365 	18.1329229654452 	0.0150875045016018 	0
5 	2.99090556520806 	1.73472347597681e-18 	0.181161259984893 	0.00777543241135123 	20.7662188374548 	0.0160351398398185 	0
5 	2.99640787117633 	1.73472347597681e-18 	0.181151727513203 	0.00706012822654373 	24.1845504158381 	0.0167757575148631 	0
5 	3.00171573456492 	5.20417042793042e-18 	0.181143785220757 	0.00614450075591348 	28.8202964342907 	0.0170411328597541 	0
5 	3.00683602665962 	3.46944695195361e-18 	0.18113756405725 	0.00499478566135397 	35.4924590998235 	0.0161563375650603 	0
5 	3.01177537592612 	0 	0.181133036894979 	0.00361951983512268 	45.975027903136 	0.0130862017956744 	0
5 	3.01654017659085 	0 	0.181129990879842 	0.00217616429839672 	64.9528776977025 	0.00791047417125301 	0
5 	3.02113659691864 	0 	0.181128090785855 	0.000995321803811657 	107.883368394441 	0.00301926052825943 	0
5 	3.02557058719784 	1.73472347597681e-18 	0.181126898335627 	0.00031701045876536 	240.657106430321 	0.000638701788680447 	0
5 	3.02984788744324 	3.46944695195361e-18 	0.181126057244024 	6.13611365063024e-05 	947.545625141395 	6.57322669160617e-05 	0
