1 	0.450548238569739 	1.21430643318376e-17 	-0.0606776258093673 	0.0560176306660535 	3.88402095350129e-18
1 	0.474905017120571 	1.56125112837913e-17 	-0.0558096770351892 	0.0561139953112603 	6.47859291245775e-18
1 	0.500152069756373 	1.90819582357449e-17 	-0.0505506015121823 	0.0559895033133318 	1.02394983052373e-20
1 	0.526321845126658 	2.42861286636753e-17 	-0.0448893041555445 	0.0556282704498043 	1.2094461723268e-20
1 	0.553148830051144 	3.12250225675825e-17 	-0.0388652997540371 	0.0550152021105315 	-7.38047440908252e-21
1 	0.566959498550183 	3.81639164714898e-17 	-0.0357121573575858 	0.0546358876539046 	-2.33581176352215e-20
1 	0.581773204360427 	4.16333634234434e-17 	-0.0322298391062596 	0.0541045186220401 	-1.26205961016879e-20
1 	0.611316502061974 	4.5102810375397e-17 	-0.0250623652860194 	0.0528735825445411 	-3.64506069787878e-21
1 	0.641923494146371 	4.85722573273506e-17 	-0.0170292206689768 	0.0512304195573481 	2.23881106575579e-20
1 	0.673631592424144 	4.85722573273506e-17 	-0.00773483188156409 	0.0490801736381753 	-6.59698847461684e-21
1 	0.706479441735956 	4.5102810375397e-17 	0.00339565549120638 	0.0463172219875409 	1.63051959685525e-20
1 	0.74050695203923 	4.33680868994202e-17 	0.0172234905783037 	0.0428265034916092 	3.36589440185749e-20
1 	0.775755330305681 	4.68375338513738e-17 	0.0356566217164743 	0.0383633157406781 	5.9073536429063e-20
1 	0.812267112064656 	4.85722573273506e-17 	0.0603796261910419 	0.0329064601214444 	-5.52027773802899e-21
1 	0.850086192400648 	4.85722573273506e-17 	0.0932162292522813 	0.0265127875364766 	-2.15979332746541e-20
1 	0.889257856182785 	4.85722573273506e-17 	0.136182818217153 	0.0194304130001742 	-6.08289253811376e-21
1 	0.917050348041763 	4.77048955893622e-17 	0.172055635203128 	0.0144672750202118 	8.29356649986005e-21
1 	0.937833562429591 	3.72965547335014e-17 	0.202018999412691 	0.0110034587831415 	9.25324998308343e-21
1 	0.97235427295734 	2.77555756156289e-17 	0.255949901003449 	0.00601284824103408 	4.34443513373881e-21
1 	1.0163046731771 	3.12250225675825e-17 	0.331075135025586 	0.00158959493973517 	9.74409286155933e-22
1 	1.06177878334983 	3.12250225675825e-17 	0.410398085747887 	-0.000223054002165015 	1.32741930019079e-20
1 	1.10882507827211 	2.94902990916057e-17 	0.484801898468094 	0.00011873505770817 	-2.46383235983387e-20
1 	1.15749314440718 	3.12250225675825e-17 	0.545869833100408 	0.00121662166070753 	3.32558779459087e-21
1 	1.20783365548434 	3.29597460435593e-17 	0.594141642697452 	0.001964143078022 	-1.17757975860743e-21
1 	1.24358786057679 	3.72965547335014e-17 	0.622234107260716 	0.00217316823718964 	2.8689910550794e-21
1 	1.27016665244262 	3.38271077815477e-17 	0.640186388384498 	0.00215085725983646 	9.7244811154935e-22
1 	1.31411797405833 	2.42861286636753e-17 	0.666927752692778 	0.00192301743064425 	-8.31171867530531e-21
1 	1.37008664691445 	2.08166817117217e-17 	0.696918022243871 	0.00141280414963396 	-6.37357857591624e-21
1 	1.42788945209267 	1.90819582357449e-17 	0.724971987791737 	0.000882353258279844 	2.371529153084e-20
1 	1.4875758746618 	1.56125112837913e-17 	0.751802687123939 	0.000509932370302399 	4.64100223055604e-21
1 	1.53871232476967 	1.73472347597681e-17 	0.773321830752141 	0.000331308257227634 	-1.58027043435263e-21
1 	1.57004495971547 	2.08166817117217e-17 	0.785940142750285 	0.000268932391406609 	-2.29384318290821e-21
1 	1.61294564441688 	2.42861286636753e-17 	0.802297713262478 	0.000239913623257631 	2.32203910125176e-21
1 	1.67871201092623 	2.90566182226115e-17 	0.825853500843449 	0.000275073228168047 	-5.64854848328488e-22
1 	1.74649681681379 	3.59955121265187e-17 	0.847933903804609 	0.000376156145141925 	-1.33520762727821e-20
1 	1.81581252345703 	4.16333634234434e-17 	0.868432469052914 	0.000489644515337084 	-1.22965884839866e-20
1 	1.85125817390292 	4.5102810375397e-17 	0.878431844160273 	0.000546710323984806 	-4.51348268909174e-21
1 	1.88831529809546 	4.85722573273506e-17 	0.888124470440849 	0.000595206098887689 	-5.48356568667681e-21
1 	1.96241993135723 	5.09575021068187e-17 	0.906636133851755 	0.000668436499092313 	5.81429686459161e-23
1 	2.04004996790234 	4.98732999343332e-17 	0.924274030369912 	0.00072187979561047 	-6.06446323327873e-24
1 	2.11873460271874 	4.98732999343332e-17 	0.940559004070511 	0.000761256155442745 	0
1 	2.19463865000285 	5.33427468862868e-17 	0.955002913275128 	0.000751871586465259 	0
1 	2.26786037121375 	5.33427468862868e-17 	0.967867181414463 	0.000733019131557698 	0
1 	2.33849455540975 	5.33427468862868e-17 	0.979364903022432 	0.000700992129626947 	0
1 	2.40663264195737 	5.33427468862868e-17 	0.98966599515236 	0.000665160416418471 	0
1 	2.47236283890404 	5.33427468862868e-17 	0.998909168937462 	0.00062726507857412 	0
1 	2.5357702371677 	5.33427468862868e-17 	1.00721035006523 	0.000589789918488004 	0
1 	2.59693692069108 	5.68121938382404e-17 	1.01466815244411 	0.000553591113333906 	0
1 	2.65594207270334 	6.37510877421477e-17 	1.02136722946866 	0.000519190220499412 	0
1 	2.71286207822659 	6.72205346941013e-17 	1.02738055433248 	0.000486744746973197 	0
1 	2.76777062296 	6.72205346941013e-17 	1.03277112588055 	0.000456291376458563 	0
1 	2.8207387886695 	6.37510877421477e-17 	1.03759326010658 	0.000427788149690093 	0
1 	2.87183514520655 	6.0281640790194e-17 	1.04189363607897 	0.000401158361947446 	0
1 	2.92112583927514 	6.0281640790194e-17 	1.04571217308352 	0.000376305616753343 	0
1 	2.9686746800619 	6.0281640790194e-17 	1.049082770354 	0.000353123566605616 	0
