9.99999999996702e-07 	1.00078222593559 	6.93889390390723e-18 	0.0339268345715583 	0.000117921378078824 	-5.16470068821947e-24
9.99999999996702e-07 	1.0023753330335 	1.04083408558608e-17 	0.109078941600971 	0.000656844662436755 	-4.7446827832718e-24
9.99999999996702e-07 	1.00402680030972 	6.93889390390723e-18 	0.198755051207984 	0.00194848210266919 	5.01599476639935e-24
9.99999999996702e-07 	1.00573876566848 	0 	0.300794034814802 	0.00417841342459494 	2.64931016642587e-24
9.99999999996702e-07 	1.00751344533172 	3.46944695195361e-18 	0.408622011216848 	0.0073005600437337 	-1.01692619170527e-23
9.99999999996702e-07 	1.00935313670806 	0 	0.51216494018406 	0.0110399767639211 	-9.00437109787262e-24
9.99999999996702e-07 	1.01126022136694 	-1.04083408558608e-17 	0.602028093369958 	0.015005199646692 	5.69891929256229e-24
9.99999999996702e-07 	1.01323716812165 	-1.38777878078145e-17 	0.673747483450271 	0.0188664843834656 	6.48120336272254e-24
9.99999999996702e-07 	1.01528653622536 	-1.38777878078145e-17 	0.728107444928183 	0.0224439726549989 	-2.75752462607939e-24
9.99999999996702e-07 	1.01741097868415 	-1.38777878078145e-17 	0.768564290271417 	0.0256784471450729 	-5.51493705230973e-24
9.99999999996702e-07 	1.0196132456915 	-1.73472347597681e-17 	0.798896092414453 	0.0285757551496536 	-2.75741241909777e-24
9.99999999996702e-07 	1.02189618818853 	-1.73472347597681e-17 	0.82217182529324 	0.0311699757310856 	0
9.99999999996702e-07 	1.02426276155468 	-1.38777878078145e-17 	0.840595885536099 	0.0335031347225786 	0
9.99999999996702e-07 	1.0267160294336 	-2.08166817117217e-17 	0.855672815237485 	0.0356153899122713 	-1.43439236307594e-24
9.99999999996702e-07 	1.02925916769917 	-2.42861286636753e-17 	0.868414522446801 	0.0375414608368651 	-2.86871660991446e-24
9.99999999996702e-07 	1.03189546856683 	-2.42861286636753e-17 	0.879504438545863 	0.0393100884241449 	-5.61306808568103e-25
9.99999999996702e-07 	1.03462834485551 	-2.77555756156289e-17 	0.889410467832582 	0.0409446200253547 	1.07158478299874e-24
9.99999999996702e-07 	1.0374613344057 	-2.77555756156289e-17 	0.89845874430347 	0.0424638455257829 	-4.7580366234492e-25
9.99999999996702e-07 	1.04039810465935 	-2.77555756156289e-17 	0.906881048917797 	0.0438827681137255 	-5.98328371441172e-26
9.99999999996702e-07 	1.04344245740754 	-2.08166817117217e-17 	0.91484534046509 	0.0452132416217381 	1.57177923355311e-24
9.99999999996702e-07 	1.04659833371208 	-1.73472347597681e-17 	0.922475605720272 	0.0464644976299206 	1.29971479325953e-24
9.99999999996702e-07 	1.04986981900746 	-1.73472347597681e-17 	0.929864940864514 	0.0476436071010978 	3.42479030851783e-25
9.99999999996702e-07 	1.05326114838955 	-1.38777878078145e-17 	0.937084301620689 	0.0487559042418044 	0
9.99999999996702e-07 	1.0567767120982 	-1.04083408558608e-17 	0.94418843440213 	0.0498053694911559 	0
9.99999999996702e-07 	1.06042106120061 	-1.04083408558608e-17 	0.951219963812526 	0.0507949636786333 	-3.14663216688666e-25
9.99999999996703e-07 	1.06419891348289 	-1.04083408558608e-17 	0.95821230875449 	0.0517269091578491 	1.02200845131667e-24
9.99999999996703e-07 	1.06811515955747 	-6.93889390390723e-18 	0.96519185061202 	0.0526029056597563 	2.98835044418077e-24
9.99999999996703e-07 	1.07217486919424 	-6.93889390390723e-18 	0.972179587698089 	0.0534242724574229 	3.77223226403035e-25
9.99999999996703e-07 	1.07638329788362 	-6.93889390390723e-18 	0.979192415516125 	0.0541920175097798 	-2.54837331530303e-24
9.99999999996703e-07 	1.08074589364001 	-1.04083408558608e-17 	0.986244120307366 	0.0549068404203651 	-2.16344421725345e-24
9.99999999996702e-07 	1.08526830405455 	-1.04083408558608e-17 	0.993346142450643 	0.0555690850562141 	-1.77904127896337e-24
9.99999999996703e-07 	1.08995638360617 	-1.04083408558608e-17 	1.00050815450506 	0.0561786655706045 	-1.62909067350279e-24
9.99999999996703e-07 	1.09481620124051 	-1.38777878078145e-17 	1.00773850070831 	0.0567349936388269 	-1.48031613929937e-24
9.99999999996703e-07 	1.09985404822647 	-1.38777878078145e-17 	1.01504455085778 	0.0572369317653716 	-3.35130260450094e-24
9.99999999996703e-07 	1.10507644630056 	-1.38777878078145e-17 	1.02243301919603 	0.0576827876440932 	-5.22330121141852e-24
9.99999999996703e-07 	1.11049015610956 	-6.93889390390723e-18 	1.02991028355641 	0.0580703524308372 	4.35241478340658e-25
9.99999999996703e-07 	1.11610218596257 	3.46944695195361e-18 	1.03748271507647 	0.0583969770609795 	6.09331124480002e-24
9.99999999996703e-07 	1.12191980090358 	0 	1.04515700089774 	0.0586596783237895 	3.04652573710544e-24
9.99999999996703e-07 	1.1279505321164 	-1.04083408558608e-17 	1.05294042109681 	0.0588552694179155 	4.52779770134663e-19
9.99999999996703e-07 	1.13420218667417 	-1.38777878078145e-17 	1.06084103502237 	0.0589805137051599 	2.95057579776551e-19
9.99999999996703e-07 	1.14068285764598 	-6.93889390390723e-18 	1.0688677460639 	0.0590322990407631 	-7.33027327351911e-19
9.99999999996703e-07 	1.14740093457373 	0 	1.07703024276556 	0.0590078182402371 	-5.98725476633213e-19
9.99999999996703e-07 	1.1543651143328 	0 	1.08533883385038 	0.0589047269412323 	8.64413561023187e-25
9.99999999996703e-07 	1.16158441239061 	3.46944695195361e-18 	1.09380420114895 	0.0587212640970802 	8.49375067226222e-24
9.99999999996703e-07 	1.16906817447755 	6.93889390390723e-18 	1.10243710926207 	0.0584563537697824 	-1.14212559746356e-23
9.99999999996703e-07 	1.17682608868546 	1.38777878078145e-17 	1.11124810797313 	0.0581096988751101 	-1.04434739331292e-23
9.99999999996703e-07 	1.18486819800938 	2.08166817117217e-17 	1.12024722868184 	0.0576818478246112 	0
9.99999999996703e-07 	1.19320491334865 	2.08166817117217e-17 	1.12944365753026 	0.057174218082916 	0
9.99999999996703e-07 	1.20184702698435 	1.73472347597681e-17 	1.13884537626496 	0.0565890750925766 	-1.41664085232749e-23
9.99999999996703e-07 	1.21080572655041 	1.04083408558608e-17 	1.14845877209162 	0.0559294728176399 	-5.70299997703551e-23
9.99999999996703e-07 	1.22009260951658 	1.38777878078145e-17 	1.15828822362176 	0.0551991660624684 	-7.15650896686014e-23
9.99999999996703e-07 	1.22971969820185 	1.73472347597681e-17 	1.16833567372501 	0.0544025028943285 	1.80677980626483e-24
9.99999999996703e-07 	1.23969945533799 	1.38777878078145e-17 	1.17860020334409 	0.0535443016910591 	2.56106576301573e-23
9.99999999996703e-07 	1.25004480020312 	1.38777878078145e-17 	1.18907762442446 	0.0526297139632455 	-4.03054730096387e-23
9.99999999996703e-07 	1.26076912534637 	1.04083408558608e-17 	1.19976011498943 	0.0516640733006989 	-3.54005622886645e-23
9.99999999996703e-07 	1.27188631392513 	6.93889390390723e-18 	1.2106359221454 	0.0506527344011879 	3.65811300452853e-24
9.99999999996704e-07 	1.28341075767752 	1.04083408558608e-17 	1.22168915400935 	0.0496009144840565 	-3.59212421521328e-23
9.99999999996704e-07 	1.29535737555319 	1.04083408558608e-17 	1.2328996668584 	0.0485135559552752 	-8.27791114050576e-23
9.99999999996704e-07 	1.30774163302655 	6.93889390390723e-18 	1.2442430417833 	0.0473952136472593 	-4.32162985597855e-23
9.99999999996704e-07 	1.3205795621177 	6.93889390390723e-18 	1.25569065666808 	0.0462499337694654 	-4.93406444674698e-23
9.99999999996704e-07 	1.33388778214653 	6.93889390390723e-18 	1.2672098851617 	0.0450810661300011 	-9.86768151060252e-23
9.99999999996704e-07 	1.34768352124731 	1.04083408558608e-17 	1.27876444739368 	0.0438910264447515 	-4.12916320861526e-23
9.99999999996704e-07 	1.36198463867132 	6.93889390390723e-18 	1.29031490916808 	0.0426812466402268 	1.26967702555217e-22
9.99999999996704e-07 	1.3768096479065 	-3.46944695195361e-18 	1.30181951148104 	0.0414523937662089 	2.29884952301675e-22
9.99999999996704e-07 	1.39217774064408 	-3.46944695195361e-18 	1.31395688782898 	0.0401212935101563 	1.10916222798861e-22
9.99999999996704e-07 	1.41220272459525 	0 	1.32785392408473 	0.0385376107900682 	0
9.99999999996704e-07 	1.43617694926587 	3.46944695195361e-18 	1.34279544773968 	0.0367506853990218 	0
9.99999999996704e-07 	1.45930396367274 	1.04083408558608e-17 	1.35689572399317 	0.0349668344758352 	0
9.99999999996704e-07 	1.48161370685419 	1.38777878078145e-17 	1.36950950771032 	0.0332719530853089 	0
9.99999999996704e-07 	1.50313505985141 	1.04083408558608e-17 	1.38082273567798 	0.0316603122761121 	0
9.99999999996704e-07 	1.52389588309638 	6.93889390390723e-18 	1.3909977176499 	0.0301297621987683 	0
9.99999999996704e-07 	1.54392305247857 	6.93889390390723e-18 	1.4001716261711 	0.0286792975657915 	0
9.99999999996704e-07 	1.56324249413704 	3.46944695195361e-18 	1.40845810151931 	0.0273076647873893 	0
9.99999999996704e-07 	1.58187921802306 	0 	1.41595033689472 	0.0260129213816004 	0
9.99999999996704e-07 	1.59985735027679 	0 	1.42272451775438 	0.0247923436016605 	0
9.99999999996704e-07 	1.61720016445966 	0 	1.42884300864138 	0.0236425285300696 	0
9.99999999996704e-07 	1.63393011168312 	0 	1.43435703372157 	0.0225595870886285 	0
9.99999999996704e-07 	1.65006884967273 	0 	1.43930879890055 	0.0215393527108116 	0
9.99999999996704e-07 	1.66563727080512 	0 	1.44373310264458 	0.0205775657362673 	0
9.99999999996704e-07 	1.68065552915415 	0 	1.44765851971893 	0.0196700180500981 	0
9.99999999996704e-07 	1.69514306658136 	0 	1.4511082460611 	0.0188126560599352 	0
9.99999999996704e-07 	1.70911863790442 	-3.46944695195361e-18 	1.45410068224654 	0.0180016467194307 	0
9.99999999996704e-07 	1.7226003351761 	-6.93889390390723e-18 	1.45664981767422 	0.0172334137997006 	0
9.99999999996704e-07 	1.73560561110536 	-6.93889390390723e-18 	1.45876546269762 	0.0165046518389163 	0
9.99999999996704e-07 	1.74815130165068 	-6.93889390390723e-18 	1.46045336351655 	0.0158123243507434 	0
9.99999999996704e-07 	1.76025364781502 	-6.93889390390723e-18 	1.46171522530983 	0.01515365163823 	0
9.99999999996704e-07 	1.77192831667064 	-6.93889390390723e-18 	1.46254866277264 	0.014526092306585 	0
9.99999999996704e-07 	1.78319042164083 	-6.93889390390723e-18 	1.46294709367202 	0.0139273214638608 	0
9.99999999996704e-07 	1.79405454206499 	-6.93889390390723e-18 	1.4628995900008 	0.0133552077005502 	0
9.99999999996704e-07 	1.80453474207227 	-6.93889390390723e-18 	1.46239070260335 	0.0128077902487727 	0
9.99999999996705e-07 	1.81464458878828 	-6.93889390390723e-18 	1.46140027860604 	0.0122832572150172 	0
9.99999999996705e-07 	1.8243971698984 	-6.93889390390723e-18 	1.45990329637117 	0.0117799254246369 	0
9.99999999996705e-07 	1.83380511059041 	-6.93889390390723e-18 	1.45786974952401 	0.0112962221784549 	0
9.99999999996705e-07 	1.84288058989839 	-6.93889390390723e-18 	1.45526461893065 	0.0108306690719463 	0
9.99999999996704e-07 	1.85163535646909 	-6.93889390390723e-18 	1.45204797768515 	0.0103818679395698 	0
9.99999999996704e-07 	1.86008074377113 	-6.93889390390723e-18 	1.44817527669882 	0.00994848893899711 	0
9.99999999996704e-07 	1.8682276847667 	-6.93889390390723e-18 	1.44359785410161 	0.0095292607644576 	0
9.99999999996704e-07 	1.8760867260648 	-6.93889390390723e-18 	1.43826369684034 	0.00912296296236823 	0
9.99999999996704e-07 	1.88366804157438 	-6.93889390390723e-18 	1.43211845491267 	0.00872842030990122 	0
9.99999999996704e-07 	1.8909814456749 	-1.04083408558608e-17 	1.42510666736886 	0.00834449921087747 	0
9.99999999996704e-07 	1.89803640592158 	-1.04083408558608e-17 	1.41717310832264 	0.00797010607341536 	0
9.99999999996704e-07 	1.90484205530155 	-3.46944695195361e-18 	1.40826410915047 	0.00760418767014942 	0
9.99999999996704e-07 	1.91140720405698 	3.46944695195361e-18 	1.39832867154875 	0.00724573356657036 	0
9.99999999996704e-07 	1.91774035109035 	6.93889390390723e-18 	1.38731916660489 	0.00689378094490962 	0
9.99999999996704e-07 	1.9238496949667 	1.04083408558608e-17 	1.37519142385339 	0.00654742254906459 	0
9.99999999996704e-07 	1.92974314452705 	1.38777878078145e-17 	1.36190404886511 	0.00620581730310031 	0
9.99999999996704e-07 	1.9354283291268 	1.73472347597681e-17 	1.34741685643355 	0.00586819861861197 	0
9.99999999996704e-07 	1.9409126085123 	2.08166817117217e-17 	1.33168835142438 	0.0055338832431863 	0
9.99999999996704e-07 	1.94620308234835 	2.08166817117217e-17 	1.31467221194089 	0.00520243638553885 	0
9.99999999996704e-07 	1.95130659940914 	1.73472347597681e-17 	1.2963020051565 	0.00487342871795493 	0
9.99999999996704e-07 	1.95622976644424 	1.04083408558608e-17 	1.27645669915893 	0.0045458011537082 	0
9.99999999996704e-07 	1.96097895673142 	6.93889390390723e-18 	1.25496001563251 	0.00421793561021715 	0
9.99999999996704e-07 	1.96556031832711 	3.46944695195361e-18 	1.23164455071363 	0.00388860575180634 	0
9.99999999996704e-07 	1.96997978202541 	0 	1.20638293260196 	0.00355773370740752 	0
9.99999999996704e-07 	1.97424306903575 	0 	1.17903411968226 	0.0032260130711027 	0
9.99999999996704e-07 	1.9783556983893 	3.46944695195361e-18 	1.14937785441221 	0.00289453687491587 	0
9.99999999996704e-07 	1.98232299408358 	1.04083408558608e-17 	1.11707362394165 	0.00256498409365846 	0
9.99999999996704e-07 	1.98615009197469 	1.04083408558608e-17 	1.08162790283794 	0.00223973319435071 	0
9.99999999996704e-07 	1.98984194642589 	1.04083408558608e-17 	1.04235947208497 	0.0019219188534894 	0
9.99999999996704e-07 	1.99340333672126 	1.38777878078145e-17 	0.998359451507328 	0.00161542458782945 	0
9.99999999996705e-07 	1.99683887325273 	1.38777878078145e-17 	0.948451021666832 	0.00132480570342237 	0
9.99999999996705e-07 	2.00015300348844 	1.73472347597681e-17 	0.891158880993199 	0.00105515766688997 	0
9.99999999996705e-07 	2.00335001773022 	2.08166817117217e-17 	0.824672964421101 	0.000811437291133174 	0
9.99999999996705e-07 	2.00643405466757 	1.73472347597681e-17 	0.746790739271208 	0.000597414889980914 	0
9.99999999996705e-07 	2.00940910673542 	1.38777878078145e-17 	0.655350099183923 	0.000415316595359233 	0
9.99999999996705e-07 	2.01227902528252 	1.73472347597681e-17 	0.549919271893297 	0.000266782743012247 	0
9.99999999996705e-07 	2.01504752555717 	2.08166817117217e-17 	0.433394393171301 	0.000153294328037939 	0
9.99999999996705e-07 	2.01771819151684 	2.08166817117217e-17 	0.310864999533834 	7.44597009471239e-05 	0
9.99999999996705e-07 	2.02029448046774 	2.42861286636753e-17 	0.186629313320211 	2.70436302354288e-05 	0
9.99999999996705e-07 	2.02277972754047 	2.67848758580755e-17 	0.0622402344117986 	5.31329245663624e-06 	0
