/*--------------------------------*- C++ -*----------------------------------*\
  =========                 |
  \\      /  F ield         | OpenFOAM: The Open Source CFD Toolbox
   \\    /   O peration     | Website:  https://openfoam.org
    \\  /    A nd           | Version:  7
     \\/     M anipulation  |
\*---------------------------------------------------------------------------*/
FoamFile
{
    version     2.0;
    format      ascii;
    class       volScalarField;
    location    "0";
    object      k_LES;
}
// * * * * * * * * * * * * * * * * * * * * * * * * * * * * * * * * * * * * * //

dimensions      [0 2 -2 0 0 0 0];

internalField   nonuniform List<scalar>
15600
(
0.00868647
0.00932765
0.00916959
0.00595201
0.00087545
0.00062190
0.00244983
0.00139947
0.00218564
0.00269669
0.00474087
0.00233623
0.00437645
0.00569626
0.00481589
0.00542530
0.00308456
0.00406126
0.00227795
0.00357935
0.00176163
0.00261264
0.00091761
0.00251118
0.00225643
0.00249040
0.00360162
0.00347327
0.00240516
0.00150091
0.00406572
0.00332098
0.00211649
0.00254200
0.00317037
0.00461300
0.00527660
0.00373151
0.00511490
0.00546496
0.00589757
0.00898173
0.01163470
0.00815287
0.00561215
0.00548333
0.00558287
0.00576152
0.00585324
0.00593092
0.00601292
0.00613812
0.00609248
0.00606364
0.00604173
0.00586783
0.00581900
0.00568455
0.00558144
0.00538410
0.00519931
0.00509305
0.00500325
0.00478422
0.00467401
0.00451987
0.00436886
0.00430354
0.00410976
0.00392240
0.00382411
0.00372325
0.00358122
0.00345851
0.00336537
0.00348351
0.00528003
0.00521359
0.00411807
0.00261300
0.00275045
0.00254427
0.00081958
0.00181586
0.00210663
0.00058178
0.00088916
0.00028575
0.00038590
0.00002066
-0.00065178
0.00072859
-0.00005096
-0.00069430
-0.00002254
0.00059159
-0.00060615
-0.00059080
-0.00016622
-0.00066463
0.00005795
-0.00018232
-0.00000823
-0.00049225
0.00061197
-0.00074493
-0.00034248
-0.00081835
-0.00063079
0.00133439
-0.00156607
-0.00008296
-0.00198956
0.00026739
0.00094504
-0.00034602
0.00284177
0.00572797
0.00704188
0.00793545
0.01281143
0.01337348
0.01319392
0.00940260
0.00339778
0.00237344
0.00391108
0.00259430
0.00423530
0.00541632
0.00847149
0.00685410
0.00680630
0.00929102
0.00926504
0.01109013
0.00745836
0.00974779
0.00737193
0.00946496
0.00723253
0.00846798
0.00568645
0.00854801
0.00806096
0.00829853
0.00809770
0.01061174
0.00870612
0.00736115
0.00981149
0.00978085
0.00903295
0.01048387
0.01035462
0.01395497
0.01465334
0.01271102
0.01501417
0.01572996
0.01673260
0.01927010
0.02178899
0.01978455
0.01759003
0.01803174
0.01858418
0.01899863
0.01933397
0.01969458
0.02014416
0.02039990
0.02050180
0.02047203
0.02037532
0.01995538
0.01972448
0.01956511
0.01912998
0.01872654
0.01824371
0.01787796
0.01764065
0.01716975
0.01672238
0.01620811
0.01575524
0.01539496
0.01493373
0.01443869
0.01404874
0.01370092
0.01338941
0.01297186
0.01243156
0.01234677
0.01482245
0.01669978
0.01507795
0.01367551
0.01137756
0.01079522
0.00952977
0.01084438
0.01021318
0.00695083
0.00837180
0.00648559
0.00716863
0.00389584
0.00192576
0.00686774
0.00301686
0.00108440
0.00433173
0.00470455
0.00091389
0.00057427
0.00109846
0.00084942
0.00131129
0.00069242
0.00173401
0.00036710
0.00405033
0.00077693
0.00068609
-0.00089460
0.00057143
0.00236512
-0.00040233
0.00045629
-0.00030932
0.00222674
0.00338762
0.00271789
0.00497233
0.00879586
0.01061382
0.01170395
0.01807336
0.01881608
0.01839178
0.01366682
0.00691691
0.00490262
0.00593853
0.00443960
0.00674861
0.00890430
0.01304332
0.01311991
0.01082900
0.01526497
0.01611764
0.01787676
0.01496073
0.01744715
0.01554536
0.01713285
0.01631596
0.01620068
0.01415875
0.01671382
0.01589734
0.01725741
0.01694133
0.01789698
0.01731200
0.01728230
0.01784947
0.01873312
0.01907239
0.01939567
0.02078704
0.02284185
0.02333000
0.02323331
0.02450333
0.02504522
0.02750596
0.02862582
0.03079009
0.03109055
0.03069406
0.03177915
0.03285351
0.03365333
0.03440198
0.03511733
0.03587906
0.03634486
0.03666306
0.03684318
0.03684334
0.03642906
0.03592827
0.03573533
0.03517769
0.03482765
0.03411342
0.03356925
0.03299948
0.03243371
0.03174516
0.03102237
0.03021756
0.02968294
0.02895401
0.02817523
0.02751156
0.02697426
0.02633437
0.02563420
0.02473105
0.02419039
0.02583079
0.02774806
0.02753969
0.02707905
0.02629087
0.02553343
0.02422528
0.02546580
0.02520574
0.02228321
0.02212067
0.02083609
0.02150440
0.01813152
0.01156520
0.01589803
0.01454391
0.00931830
0.01528963
0.01079134
0.00627543
0.00606107
0.00589785
0.00656545
0.00604646
0.00453192
0.00567967
0.00303395
0.00905110
0.00361572
0.00578418
0.00032966
0.00307882
0.00444987
0.00174694
0.00230401
0.00316102
0.00581440
0.00675836
0.00718840
0.00817846
0.01339526
0.01551554
0.01675884
0.02425791
0.02477678
0.02481960
0.01903624
0.01133874
0.00833975
0.00862843
0.00696420
0.00950047
0.01322736
0.01839176
0.01955305
0.01621972
0.02259497
0.02428248
0.02573293
0.02348095
0.02492545
0.02433708
0.02435030
0.02335421
0.02374862
0.02174173
0.02404974
0.02344387
0.02511135
0.02443069
0.02371923
0.02431157
0.02507386
0.02452622
0.02598046
0.02602444
0.02622462
0.02768437
0.02873771
0.02984182
0.03021775
0.03168833
0.03257291
0.03428770
0.03603475
0.03803739
0.03900389
0.03988454
0.04160528
0.04285918
0.04408969
0.04507096
0.04599057
0.04704914
0.04777905
0.04833975
0.04850127
0.04867489
0.04840667
0.04790495
0.04764001
0.04713964
0.04677852
0.04609391
0.04542429
0.04476541
0.04414224
0.04345648
0.04251231
0.04159271
0.04097605
0.04021874
0.03913431
0.03839253
0.03767460
0.03693834
0.03607961
0.03500147
0.03411996
0.03474729
0.03649352
0.03654510
0.03649679
0.03632991
0.03601618
0.03612626
0.03756928
0.03738790
0.03524000
0.03512560
0.03459726
0.03461373
0.03207770
0.02872371
0.03137819
0.03206250
0.02556641
0.02836596
0.02444545
0.01992140
0.01862743
0.01729909
0.01847722
0.01647083
0.01326937
0.01363595
0.00836014
0.01374321
0.00849356
0.01361255
0.00432996
0.00701585
0.00907471
0.00643042
0.00628565
0.00831343
0.01116752
0.01114923
0.01272347
0.01316007
0.01961158
0.02163411
0.02298616
0.03120025
0.03164307
0.03178173
0.02564628
0.01662545
0.01283304
0.01202064
0.01011340
0.01310007
0.01827496
0.02360612
0.02563416
0.02351096
0.03030899
0.03185636
0.03203187
0.03125202
0.03072147
0.03190033
0.03017843
0.03124273
0.03024165
0.03028125
0.02963038
0.02966730
0.03050278
0.03021029
0.02963532
0.02996879
0.03060539
0.03052127
0.03130579
0.03172105
0.03241871
0.03278681
0.03400250
0.03501210
0.03601232
0.03678494
0.03816919
0.03970145
0.04144827
0.04313966
0.04475982
0.04643732
0.04855064
0.05013378
0.05145018
0.05268200
0.05384151
0.05508719
0.05592131
0.05663960
0.05694254
0.05718178
0.05699119
0.05650342
0.05622135
0.05576853
0.05552800
0.05483709
0.05410400
0.05340746
0.05281457
0.05209286
0.05112107
0.05010329
0.04948928
0.04867779
0.04755219
0.04673076
0.04602583
0.04523475
0.04428680
0.04312233
0.04204401
0.04212366
0.04346362
0.04377747
0.04444881
0.04428903
0.04445464
0.04507532
0.04602779
0.04604302
0.04561479
0.04530763
0.04562613
0.04589448
0.04552699
0.04486079
0.04422516
0.04466777
0.04099629
0.04052595
0.03849913
0.03649538
0.03356889
0.03236022
0.03177973
0.03036605
0.02639566
0.02529800
0.01825341
0.02293614
0.01661495
0.02078707
0.01090804
0.01316326
0.01705893
0.01314096
0.01345593
0.01491736
0.01798864
0.01665933
0.01899299
0.02007338
0.02668593
0.02861730
0.02995879
0.03849991
0.03899803
0.03859360
0.03301832
0.02268419
0.01858113
0.01615225
0.01380973
0.01715055
0.02305801
0.02907553
0.03132014
0.03178851
0.03641943
0.03723052
0.03659767
0.03669278
0.03547305
0.03737460
0.03546320
0.03689403
0.03530537
0.03549500
0.03435296
0.03469036
0.03490704
0.03459605
0.03468723
0.03498151
0.03458960
0.03517276
0.03539615
0.03628264
0.03643663
0.03696283
0.03773239
0.03881746
0.03984871
0.04074653
0.04201229
0.04359035
0.04548025
0.04733854
0.04919859
0.05135707
0.05366058
0.05547303
0.05692610
0.05831252
0.05958022
0.06088670
0.06198701
0.06271370
0.06319337
0.06345122
0.06329752
0.06287644
0.06259846
0.06229700
0.06204888
0.06142510
0.06066886
0.05996460
0.05933667
0.05859481
0.05761814
0.05659988
0.05595071
0.05518190
0.05401101
0.05316403
0.05247019
0.05169308
0.05071631
0.04950912
0.04835879
0.04803293
0.04901357
0.04956637
0.05015309
0.05054439
0.05111403
0.05162436
0.05257591
0.05340220
0.05394609
0.05353360
0.05386891
0.05509192
0.05436651
0.05492350
0.05419139
0.05339136
0.05380330
0.05229379
0.05039409
0.04982197
0.04548504
0.04542494
0.04376817
0.04275312
0.03955423
0.03935349
0.03312868
0.03631844
0.02820142
0.02960097
0.01965590
0.02247839
0.02724836
0.02212389
0.02312105
0.02266778
0.02585094
0.02343282
0.02563537
0.02731144
0.03371332
0.03580813
0.03725234
0.04565851
0.04601107
0.04577460
0.03992904
0.02999310
0.02549163
0.02105855
0.01795299
0.02144230
0.02814690
0.03418105
0.03641981
0.03888809
0.04044112
0.04108388
0.04082014
0.04106379
0.04000642
0.04136213
0.04022689
0.04074855
0.03934906
0.03935906
0.03856255
0.03886597
0.03868006
0.03844971
0.03871495
0.03835388
0.03809349
0.03846364
0.03834924
0.03909462
0.03946407
0.04005169
0.04073402
0.04185760
0.04301178
0.04389554
0.04506494
0.04678831
0.04868002
0.05065154
0.05272869
0.05514639
0.05758468
0.05954526
0.06113962
0.06265518
0.06399093
0.06542671
0.06662803
0.06739944
0.06797953
0.06824389
0.06813564
0.06772930
0.06747498
0.06730306
0.06706346
0.06645555
0.06569767
0.06503031
0.06435367
0.06361186
0.06262769
0.06165566
0.06097244
0.06017124
0.05904691
0.05819491
0.05750453
0.05675731
0.05580679
0.05460346
0.05343824
0.05281067
0.05355003
0.05409917
0.05477927
0.05528752
0.05592495
0.05683217
0.05750710
0.05848450
0.05936637
0.06005126
0.06048877
0.06157318
0.06181965
0.06249573
0.06209365
0.06079068
0.06166945
0.06177134
0.05864279
0.05853932
0.05603033
0.05560714
0.05345163
0.05195943
0.04983580
0.04957142
0.04568568
0.04649893
0.04148155
0.04070421
0.03014821
0.03304446
0.03763397
0.03230207
0.03397043
0.03119851
0.03421042
0.03148802
0.03342122
0.03580267
0.04134387
0.04311198
0.04432275
0.05178333
0.05193744
0.05165857
0.04699234
0.03747037
0.03330451
0.02681758
0.02254318
0.02566179
0.03230964
0.03834213
0.04133356
0.04372363
0.04395426
0.04474568
0.04469054
0.04457026
0.04428142
0.04441991
0.04419595
0.04390429
0.04306435
0.04264014
0.04232637
0.04205850
0.04146945
0.04154127
0.04151934
0.04129336
0.04102284
0.04100224
0.04121872
0.04163879
0.04201905
0.04258275
0.04310914
0.04419640
0.04545602
0.04642108
0.04763037
0.04934895
0.05131707
0.05341888
0.05564456
0.05822142
0.06071605
0.06281204
0.06452759
0.06613202
0.06750786
0.06902101
0.07031168
0.07111665
0.07174904
0.07200832
0.07196713
0.07160440
0.07135826
0.07123127
0.07099186
0.07045737
0.06971375
0.06906092
0.06834250
0.06755251
0.06659904
0.06566288
0.06493299
0.06415979
0.06306489
0.06221108
0.06153466
0.06081095
0.05989416
0.05871817
0.05750285
0.05675027
0.05725057
0.05779796
0.05842008
0.05905085
0.05980300
0.06075874
0.06155864
0.06265286
0.06394630
0.06481185
0.06585544
0.06631676
0.06749659
0.06735661
0.06795926
0.06751558
0.06715768
0.06790218
0.06575375
0.06441209
0.06396853
0.06284198
0.06184202
0.05949817
0.05898516
0.05653334
0.05457684
0.05423865
0.05376357
0.04941942
0.04097746
0.04372666
0.04687771
0.04237849
0.04365686
0.04020235
0.04245496
0.04018391
0.04113859
0.04436236
0.04827713
0.04983648
0.05087499
0.05675865
0.05663198
0.05598355
0.05298722
0.04521959
0.04144513
0.03347603
0.02759755
0.02951965
0.03578265
0.04152538
0.04543465
0.04715863
0.04713813
0.04801795
0.04822864
0.04760666
0.04786064
0.04743681
0.04764161
0.04688560
0.04629065
0.04550642
0.04532302
0.04463476
0.04412989
0.04401124
0.04374836
0.04353258
0.04334668
0.04315418
0.04334830
0.04363987
0.04399780
0.04458405
0.04515947
0.04619182
0.04748787
0.04853527
0.04975389
0.05160492
0.05356901
0.05579511
0.05814306
0.06077534
0.06333938
0.06552692
0.06735070
0.06901785
0.07042292
0.07198226
0.07330963
0.07415204
0.07479664
0.07504397
0.07504587
0.07477406
0.07451756
0.07438087
0.07414099
0.07368931
0.07296224
0.07233084
0.07155616
0.07076468
0.06981530
0.06892656
0.06809630
0.06733534
0.06633140
0.06549847
0.06480701
0.06409858
0.06319723
0.06206284
0.06085927
0.05999176
0.06031616
0.06083671
0.06139687
0.06199678
0.06286699
0.06383601
0.06472914
0.06580006
0.06710500
0.06825481
0.06933734
0.06985312
0.07130678
0.07099118
0.07176413
0.07290428
0.07213085
0.07156907
0.07091209
0.06916265
0.06950240
0.06737011
0.06828944
0.06515498
0.06549346
0.06348488
0.06316556
0.06054808
0.06244165
0.05761430
0.05277200
0.05362289
0.05495104
0.05249254
0.05306067
0.04913770
0.05023304
0.04880019
0.04872311
0.05135203
0.05413929
0.05544593
0.05630946
0.06083129
0.06033821
0.05950845
0.05714962
0.05270004
0.04918260
0.04072437
0.03315659
0.03322795
0.03859234
0.04415280
0.04861361
0.05054693
0.05061552
0.05072585
0.05135129
0.05062704
0.05083854
0.05014420
0.05038929
0.04946078
0.04867137
0.04779149
0.04762929
0.04708766
0.04663468
0.04619179
0.04573668
0.04544999
0.04511783
0.04497819
0.04511972
0.04544496
0.04582892
0.04638511
0.04689265
0.04792124
0.04927927
0.05038589
0.05166980
0.05358107
0.05560173
0.05789737
0.06031704
0.06299974
0.06560911
0.06787472
0.06978201
0.07148800
0.07289670
0.07446354
0.07583390
0.07668144
0.07733030
0.07755685
0.07759442
0.07740515
0.07714843
0.07696882
0.07670943
0.07635928
0.07567455
0.07499371
0.07421331
0.07339536
0.07247749
0.07160353
0.07069280
0.06994580
0.06900941
0.06820174
0.06751535
0.06680537
0.06590839
0.06482729
0.06363564
0.06273810
0.06287874
0.06335963
0.06384575
0.06446782
0.06538616
0.06633932
0.06725386
0.06844256
0.06974952
0.07087218
0.07197807
0.07296601
0.07376686
0.07474860
0.07481477
0.07630626
0.07554162
0.07441008
0.07549189
0.07337329
0.07339236
0.07150923
0.07177024
0.06980047
0.07088046
0.06801703
0.06907549
0.06604945
0.06842310
0.06486392
0.06317372
0.06192264
0.06186034
0.06065627
0.06124470
0.05746816
0.05730733
0.05636531
0.05561388
0.05652697
0.05912392
0.06000518
0.06071595
0.06416456
0.06360671
0.06242363
0.06057778
0.05868980
0.05524809
0.04814575
0.03925484
0.03685186
0.04146452
0.04700491
0.05136932
0.05339286
0.05401335
0.05339433
0.05424873
0.05336725
0.05306359
0.05257806
0.05247295
0.05130973
0.05062475
0.04993643
0.04949190
0.04898189
0.04843743
0.04792077
0.04755737
0.04720651
0.04661563
0.04663435
0.04664319
0.04702245
0.04740732
0.04797579
0.04850115
0.04953324
0.05090932
0.05209669
0.05343918
0.05540943
0.05744357
0.05982244
0.06228483
0.06499772
0.06764164
0.06993667
0.07191230
0.07363269
0.07504543
0.07660213
0.07798397
0.07883832
0.07947594
0.07967409
0.07974156
0.07964637
0.07937600
0.07911852
0.07885053
0.07858455
0.07797670
0.07723566
0.07643784
0.07563156
0.07472276
0.07382623
0.07287499
0.07211541
0.07121359
0.07045748
0.06978387
0.06907126
0.06818254
0.06712754
0.06596156
0.06504909
0.06505193
0.06548880
0.06589021
0.06648466
0.06743307
0.06842388
0.06929946
0.07053788
0.07180027
0.07295883
0.07424470
0.07556325
0.07615075
0.07739330
0.07782591
0.07804332
0.07870664
0.07793895
0.07846332
0.07785989
0.07718919
0.07571042
0.07519165
0.07411302
0.07499354
0.07157770
0.07312590
0.07022285
0.07313059
0.06952748
0.06980994
0.06803375
0.06738216
0.06714563
0.06795417
0.06457307
0.06340834
0.06225036
0.06122996
0.06076873
0.06299538
0.06384032
0.06426329
0.06693739
0.06616105
0.06469343
0.06274233
0.06230175
0.05985449
0.05521061
0.04586752
0.04095968
0.04545514
0.05054541
0.05426663
0.05601827
0.05668906
0.05631439
0.05632523
0.05571873
0.05490456
0.05456157
0.05440491
0.05325585
0.05236239
0.05188583
0.05121015
0.05077231
0.05009577
0.04955500
0.04922775
0.04860353
0.04802622
0.04796930
0.04800959
0.04840652
0.04883550
0.04936033
0.04997327
0.05104874
0.05244507
0.05371184
0.05512947
0.05712552
0.05920065
0.06159302
0.06407332
0.06683794
0.06950325
0.07181324
0.07382755
0.07552756
0.07694287
0.07845666
0.07987429
0.08072815
0.08134150
0.08153030
0.08163108
0.08159096
0.08130315
0.08095913
0.08069067
0.08048018
0.07995222
0.07914088
0.07834231
0.07753586
0.07663520
0.07571251
0.07474025
0.07395293
0.07306897
0.07236447
0.07170744
0.07098698
0.07008972
0.06907529
0.06795766
0.06702752
0.06691711
0.06725802
0.06758879
0.06817791
0.06915386
0.07014943
0.07103368
0.07231826
0.07368562
0.07481185
0.07628776
0.07712888
0.07834806
0.07922067
0.07993630
0.07999241
0.08079238
0.08100387
0.08015651
0.08114604
0.07949920
0.08004547
0.07871682
0.07785891
0.07652476
0.07640763
0.07622052
0.07485189
0.07630795
0.07377153
0.07381212
0.07258722
0.07190980
0.07193022
0.07296216
0.06973907
0.06815655
0.06618944
0.06507052
0.06416444
0.06587733
0.06684843
0.06718872
0.06929779
0.06837065
0.06688748
0.06463437
0.06424387
0.06335163
0.06142857
0.05289361
0.04617676
0.04951885
0.05461845
0.05748140
0.05896073
0.05916667
0.05918426
0.05876157
0.05801639
0.05695879
0.05653960
0.05621727
0.05533489
0.05402633
0.05360452
0.05284409
0.05249111
0.05163411
0.05106562
0.05066892
0.05003381
0.04947995
0.04916650
0.04936322
0.04966803
0.05010912
0.05065164
0.05139056
0.05252037
0.05393014
0.05527485
0.05678058
0.05877006
0.06085770
0.06326591
0.06574423
0.06855581
0.07124486
0.07355160
0.07558430
0.07723719
0.07865375
0.08009758
0.08153093
0.08241591
0.08298404
0.08319683
0.08332909
0.08330794
0.08301298
0.08258879
0.08230412
0.08212263
0.08165008
0.08082020
0.08000338
0.07920883
0.07830840
0.07734252
0.07637312
0.07554328
0.07466221
0.07401046
0.07336724
0.07262262
0.07172059
0.07073514
0.06967013
0.06873112
0.06853363
0.06876651
0.06902606
0.06960036
0.07059057
0.07159539
0.07248541
0.07373213
0.07515805
0.07639572
0.07774335
0.07876837
0.08010145
0.08061794
0.08123625
0.08209258
0.08241194
0.08319223
0.08256324
0.08291520
0.08173796
0.08248662
0.08063792
0.08137506
0.07959882
0.08052315
0.07790745
0.07727454
0.07818157
0.07758553
0.07689669
0.07595271
0.07559787
0.07531262
0.07601729
0.07290706
0.07144830
0.06875129
0.06755485
0.06643246
0.06784476
0.06903076
0.06958686
0.07121380
0.07029075
0.06886799
0.06657857
0.06571122
0.06606739
0.06662508
0.06002898
0.05222354
0.05374608
0.05861722
0.06114380
0.06199968
0.06224968
0.06186224
0.06075732
0.06022588
0.05905533
0.05870704
0.05801791
0.05706385
0.05567924
0.05525408
0.05447529
0.05394216
0.05309635
0.05253675
0.05199827
0.05143228
0.05082459
0.05046252
0.05061720
0.05097750
0.05136954
0.05192842
0.05279306
0.05397378
0.05540142
0.05680849
0.05840111
0.06037276
0.06247222
0.06486566
0.06735805
0.07019728
0.07290049
0.07520008
0.07723074
0.07881931
0.08021732
0.08158315
0.08301264
0.08394665
0.08446495
0.08471155
0.08487417
0.08484755
0.08456422
0.08408791
0.08375538
0.08356501
0.08312238
0.08231598
0.08146877
0.08070656
0.07981536
0.07878302
0.07783148
0.07695570
0.07607337
0.07546484
0.07483127
0.07405463
0.07314897
0.07218748
0.07114864
0.07022931
0.06993808
0.07005126
0.07025493
0.07082289
0.07179197
0.07279793
0.07370859
0.07491807
0.07631138
0.07757498
0.07880481
0.08000300
0.08100087
0.08199653
0.08241605
0.08356148
0.08381276
0.08427818
0.08450156
0.08374092
0.08400404
0.08404059
0.08298558
0.08339508
0.08146948
0.08289308
0.08007202
0.08167454
0.07912479
0.07995634
0.07923578
0.07859042
0.07854021
0.07766234
0.07696490
0.07476644
0.07364035
0.07054663
0.06921431
0.06804931
0.06919909
0.07062879
0.07143013
0.07262665
0.07177300
0.07046851
0.06830998
0.06683551
0.06795474
0.07072251
0.06681664
0.05847816
0.05829874
0.06238950
0.06491029
0.06526816
0.06541765
0.06447886
0.06304765
0.06240728
0.06117438
0.06065464
0.05991701
0.05880939
0.05744002
0.05680470
0.05616361
0.05547868
0.05471477
0.05393719
0.05333630
0.05276833
0.05215227
0.05177793
0.05189217
0.05224197
0.05266274
0.05324131
0.05420721
0.05543024
0.05688234
0.05835376
0.06000828
0.06196789
0.06405245
0.06644264
0.06894916
0.07180593
0.07450448
0.07678768
0.07880479
0.08032126
0.08167960
0.08297151
0.08436861
0.08535992
0.08586633
0.08611040
0.08629228
0.08623769
0.08597187
0.08548194
0.08509304
0.08484527
0.08442218
0.08366027
0.08278774
0.08206412
0.08120811
0.08010546
0.07916562
0.07824612
0.07735660
0.07676937
0.07614429
0.07534633
0.07442660
0.07347232
0.07244332
0.07157699
0.07117796
0.07117633
0.07133756
0.07189349
0.07282527
0.07382405
0.07475147
0.07592866
0.07725759
0.07851703
0.07983091
0.08101535
0.08191883
0.08307111
0.08376271
0.08449930
0.08525882
0.08494915
0.08583686
0.08500149
0.08579898
0.08472081
0.08528958
0.08462105
0.08376233
0.08454877
0.08252922
0.08359936
0.08023620
0.08282679
0.08114920
0.08015963
0.08090360
0.07982322
0.07735075
0.07629186
0.07516788
0.07214827
0.07018926
0.06938636
0.07002665
0.07158620
0.07262683
0.07344118
0.07267714
0.07158195
0.06987441
0.06830432
0.06921426
0.07353187
0.07299702
0.06516805
0.06319885
0.06616101
0.06867642
0.06878999
0.06833552
0.06716090
0.06554166
0.06465178
0.06340931
0.06259114
0.06192146
0.06058095
0.05924208
0.05845892
0.05779797
0.05704765
0.05622529
0.05543435
0.05474293
0.05410664
0.05354316
0.05310159
0.05321311
0.05352314
0.05398808
0.05458548
0.05563157
0.05691306
0.05839412
0.05992400
0.06160782
0.06358419
0.06563800
0.06804111
0.07054099
0.07337605
0.07607494
0.07833324
0.08032199
0.08177345
0.08306933
0.08431105
0.08564908
0.08667681
0.08723125
0.08745073
0.08760516
0.08753382
0.08725881
0.08676922
0.08634603
0.08601956
0.08560830
0.08487498
0.08399076
0.08329482
0.08250423
0.08136699
0.08041443
0.07945695
0.07857324
0.07796786
0.07733777
0.07652581
0.07558807
0.07462485
0.07359939
0.07279839
0.07230212
0.07218393
0.07231442
0.07286164
0.07372566
0.07470963
0.07563587
0.07680036
0.07809551
0.07936520
0.08063746
0.08178786
0.08288278
0.08379530
0.08464513
0.08515876
0.08593144
0.08611848
0.08655749
0.08643171
0.08677467
0.08568149
0.08649788
0.08520215
0.08579228
0.08467215
0.08495004
0.08450387
0.08263340
0.08509473
0.08346212
0.08199093
0.08276945
0.08113638
0.07877685
0.07781265
0.07623471
0.07365096
0.07121074
0.07024256
0.07041294
0.07194079
0.07312251
0.07360417
0.07298979
0.07204983
0.07077611
0.06990808
0.07015667
0.07521888
0.07831066
0.07196077
0.06855112
0.07040247
0.07246107
0.07251411
0.07150373
0.07001782
0.06821095
0.06704615
0.06570034
0.06467452
0.06393414
0.06255802
0.06102722
0.06021091
0.05938755
0.05864171
0.05770775
0.05697417
0.05620649
0.05551994
0.05496224
0.05446579
0.05457974
0.05488021
0.05535394
0.05597460
0.05708754
0.05844493
0.05995649
0.06152296
0.06321918
0.06523242
0.06725237
0.06966960
0.07215803
0.07492753
0.07762708
0.07985218
0.08178630
0.08318883
0.08443555
0.08563528
0.08689049
0.08792883
0.08855682
0.08876475
0.08885978
0.08878342
0.08846366
0.08798506
0.08754245
0.08714532
0.08673968
0.08600825
0.08510854
0.08443731
0.08371981
0.08259401
0.08159055
0.08061776
0.07975251
0.07908961
0.07845001
0.07762490
0.07665555
0.07568837
0.07465572
0.07389907
0.07335943
0.07312781
0.07321932
0.07375267
0.07453640
0.07548284
0.07638769
0.07752283
0.07881421
0.08004877
0.08125485
0.08246433
0.08351034
0.08444344
0.08507379
0.08579648
0.08635776
0.08715455
0.08700965
0.08776576
0.08739846
0.08717083
0.08681120
0.08622986
0.08711533
0.08551634
0.08722915
0.08450617
0.08532825
0.08475575
0.08579788
0.08408704
0.08424533
0.08200761
0.08032266
0.07923457
0.07704008
0.07486692
0.07212103
0.07081902
0.07062312
0.07184208
0.07310617
0.07329364
0.07289693
0.07209488
0.07107582
0.07105054
0.07093606
0.07611175
0.08254035
0.07885994
0.07430007
0.07520937
0.07677281
0.07640679
0.07487536
0.07310543
0.07113543
0.06955459
0.06820186
0.06704713
0.06610904
0.06455567
0.06283187
0.06203864
0.06113510
0.06030392
0.05931183
0.05859740
0.05773540
0.05704131
0.05644049
0.05593816
0.05602047
0.05632835
0.05679691
0.05745748
0.05859568
0.06002602
0.06155748
0.06314493
0.06485018
0.06691502
0.06889195
0.07132605
0.07381165
0.07650020
0.07916285
0.08135590
0.08322328
0.08459695
0.08581227
0.08697419
0.08812406
0.08914654
0.08985797
0.09003674
0.09008905
0.09001339
0.08962200
0.08918686
0.08872486
0.08825623
0.08785200
0.08709813
0.08618115
0.08555111
0.08487167
0.08378825
0.08272196
0.08173578
0.08090018
0.08017979
0.07951203
0.07867160
0.07765742
0.07668976
0.07565463
0.07490236
0.07435981
0.07404655
0.07407621
0.07457950
0.07529076
0.07618511
0.07705269
0.07815166
0.07939974
0.08058136
0.08177892
0.08298356
0.08395288
0.08494592
0.08553611
0.08644067
0.08711931
0.08773597
0.08800688
0.08849754
0.08793219
0.08858034
0.08764778
0.08735413
0.08763070
0.08625209
0.08834316
0.08599516
0.08788214
0.08667185
0.08748580
0.08551117
0.08526829
0.08216145
0.08164321
0.08035219
0.07787115
0.07575626
0.07290941
0.07124555
0.07069339
0.07156138
0.07274458
0.07275794
0.07255307
0.07179814
0.07106648
0.07137295
0.07166951
0.07656774
0.08525955
0.08523930
0.08044408
0.08034997
0.08131854
0.08050480
0.07870277
0.07637683
0.07411166
0.07224735
0.07073991
0.06947632
0.06828105
0.06669105
0.06485928
0.06398065
0.06301117
0.06206837
0.06106234
0.06027972
0.05938886
0.05865658
0.05802725
0.05752053
0.05755626
0.05785710
0.05832418
0.05904571
0.06019276
0.06164705
0.06320183
0.06481784
0.06652417
0.06863653
0.07056685
0.07302448
0.07550118
0.07811390
0.08071896
0.08285859
0.08467717
0.08602245
0.08722016
0.08834234
0.08939689
0.09036776
0.09114110
0.09128319
0.09130512
0.09122345
0.09079198
0.09040772
0.08992154
0.08937349
0.08895809
0.08817477
0.08725512
0.08666194
0.08597487
0.08493823
0.08382826
0.08282466
0.08202180
0.08126300
0.08054353
0.07967134
0.07862234
0.07765189
0.07661541
0.07583720
0.07529883
0.07496039
0.07491058
0.07536245
0.07599305
0.07682773
0.07765453
0.07872060
0.07989525
0.08104521
0.08220600
0.08335431
0.08435335
0.08526828
0.08605892
0.08681617
0.08762185
0.08787104
0.08867562
0.08876844
0.08887319
0.08919074
0.08812957
0.08877656
0.08752488
0.08760861
0.08832416
0.08673581
0.08972990
0.08714933
0.08863471
0.08748357
0.08612365
0.08358028
0.08237590
0.08158109
0.07878793
0.07637531
0.07354732
0.07160930
0.07065202
0.07118549
0.07220438
0.07215485
0.07204569
0.07140522
0.07074321
0.07113766
0.07212515
0.07674236
0.08686066
0.09102958
0.08687171
0.08562074
0.08614949
0.08487824
0.08270562
0.07986721
0.07749247
0.07534600
0.07345665
0.07205636
0.07070058
0.06897365
0.06706494
0.06605277
0.06506287
0.06397237
0.06295384
0.06206367
0.06117551
0.06040490
0.05972700
0.05921391
0.05918018
0.05948690
0.05994419
0.06072777
0.06188269
0.06331216
0.06489112
0.06656147
0.06826500
0.07038581
0.07229632
0.07479606
0.07725691
0.07980459
0.08234160
0.08440142
0.08619530
0.08745980
0.08867242
0.08976514
0.09073605
0.09163539
0.09240642
0.09254068
0.09253435
0.09242669
0.09199462
0.09166044
0.09115387
0.09051604
0.09005970
0.08926509
0.08836617
0.08778381
0.08703695
0.08606016
0.08493520
0.08390357
0.08311865
0.08232857
0.08155983
0.08064493
0.07957895
0.07858716
0.07753224
0.07671556
0.07619921
0.07587902
0.07574286
0.07609652
0.07665997
0.07742632
0.07820515
0.07923189
0.08032797
0.08142393
0.08257245
0.08371548
0.08464715
0.08556648
0.08638986
0.08709124
0.08777021
0.08825618
0.08876317
0.08886452
0.08945625
0.08893853
0.08918953
0.08955362
0.08845170
0.08901389
0.08764152
0.08810531
0.09005748
0.08716606
0.08927127
0.08883982
0.08699747
0.08420211
0.08376212
0.08265735
0.07971929
0.07685427
0.07410818
0.07194167
0.07068433
0.07083100
0.07163495
0.07150335
0.07144123
0.07090462
0.07035283
0.07051827
0.07198361
0.07658435
0.08748842
0.09579060
0.09336438
0.09110366
0.09115225
0.08952233
0.08698717
0.08372521
0.08102391
0.07861563
0.07641237
0.07483599
0.07330991
0.07139705
0.06942659
0.06830626
0.06723198
0.06605862
0.06497817
0.06398322
0.06309364
0.06230316
0.06156361
0.06104855
0.06092587
0.06122918
0.06167213
0.06248542
0.06367595
0.06504572
0.06661194
0.06837298
0.07009819
0.07218826
0.07414185
0.07663790
0.07908264
0.08158380
0.08402561
0.08604330
0.08776513
0.08894409
0.09018262
0.09127613
0.09214250
0.09297353
0.09367235
0.09380759
0.09379645
0.09366777
0.09322263
0.09295367
0.09243864
0.09169017
0.09117764
0.09038465
0.08953853
0.08891966
0.08809514
0.08717062
0.08605122
0.08499070
0.08420227
0.08338679
0.08256914
0.08160881
0.08052436
0.07951873
0.07842669
0.07757486
0.07708475
0.07680776
0.07657561
0.07680234
0.07732393
0.07800989
0.07872036
0.07969993
0.08070428
0.08176659
0.08290199
0.08399361
0.08486387
0.08580029
0.08657733
0.08736327
0.08789540
0.08857200
0.08881589
0.08932104
0.08953777
0.08929768
0.08989994
0.08953609
0.08944636
0.08982962
0.08793880
0.08885548
0.08919331
0.08764225
0.08898240
0.08843292
0.08781204
0.08541390
0.08469886
0.08314091
0.08038496
0.07737472
0.07458899
0.07230306
0.07076571
0.07052836
0.07105950
0.07081015
0.07073710
0.07028629
0.06987560
0.07002185
0.07139895
0.07606382
0.08727418
0.09930349
0.09973282
0.09692161
0.09645642
0.09439969
0.09146390
0.08804487
0.08476737
0.08205860
0.07967190
0.07785872
0.07614259
0.07404393
0.07199808
0.07075676
0.06955576
0.06832033
0.06713626
0.06605468
0.06516641
0.06435129
0.06355798
0.06303236
0.06284368
0.06309621
0.06351170
0.06433111
0.06556509
0.06687646
0.06841144
0.07025321
0.07204112
0.07406473
0.07610568
0.07854606
0.08097812
0.08340516
0.08577277
0.08777659
0.08941585
0.09049363
0.09179263
0.09288049
0.09362885
0.09436185
0.09497236
0.09509182
0.09510064
0.09496156
0.09449905
0.09427204
0.09378694
0.09293649
0.09232264
0.09153496
0.09074394
0.09006674
0.08919539
0.08828072
0.08717855
0.08610797
0.08525515
0.08444404
0.08359041
0.08257047
0.08145480
0.08045631
0.07933191
0.07844537
0.07797477
0.07770933
0.07740958
0.07751732
0.07800252
0.07860108
0.07922362
0.08015257
0.08106051
0.08209194
0.08318396
0.08421571
0.08506204
0.08596350
0.08678011
0.08746703
0.08810075
0.08858201
0.08903909
0.08943596
0.08948716
0.08957129
0.08994341
0.08937547
0.09038016
0.08992495
0.08906117
0.09032920
0.08789475
0.08895014
0.08887693
0.08854121
0.08844875
0.08681731
0.08508468
0.08324048
0.08093722
0.07797966
0.07503254
0.07266215
0.07088073
0.07027870
0.07049329
0.07008978
0.06996364
0.06955441
0.06923277
0.06952441
0.07060376
0.07521712
0.08634258
0.10142050
0.10566378
0.10302492
0.10197581
0.09951953
0.09631190
0.09259850
0.08884112
0.08579462
0.08318096
0.08111021
0.07917152
0.07693775
0.07476102