/*--------------------------------*- C++ -*----------------------------------*\
  =========                 |
  \\      /  F ield         | OpenFOAM: The Open Source CFD Toolbox
   \\    /   O peration     | Website:  https://openfoam.org
    \\  /    A nd           | Version:  7
     \\/     M anipulation  |
\*---------------------------------------------------------------------------*/
FoamFile
{
    version     2.0;
    format      ascii;
    class       volSymmTensorField;
    location    "0";
    object      tauij_LES;
}
// * * * * * * * * * * * * * * * * * * * * * * * * * * * * * * * * * * * * * //

dimensions      [0 2 -2 0 0 0 0];

internalField   nonuniform List<symmTensor>
15600
(
(0.01137231 -0.00013155 0.00000000 0.00002559 0.00000000 0.00597503)
(0.01210764 -0.00016294 0.00000000 0.00003404 0.00000000 0.00651361)
(0.01192097 -0.00016979 0.00000000 0.00002916 0.00000000 0.00638907)
(0.00802035 -0.00005541 0.00000000 -0.00001299 0.00000000 0.00389666)
(0.00003343 -0.00012141 0.00000000 0.00010281 0.00000000 0.00161467)
(0.00091125 -0.00003104 0.00000000 -0.00000874 0.00000000 0.00034129)
(0.00107240 -0.00007710 0.00000000 0.00003700 0.00000000 0.00379026)
(0.00003633 -0.00024202 0.00000000 0.00023056 0.00000000 0.00253205)
(0.00194673 -0.00014834 0.00000000 -0.00007833 0.00000000 0.00250288)
(0.00175241 -0.00034995 0.00000000 0.00019287 0.00000000 0.00344810)
(0.00366545 -0.00089229 0.00000000 0.00033704 0.00000000 0.00547925)
(0.00005475 -0.00070341 0.00000000 0.00054304 0.00000000 0.00407467)
(0.00240987 -0.00143958 0.00000000 0.00089450 0.00000000 0.00544854)
(0.00491210 -0.00079138 0.00000000 -0.00010069 0.00000000 0.00658112)
(0.00224785 -0.00172675 0.00000000 0.00128976 0.00000000 0.00609417)
(0.00343178 -0.00098227 0.00000000 0.00034377 0.00000000 0.00707506)
(0.00133256 -0.00118307 0.00000000 0.00093052 0.00000000 0.00390604)
(0.00194842 -0.00080471 0.00000000 0.00041739 0.00000000 0.00575672)
(0.00118672 -0.00097560 0.00000000 0.00071662 0.00000000 0.00265257)
(0.00144903 -0.00076938 0.00000000 0.00045911 0.00000000 0.00525055)
(0.00119737 -0.00080236 0.00000000 0.00056881 0.00000000 0.00175708)
(0.00093435 -0.00057671 0.00000000 0.00036315 0.00000000 0.00392778)
(0.00053770 -0.00051486 0.00000000 0.00038278 0.00000000 0.00091475)
(0.00118598 -0.00086386 0.00000000 0.00058115 0.00000000 0.00325524)
(0.00185515 -0.00025683 0.00000000 -0.00011751 0.00000000 0.00277522)
(0.00237692 -0.00049059 0.00000000 0.00005046 0.00000000 0.00255343)
(0.00259252 -0.00149105 0.00000000 0.00087590 0.00000000 0.00373480)
(0.00209648 -0.00122242 0.00000000 0.00072874 0.00000000 0.00412131)
(0.00189951 -0.00039529 0.00000000 0.00004990 0.00000000 0.00286091)
(0.00094046 -0.00058357 0.00000000 0.00035603 0.00000000 0.00170533)
(0.00274542 -0.00108538 0.00000000 0.00047534 0.00000000 0.00491068)
(0.00288002 -0.00136956 0.00000000 0.00068607 0.00000000 0.00307588)
(0.00205621 -0.00041679 0.00000000 0.00007878 0.00000000 0.00209800)
(0.00200508 -0.00022968 0.00000000 0.00000893 0.00000000 0.00306998)
(0.00244955 -0.00105030 0.00000000 0.00042788 0.00000000 0.00346331)
(0.00358388 -0.00084878 0.00000000 0.00028730 0.00000000 0.00535483)
(0.00393501 -0.00095931 0.00000000 0.00035332 0.00000000 0.00626486)
(0.00297330 -0.00078019 0.00000000 0.00026042 0.00000000 0.00422929)
(0.00334140 -0.00062745 0.00000000 0.00026263 0.00000000 0.00662578)
(0.00335685 -0.00063600 0.00000000 0.00026865 0.00000000 0.00730441)
(0.00476814 -0.00137806 0.00000000 0.00041141 0.00000000 0.00661558)
(0.00573121 -0.00038789 0.00000000 0.00030897 0.00000000 0.01192327)
(0.00778505 -0.00021887 0.00000000 0.00035984 0.00000000 0.01512451)
(0.00736622 0.00004520 0.00000000 -0.00000805 0.00000000 0.00894757)
(0.00513410 0.00001790 0.00000000 -0.00003695 0.00000000 0.00612714)
(0.00503297 0.00001895 0.00000000 -0.00003147 0.00000000 0.00596516)
(0.00508505 0.00002059 0.00000000 -0.00004226 0.00000000 0.00612294)
(0.00519855 0.00001790 0.00000000 -0.00003206 0.00000000 0.00635655)
(0.00524395 0.00001642 0.00000000 -0.00003160 0.00000000 0.00649414)
(0.00527872 0.00001510 0.00000000 -0.00003477 0.00000000 0.00661789)
(0.00539105 0.00001508 0.00000000 -0.00004283 0.00000000 0.00667761)
(0.00550959 0.00000839 0.00000000 -0.00002422 0.00000000 0.00679086)
(0.00544157 0.00001189 0.00000000 -0.00003795 0.00000000 0.00678133)
(0.00537584 0.00001007 0.00000000 -0.00003774 0.00000000 0.00678919)
(0.00540758 0.00000734 0.00000000 -0.00003691 0.00000000 0.00671280)
(0.00519783 0.00000732 0.00000000 -0.00003813 0.00000000 0.00657598)
(0.00513508 -0.00000148 0.00000000 -0.00001832 0.00000000 0.00652125)
(0.00507553 0.00000001 0.00000000 -0.00002639 0.00000000 0.00631996)
(0.00500087 -0.00000154 0.00000000 -0.00002286 0.00000000 0.00618486)
(0.00485495 0.00000109 0.00000000 -0.00003219 0.00000000 0.00594544)
(0.00470578 0.00000071 0.00000000 -0.00003109 0.00000000 0.00572392)
(0.00462607 -0.00000080 0.00000000 -0.00002669 0.00000000 0.00558673)
(0.00453474 -0.00000173 0.00000000 -0.00002289 0.00000000 0.00549466)
(0.00433472 0.00000193 0.00000000 -0.00003235 0.00000000 0.00526608)
(0.00423052 -0.00000011 0.00000000 -0.00002744 0.00000000 0.00514495)
(0.00408190 -0.00000136 0.00000000 -0.00002645 0.00000000 0.00498429)
(0.00396049 -0.00000055 0.00000000 -0.00002650 0.00000000 0.00480374)
(0.00391573 -0.00000374 0.00000000 -0.00002077 0.00000000 0.00471211)
(0.00374654 -0.00000040 0.00000000 -0.00002550 0.00000000 0.00449848)
(0.00353250 -0.00000026 0.00000000 -0.00002456 0.00000000 0.00433687)
(0.00341377 -0.00000088 0.00000000 -0.00002169 0.00000000 0.00425614)
(0.00330718 -0.00000078 0.00000000 -0.00001997 0.00000000 0.00415929)
(0.00314089 0.00000104 0.00000000 -0.00002232 0.00000000 0.00404386)
(0.00297193 0.00000155 0.00000000 -0.00002272 0.00000000 0.00396781)
(0.00282093 -0.00000135 0.00000000 -0.00001654 0.00000000 0.00392634)
(0.00280866 -0.00000037 0.00000000 -0.00001772 0.00000000 0.00417610)
(0.00396192 0.00000328 0.00000000 -0.00000750 0.00000000 0.00660563)
(0.00269319 0.00074282 0.00000000 0.00026103 0.00000000 0.00747296)
(0.00203699 0.00074954 0.00000000 0.00025891 0.00000000 0.00594024)
(0.00215844 0.00022495 0.00000000 -0.00000120 0.00000000 0.00306875)
(0.00133540 0.00045325 0.00000000 0.00014868 0.00000000 0.00401681)
(0.00111944 0.00046614 0.00000000 0.00017014 0.00000000 0.00379897)
(-0.00003449 -0.00001810 0.00000000 0.00001258 0.00000000 0.00166106)
(0.00080516 0.00022516 0.00000000 0.00007560 0.00000000 0.00275097)
(0.00077149 0.00036663 0.00000000 0.00015754 0.00000000 0.00328423)
(0.00018731 -0.00000187 0.00000000 -0.00001483 0.00000000 0.00099107)
(-0.00027936 0.00002349 0.00000000 0.00003902 0.00000000 0.00201867)
(-0.00036885 -0.00009269 0.00000000 -0.00002486 0.00000000 0.00096520)
(-0.00011806 -0.00008795 0.00000000 -0.00005209 0.00000000 0.00094195)
(-0.00010463 -0.00001315 0.00000000 0.00000335 0.00000000 0.00014260)
(-0.00045395 -0.00009837 0.00000000 -0.00001105 0.00000000 -0.00083857)
(-0.00016419 0.00002954 0.00000000 0.00005019 0.00000000 0.00157119)
(-0.00002940 -0.00000557 0.00000000 0.00000082 0.00000000 -0.00007335)
(-0.00058699 -0.00017471 0.00000000 -0.00006556 0.00000000 -0.00073605)
(-0.00073950 -0.00023158 0.00000000 -0.00007303 0.00000000 0.00076745)
(-0.00023249 -0.00001695 0.00000000 0.00003214 0.00000000 0.00138352)
(-0.00019470 -0.00011896 0.00000000 -0.00006965 0.00000000 -0.00094796)
(-0.00027160 -0.00021346 0.00000000 -0.00013929 0.00000000 -0.00077071)
(-0.00006551 -0.00002368 0.00000000 -0.00000806 0.00000000 -0.00025887)
(-0.00034374 -0.00024271 0.00000000 -0.00015516 0.00000000 -0.00083037)
(-0.00004143 -0.00000488 0.00000000 0.00000410 0.00000000 0.00015323)
(-0.00003235 -0.00006606 0.00000000 -0.00005363 0.00000000 -0.00027868)
(-0.00023867 -0.00008562 0.00000000 -0.00002825 0.00000000 0.00025045)
(-0.00004657 -0.00010119 0.00000000 -0.00008963 0.00000000 -0.00084829)
(-0.00019331 -0.00001780 0.00000000 0.00002117 0.00000000 0.00139608)
(-0.00026772 -0.00017949 0.00000000 -0.00011773 0.00000000 -0.00110440)
(-0.00082745 -0.00028812 0.00000000 -0.00009180 0.00000000 0.00023430)
(-0.00077502 -0.00013832 0.00000000 0.00000792 0.00000000 -0.00086960)
(-0.00035026 -0.00020355 0.00000000 -0.00010346 0.00000000 -0.00080786)
(0.00049865 -0.00012374 0.00000000 -0.00011014 0.00000000 0.00228028)
(-0.00214834 -0.00035580 0.00000000 0.00003219 0.00000000 -0.00101599)
(-0.00066909 0.00004078 0.00000000 0.00015114 0.00000000 0.00035202)
(-0.00217040 -0.00054147 0.00000000 -0.00014706 0.00000000 -0.00166166)
(-0.00124520 0.00020779 0.00000000 0.00031942 0.00000000 0.00146055)
(0.00129280 -0.00000191 0.00000000 0.00000638 0.00000000 0.00059090)
(-0.00020349 -0.00011268 0.00000000 -0.00004996 0.00000000 -0.00043860)
(0.00381710 0.00001059 0.00000000 0.00000648 0.00000000 0.00185996)
(0.00761606 -0.00006224 0.00000000 0.00001444 0.00000000 0.00382543)
(0.00934282 -0.00008784 0.00000000 0.00001429 0.00000000 0.00472665)
(0.01050211 -0.00011478 0.00000000 0.00002038 0.00000000 0.00534840)
(0.01708887 -0.00030617 0.00000000 0.00008546 0.00000000 0.00844853)
(0.01757588 -0.00033746 0.00000000 0.00009557 0.00000000 0.00907551)
(0.01728625 -0.00035530 0.00000000 0.00009211 0.00000000 0.00900947)
(0.01268318 -0.00021445 0.00000000 0.00003321 0.00000000 0.00608881)
(0.00406435 -0.00065377 0.00000000 0.00019078 0.00000000 0.00254043)
(0.00345100 -0.00016013 0.00000000 -0.00001544 0.00000000 0.00131133)
(0.00241586 -0.00034727 0.00000000 0.00014881 0.00000000 0.00525748)
(0.00083742 -0.00059292 0.00000000 0.00044347 0.00000000 0.00390771)
(0.00354440 -0.00043645 0.00000000 0.00003942 0.00000000 0.00488678)
(0.00394748 -0.00072066 0.00000000 0.00035621 0.00000000 0.00652895)
(0.00673557 -0.00165812 0.00000000 0.00071671 0.00000000 0.00949070)
(0.00386726 -0.00249632 0.00000000 0.00147683 0.00000000 0.00836411)
(0.00356799 -0.00238106 0.00000000 0.00167901 0.00000000 0.00836561)
(0.00719948 -0.00187989 0.00000000 0.00065379 0.00000000 0.01072877)
(0.00515174 -0.00355322 0.00000000 0.00262068 0.00000000 0.01075766)
(0.00750318 -0.00309381 0.00000000 0.00172918 0.00000000 0.01294790)
(0.00416526 -0.00298249 0.00000000 0.00219099 0.00000000 0.00856047)
(0.00629652 -0.00272049 0.00000000 0.00146350 0.00000000 0.01173557)
(0.00552776 -0.00274592 0.00000000 0.00165624 0.00000000 0.00755986)
(0.00594685 -0.00272093 0.00000000 0.00148456 0.00000000 0.01149851)
(0.00607901 -0.00285088 0.00000000 0.00165351 0.00000000 0.00673255)
(0.00562724 -0.00258370 0.00000000 0.00135238 0.00000000 0.00995634)
(0.00495157 -0.00224321 0.00000000 0.00124141 0.00000000 0.00517991)
(0.00584086 -0.00338236 0.00000000 0.00210250 0.00000000 0.00915264)
(0.00642007 -0.00272765 0.00000000 0.00138927 0.00000000 0.00831258)
(0.00759429 -0.00256256 0.00000000 0.00108065 0.00000000 0.00792211)
(0.00616255 -0.00345068 0.00000000 0.00208005 0.00000000 0.00795280)
(0.00787885 -0.00406479 0.00000000 0.00232252 0.00000000 0.01102211)
(0.00738101 -0.00257621 0.00000000 0.00108611 0.00000000 0.00894512)
(0.00595523 -0.00336453 0.00000000 0.00200329 0.00000000 0.00676377)
(0.00760952 -0.00319012 0.00000000 0.00156569 0.00000000 0.01044778)
(0.00898080 -0.00335641 0.00000000 0.00156193 0.00000000 0.00901896)
(0.00844401 -0.00264608 0.00000000 0.00104775 0.00000000 0.00857414)
(0.00900445 -0.00266073 0.00000000 0.00102029 0.00000000 0.01094299)
(0.00913398 -0.00313410 0.00000000 0.00128517 0.00000000 0.01029009)
(0.01178803 -0.00364244 0.00000000 0.00149710 0.00000000 0.01462481)
(0.01221557 -0.00370626 0.00000000 0.00150954 0.00000000 0.01558158)
(0.01101821 -0.00250382 0.00000000 0.00089894 0.00000000 0.01350488)
(0.01186610 -0.00279314 0.00000000 0.00112506 0.00000000 0.01703718)
(0.01221223 -0.00218108 0.00000000 0.00088227 0.00000000 0.01836542)
(0.01429770 -0.00286426 0.00000000 0.00107879 0.00000000 0.01808870)
(0.01428414 -0.00183463 0.00000000 0.00100560 0.00000000 0.02325045)
(0.01599269 -0.00147771 0.00000000 0.00112483 0.00000000 0.02646047)
(0.01707416 -0.00009647 0.00000000 0.00048907 0.00000000 0.02200588)
(0.01554693 -0.00002459 0.00000000 0.00028887 0.00000000 0.01934425)
(0.01605258 -0.00000949 0.00000000 0.00027599 0.00000000 0.01973490)
(0.01646782 -0.00000557 0.00000000 0.00027493 0.00000000 0.02042562)
(0.01675792 -0.00001676 0.00000000 0.00027846 0.00000000 0.02096089)
(0.01698939 -0.00002267 0.00000000 0.00027085 0.00000000 0.02140771)
(0.01723778 -0.00004489 0.00000000 0.00028573 0.00000000 0.02186566)
(0.01773672 -0.00005772 0.00000000 0.00028218 0.00000000 0.02226942)
(0.01803427 -0.00006680 0.00000000 0.00029217 0.00000000 0.02247335)
(0.01805741 -0.00006400 0.00000000 0.00027337 0.00000000 0.02267283)
(0.01796335 -0.00008087 0.00000000 0.00029619 0.00000000 0.02268452)
(0.01803026 -0.00009130 0.00000000 0.00027303 0.00000000 0.02244735)
(0.01755094 -0.00009160 0.00000000 0.00026101 0.00000000 0.02209880)
(0.01737668 -0.00011331 0.00000000 0.00026651 0.00000000 0.02180578)
(0.01743438 -0.00012649 0.00000000 0.00027595 0.00000000 0.02141989)
(0.01711485 -0.00012156 0.00000000 0.00025294 0.00000000 0.02089218)
(0.01687640 -0.00012420 0.00000000 0.00023559 0.00000000 0.02034109)
(0.01655860 -0.00012448 0.00000000 0.00022427 0.00000000 0.01970455)
(0.01629553 -0.00012725 0.00000000 0.00021948 0.00000000 0.01924091)
(0.01609327 -0.00013383 0.00000000 0.00023485 0.00000000 0.01895318)
(0.01568427 -0.00013477 0.00000000 0.00020353 0.00000000 0.01845171)
(0.01530807 -0.00013128 0.00000000 0.00019828 0.00000000 0.01793840)
(0.01487213 -0.00013938 0.00000000 0.00019111 0.00000000 0.01735298)
(0.01452096 -0.00013554 0.00000000 0.00018256 0.00000000 0.01680696)
(0.01423558 -0.00014087 0.00000000 0.00017601 0.00000000 0.01637833)
(0.01383795 -0.00013252 0.00000000 0.00016515 0.00000000 0.01586436)
(0.01325501 -0.00013279 0.00000000 0.00016056 0.00000000 0.01546181)
(0.01280537 -0.00013622 0.00000000 0.00015638 0.00000000 0.01513573)
(0.01241918 -0.00013080 0.00000000 0.00015426 0.00000000 0.01482841)
(0.01200523 -0.00013248 0.00000000 0.00014595 0.00000000 0.01462764)
(0.01140086 -0.00012412 0.00000000 0.00014040 0.00000000 0.01440246)
(0.01064205 -0.00011746 0.00000000 0.00013544 0.00000000 0.01408563)
(0.01018171 -0.00011899 0.00000000 0.00014433 0.00000000 0.01436751)
(0.01140140 -0.00015235 0.00000000 0.00025275 0.00000000 0.01799074)
(0.01141160 0.00212926 0.00000000 0.00081883 0.00000000 0.02116912)
(0.01047235 0.00198117 0.00000000 0.00067997 0.00000000 0.01900357)
(0.00949007 0.00106862 0.00000000 0.00032167 0.00000000 0.01753929)
(0.00768807 0.00159317 0.00000000 0.00047881 0.00000000 0.01458825)
(0.00654440 0.00138467 0.00000000 0.00043977 0.00000000 0.01460626)
(0.00525465 0.00128037 0.00000000 0.00046026 0.00000000 0.01334462)
(0.00641904 0.00164649 0.00000000 0.00054803 0.00000000 0.01472169)
(0.00585726 0.00158432 0.00000000 0.00056565 0.00000000 0.01400344)
(0.00358420 0.00068469 0.00000000 0.00016450 0.00000000 0.01015296)
(0.00311761 0.00116086 0.00000000 0.00049512 0.00000000 0.01313087)
(0.00249030 0.00091969 0.00000000 0.00038520 0.00000000 0.01009568)
(0.00325405 0.00099774 0.00000000 0.00035108 0.00000000 0.01073214)
(0.00119694 0.00079574 0.00000000 0.00047647 0.00000000 0.00611827)
(0.00126920 0.00037925 0.00000000 0.00011943 0.00000000 0.00246290)
(0.00259948 0.00091558 0.00000000 0.00034823 0.00000000 0.01078777)
(0.00100210 0.00069496 0.00000000 0.00044264 0.00000000 0.00458899)
(0.00037859 0.00037239 0.00000000 0.00025698 0.00000000 0.00153322)
(0.00095300 0.00042092 0.00000000 0.00021201 0.00000000 0.00749845)
(0.00170181 0.00058507 0.00000000 0.00020368 0.00000000 0.00750360)
(0.00012628 0.00019594 0.00000000 0.00014870 0.00000000 0.00155279)
(-0.00007072 -0.00011584 0.00000000 -0.00009565 0.00000000 0.00131490)
(-0.00013829 0.00003916 0.00000000 0.00007267 0.00000000 0.00226254)
(0.00010751 -0.00003787 0.00000000 -0.00006109 0.00000000 0.00165242)
(-0.00013175 0.00010026 0.00000000 0.00012578 0.00000000 0.00262856)
(0.00007438 -0.00004609 0.00000000 -0.00006144 0.00000000 0.00137190)
(-0.00000268 0.00010767 0.00000000 0.00011793 0.00000000 0.00335279)
(0.00000734 0.00014179 0.00000000 0.00013563 0.00000000 0.00059124)
(0.00116250 0.00041003 0.00000000 0.00016202 0.00000000 0.00677613)
(0.00027749 0.00018490 0.00000000 0.00012155 0.00000000 0.00115482)
(-0.00090329 -0.00024541 0.00000000 -0.00002431 0.00000000 0.00229979)
(-0.00089398 -0.00009783 0.00000000 0.00006542 0.00000000 -0.00096066)
(0.00023890 -0.00003308 0.00000000 -0.00003885 0.00000000 0.00094281)
(0.00067069 0.00010135 0.00000000 0.00006636 0.00000000 0.00399320)
(-0.00143723 0.00005198 0.00000000 0.00023827 0.00000000 0.00039431)
(-0.00068555 0.00026518 0.00000000 0.00034432 0.00000000 0.00125381)
(-0.00034642 -0.00008003 0.00000000 -0.00002021 0.00000000 -0.00025201)
(0.00066693 0.00072881 0.00000000 0.00050270 0.00000000 0.00328384)
(0.00461413 -0.00010131 0.00000000 0.00000727 0.00000000 0.00215383)
(0.00428288 0.00045393 0.00000000 0.00002454 0.00000000 0.00112837)
(0.00681296 0.00003036 0.00000000 0.00001796 0.00000000 0.00311375)
(0.01200121 -0.00013300 0.00000000 0.00003591 0.00000000 0.00555459)
(0.01446888 -0.00021180 0.00000000 0.00004958 0.00000000 0.00670919)
(0.01580645 -0.00025493 0.00000000 0.00006404 0.00000000 0.00753741)
(0.02449830 -0.00057381 0.00000000 0.00018121 0.00000000 0.01146721)
(0.02507371 -0.00064706 0.00000000 0.00021159 0.00000000 0.01234686)
(0.02431072 -0.00066545 0.00000000 0.00020688 0.00000000 0.01226596)
(0.01844362 -0.00043702 0.00000000 0.00009937 0.00000000 0.00879066)
(0.00973516 -0.00137605 0.00000000 0.00030811 0.00000000 0.00379055)
(0.00715015 -0.00040897 0.00000000 -0.00000058 0.00000000 0.00265567)
(0.00462044 -0.00082314 0.00000000 0.00034541 0.00000000 0.00691122)
(0.00233565 -0.00116663 0.00000000 0.00076278 0.00000000 0.00578076)
(0.00537924 -0.00090515 0.00000000 0.00034646 0.00000000 0.00777152)
(0.00667091 -0.00138635 0.00000000 0.00076771 0.00000000 0.01036998)
(0.01033186 -0.00284213 0.00000000 0.00150899 0.00000000 0.01424579)
(0.00950547 -0.00500982 0.00000000 0.00275454 0.00000000 0.01397980)
(0.00610508 -0.00403894 0.00000000 0.00296850 0.00000000 0.01258442)
(0.01151578 -0.00392395 0.00000000 0.00201567 0.00000000 0.01699850)
(0.00994903 -0.00645756 0.00000000 0.00472227 0.00000000 0.01756399)
(0.01235425 -0.00590302 0.00000000 0.00373195 0.00000000 0.01966731)
(0.00959840 -0.00617919 0.00000000 0.00436147 0.00000000 0.01596158)
(0.01236985 -0.00558645 0.00000000 0.00318899 0.00000000 0.01933546)
(0.01251472 -0.00629367 0.00000000 0.00379584 0.00000000 0.01478016)
(0.01205965 -0.00555684 0.00000000 0.00317016 0.00000000 0.01903589)
(0.01372723 -0.00715407 0.00000000 0.00441633 0.00000000 0.01448836)
(0.01217026 -0.00555118 0.00000000 0.00304586 0.00000000 0.01718525)
(0.01239555 -0.00606693 0.00000000 0.00356347 0.00000000 0.01235848)
(0.01250622 -0.00682215 0.00000000 0.00424074 0.00000000 0.01668067)
(0.01305073 -0.00592371 0.00000000 0.00326243 0.00000000 0.01548153)
(0.01516439 -0.00667592 0.00000000 0.00364695 0.00000000 0.01570347)
(0.01406996 -0.00781914 0.00000000 0.00479920 0.00000000 0.01501351)
(0.01413807 -0.00706900 0.00000000 0.00418400 0.00000000 0.01747189)
(0.01509679 -0.00632241 0.00000000 0.00327615 0.00000000 0.01625106)
(0.01506904 -0.00815169 0.00000000 0.00484291 0.00000000 0.01465263)
(0.01505443 -0.00655118 0.00000000 0.00350248 0.00000000 0.01714204)
(0.01698838 -0.00663568 0.00000000 0.00339739 0.00000000 0.01708048)
(0.01742782 -0.00655685 0.00000000 0.00316535 0.00000000 0.01755162)
(0.01728231 -0.00568541 0.00000000 0.00260402 0.00000000 0.01890501)
(0.01918412 -0.00631765 0.00000000 0.00289220 0.00000000 0.01949775)
(0.02042482 -0.00591266 0.00000000 0.00282494 0.00000000 0.02243393)
(0.02079990 -0.00561247 0.00000000 0.00264232 0.00000000 0.02321778)
(0.02079510 -0.00477723 0.00000000 0.00211973 0.00000000 0.02355178)
(0.02135871 -0.00451474 0.00000000 0.00211635 0.00000000 0.02553160)
(0.02162122 -0.00359229 0.00000000 0.00184343 0.00000000 0.02662580)
(0.02323143 -0.00383176 0.00000000 0.00215192 0.00000000 0.02962857)
(0.02314057 -0.00286725 0.00000000 0.00195363 0.00000000 0.03215745)
(0.02387423 -0.00260365 0.00000000 0.00216235 0.00000000 0.03554359)
(0.02586558 -0.00042773 0.00000000 0.00165559 0.00000000 0.03465994)
(0.02611787 -0.00026235 0.00000000 0.00137738 0.00000000 0.03389286)
(0.02726093 -0.00023354 0.00000000 0.00139191 0.00000000 0.03490545)
(0.02822314 -0.00021934 0.00000000 0.00139764 0.00000000 0.03608624)
(0.02885591 -0.00025036 0.00000000 0.00142210 0.00000000 0.03702865)
(0.02947190 -0.00027337 0.00000000 0.00143029 0.00000000 0.03790177)
(0.03010110 -0.00032675 0.00000000 0.00144084 0.00000000 0.03869272)
(0.03092110 -0.00036597 0.00000000 0.00144305 0.00000000 0.03939396)
(0.03149147 -0.00037445 0.00000000 0.00144252 0.00000000 0.03975573)
(0.03173649 -0.00037582 0.00000000 0.00143746 0.00000000 0.04015217)
(0.03192368 -0.00039901 0.00000000 0.00142759 0.00000000 0.04033508)
(0.03213367 -0.00042936 0.00000000 0.00139393 0.00000000 0.04015909)
(0.03171767 -0.00042541 0.00000000 0.00134718 0.00000000 0.03979326)
(0.03148205 -0.00046954 0.00000000 0.00132353 0.00000000 0.03905096)
(0.03168216 -0.00048492 0.00000000 0.00128653 0.00000000 0.03850198)
(0.03131546 -0.00048185 0.00000000 0.00125775 0.00000000 0.03778218)
(0.03125768 -0.00049700 0.00000000 0.00122576 0.00000000 0.03717185)
(0.03091439 -0.00049145 0.00000000 0.00118196 0.00000000 0.03613050)
(0.03058486 -0.00049318 0.00000000 0.00113365 0.00000000 0.03541999)
(0.03018582 -0.00049070 0.00000000 0.00110866 0.00000000 0.03470449)
(0.02973755 -0.00051380 0.00000000 0.00106531 0.00000000 0.03406456)
(0.02925045 -0.00050197 0.00000000 0.00104996 0.00000000 0.03318992)
(0.02877272 -0.00052283 0.00000000 0.00101112 0.00000000 0.03226090)
(0.02817301 -0.00051464 0.00000000 0.00097977 0.00000000 0.03128233)
(0.02779282 -0.00052984 0.00000000 0.00094075 0.00000000 0.03063231)
(0.02714587 -0.00050502 0.00000000 0.00091396 0.00000000 0.02984818)
(0.02622760 -0.00049485 0.00000000 0.00085737 0.00000000 0.02926548)
(0.02548674 -0.00051569 0.00000000 0.00084133 0.00000000 0.02869505)
(0.02484929 -0.00049535 0.00000000 0.00080585 0.00000000 0.02829338)
(0.02401903 -0.00049804 0.00000000 0.00078442 0.00000000 0.02786528)
(0.02294529 -0.00046826 0.00000000 0.00075189 0.00000000 0.02757123)
(0.02159466 -0.00045026 0.00000000 0.00072839 0.00000000 0.02713906)
(0.02037808 -0.00043218 0.00000000 0.00073048 0.00000000 0.02727222)
(0.02031963 -0.00040371 0.00000000 0.00089947 0.00000000 0.03044247)
(0.02020597 0.00158970 0.00000000 0.00121273 0.00000000 0.03407743)
(0.02011307 0.00219952 0.00000000 0.00117964 0.00000000 0.03378667)
(0.01906222 0.00233687 0.00000000 0.00105448 0.00000000 0.03404139)
(0.01844056 0.00292674 0.00000000 0.00117723 0.00000000 0.03296394)
(0.01654430 0.00325157 0.00000000 0.00126101 0.00000000 0.03326155)
(0.01555917 0.00377891 0.00000000 0.00148301 0.00000000 0.03140838)
(0.01610726 0.00367799 0.00000000 0.00144264 0.00000000 0.03338169)
(0.01528122 0.00420202 0.00000000 0.00171100 0.00000000 0.03341927)
(0.01268190 0.00367046 0.00000000 0.00143977 0.00000000 0.03044473)
(0.01114776 0.00381618 0.00000000 0.00170259 0.00000000 0.03139100)
(0.01071746 0.00367083 0.00000000 0.00155870 0.00000000 0.02939601)
(0.01112772 0.00384117 0.00000000 0.00162182 0.00000000 0.03025925)
(0.00870754 0.00414205 0.00000000 0.00218037 0.00000000 0.02537514)
(0.00737890 0.00251908 0.00000000 0.00099367 0.00000000 0.01475783)
(0.00710527 0.00285977 0.00000000 0.00134417 0.00000000 0.02334662)
(0.00665912 0.00361353 0.00000000 0.00207664 0.00000000 0.02035206)
(0.00529402 0.00242085 0.00000000 0.00123498 0.00000000 0.01210760)
(0.00637744 0.00231681 0.00000000 0.00098874 0.00000000 0.02321308)
(0.00432025 0.00172432 0.00000000 0.00078031 0.00000000 0.01648213)
(0.00248104 0.00165577 0.00000000 0.00105379 0.00000000 0.00901602)
(0.00284116 0.00087250 0.00000000 0.00024887 0.00000000 0.00903211)
(0.00185112 0.00113314 0.00000000 0.00069537 0.00000000 0.00924922)
(0.00314694 0.00097364 0.00000000 0.00028092 0.00000000 0.00970304)
(0.00153683 0.00100095 0.00000000 0.00064597 0.00000000 0.00991013)
(0.00177063 0.00044204 0.00000000 0.00006200 0.00000000 0.00723121)
(0.00123526 0.00079842 0.00000000 0.00053098 0.00000000 0.00959310)
(0.00086673 0.00092367 0.00000000 0.00071602 0.00000000 0.00448516)
(0.00323080 0.00114464 0.00000000 0.00046098 0.00000000 0.01441043)
(0.00128454 0.00091474 0.00000000 0.00063314 0.00000000 0.00531375)
(0.00167999 0.00068144 0.00000000 0.00032645 0.00000000 0.00956192)
(-0.00014377 0.00019862 0.00000000 0.00019988 0.00000000 0.00060322)
(0.00163709 0.00022866 0.00000000 -0.00000234 0.00000000 0.00452290)
(0.00148810 0.00054901 0.00000000 0.00032025 0.00000000 0.00709138)
(0.00021058 0.00065238 0.00000000 0.00047381 0.00000000 0.00280949)
(0.00038399 0.00091607 0.00000000 0.00069118 0.00000000 0.00353284)
(0.00355667 0.00092982 0.00000000 0.00025524 0.00000000 0.00251013)
(0.00459268 0.00165823 0.00000000 0.00075862 0.00000000 0.00627750)
(0.00904600 -0.00023228 0.00000000 0.00001172 0.00000000 0.00445901)
(0.01081434 0.00122663 0.00000000 0.00012384 0.00000000 0.00343863)
(0.01137856 0.00005080 0.00000000 0.00003826 0.00000000 0.00494010)
(0.01878675 -0.00026934 0.00000000 0.00007676 0.00000000 0.00792702)
(0.02165977 -0.00041393 0.00000000 0.00011015 0.00000000 0.00926117)
(0.02307649 -0.00048223 0.00000000 0.00013797 0.00000000 0.01030321)
(0.03329208 -0.00092746 0.00000000 0.00031168 0.00000000 0.01491206)
(0.03333935 -0.00104021 0.00000000 0.00036777 0.00000000 0.01584643)
(0.03307560 -0.00110941 0.00000000 0.00037833 0.00000000 0.01618527)
(0.02572218 -0.00080053 0.00000000 0.00021951 0.00000000 0.01213079)
(0.01673933 -0.00221660 0.00000000 0.00045741 0.00000000 0.00548075)
(0.01220574 -0.00084521 0.00000000 0.00006139 0.00000000 0.00441237)
(0.00789207 -0.00154645 0.00000000 0.00064134 0.00000000 0.00872345)
(0.00462553 -0.00196529 0.00000000 0.00119118 0.00000000 0.00811170)
(0.00719076 -0.00158395 0.00000000 0.00090523 0.00000000 0.01090495)
(0.00955669 -0.00275200 0.00000000 0.00181666 0.00000000 0.01508136)
(0.01430370 -0.00453899 0.00000000 0.00279642 0.00000000 0.01968340)
(0.01511646 -0.00736211 0.00000000 0.00416097 0.00000000 0.01982867)
(0.01004275 -0.00634068 0.00000000 0.00484389 0.00000000 0.01755280)
(0.01664324 -0.00674136 0.00000000 0.00407794 0.00000000 0.02446876)
(0.01578239 -0.00985673 0.00000000 0.00726816 0.00000000 0.02551441)
(0.01820881 -0.00878580 0.00000000 0.00569656 0.00000000 0.02756049)
(0.01599191 -0.00981266 0.00000000 0.00697649 0.00000000 0.02399350)
(0.01801490 -0.00875882 0.00000000 0.00555382 0.00000000 0.02628218)
(0.01958387 -0.01015978 0.00000000 0.00646275 0.00000000 0.02262754)
(0.01788412 -0.00866772 0.00000000 0.00544270 0.00000000 0.02537379)
(0.01949700 -0.00931797 0.00000000 0.00593565 0.00000000 0.02127577)
(0.01877976 -0.00872903 0.00000000 0.00525177 0.00000000 0.02346572)
(0.01885594 -0.00868080 0.00000000 0.00529464 0.00000000 0.01933287)
(0.01887291 -0.00977978 0.00000000 0.00625769 0.00000000 0.02296889)
(0.01979783 -0.00943040 0.00000000 0.00570391 0.00000000 0.02138600)
(0.02186761 -0.01022224 0.00000000 0.00617785 0.00000000 0.02217725)
(0.02103795 -0.01087722 0.00000000 0.00683166 0.00000000 0.02099178)
(0.01959351 -0.00962271 0.00000000 0.00607388 0.00000000 0.02177106)
(0.02163440 -0.00959729 0.00000000 0.00564115 0.00000000 0.02134759)
(0.02250640 -0.01070646 0.00000000 0.00641618 0.00000000 0.02122514)
(0.02139350 -0.00934783 0.00000000 0.00551487 0.00000000 0.02214406)
(0.02330190 -0.00930168 0.00000000 0.00534664 0.00000000 0.02331238)
(0.02372427 -0.00928390 0.00000000 0.00516193 0.00000000 0.02316268)
(0.02388440 -0.00843179 0.00000000 0.00458654 0.00000000 0.02397830)
(0.02500219 -0.00813188 0.00000000 0.00449736 0.00000000 0.02586918)
(0.02552911 -0.00744337 0.00000000 0.00437080 0.00000000 0.02757551)
(0.02659205 -0.00695397 0.00000000 0.00408761 0.00000000 0.02900399)
(0.02710628 -0.00632973 0.00000000 0.00363721 0.00000000 0.02969200)
(0.02750379 -0.00571808 0.00000000 0.00359507 0.00000000 0.03227780)
(0.02827339 -0.00489140 0.00000000 0.00338650 0.00000000 0.03348592)
(0.02840935 -0.00441864 0.00000000 0.00360429 0.00000000 0.03656176)
(0.02916816 -0.00357019 0.00000000 0.00354860 0.00000000 0.03935275)
(0.02951954 -0.00289683 0.00000000 0.00383907 0.00000000 0.04271618)
(0.03155366 -0.00091184 0.00000000 0.00334680 0.00000000 0.04310732)
(0.03294181 -0.00071915 0.00000000 0.00303886 0.00000000 0.04378842)
(0.03464127 -0.00069042 0.00000000 0.00308951 0.00000000 0.04547977)
(0.03582745 -0.00067731 0.00000000 0.00314212 0.00000000 0.04674880)
(0.03688597 -0.00070895 0.00000000 0.00317270 0.00000000 0.04812070)
(0.03775363 -0.00075623 0.00000000 0.00319795 0.00000000 0.04919035)
(0.03862188 -0.00083142 0.00000000 0.00323421 0.00000000 0.05012504)
(0.03972624 -0.00089066 0.00000000 0.00323074 0.00000000 0.05114129)
(0.04058877 -0.00088851 0.00000000 0.00322576 0.00000000 0.05174357)
(0.04114990 -0.00087265 0.00000000 0.00321339 0.00000000 0.05231623)
(0.04139745 -0.00091070 0.00000000 0.00321628 0.00000000 0.05238880)
(0.04177853 -0.00093480 0.00000000 0.00313247 0.00000000 0.05243879)
(0.04156641 -0.00091389 0.00000000 0.00303259 0.00000000 0.05221434)
(0.04150260 -0.00096833 0.00000000 0.00298106 0.00000000 0.05132624)
(0.04174319 -0.00098251 0.00000000 0.00291942 0.00000000 0.05061740)
(0.04149973 -0.00096995 0.00000000 0.00285614 0.00000000 0.04992340)
(0.04151970 -0.00098709 0.00000000 0.00279787 0.00000000 0.04923947)
(0.04134850 -0.00096056 0.00000000 0.00269833 0.00000000 0.04814099)
(0.04101056 -0.00095961 0.00000000 0.00261137 0.00000000 0.04722666)
(0.04068511 -0.00095836 0.00000000 0.00254938 0.00000000 0.04629634)
(0.04025050 -0.00098364 0.00000000 0.00246055 0.00000000 0.04557343)