/*--------------------------------*- C++ -*----------------------------------*\
| =========                 |                                                 |
| \\      /  F ield         | OpenFOAM: The Open Source CFD Toolbox           |
|  \\    /   O peration     | Version:  2.4.0                                 |
|   \\  /    A nd           | Web:      www.OpenFOAM.org                      |
|    \\/     M anipulation  |                                                 |
\*---------------------------------------------------------------------------*/
FoamFile
{
    version     2.0;
    format      ascii;
    class       volScalarField;
    location    "0";
    object      k_LES;
}
// * * * * * * * * * * * * * * * * * * * * * * * * * * * * * * * * * * * * * //

dimensions      [0 2 -2 0 0 0 0];

internalField   nonuniform List<scalar> 
15600
(
0.00365386186206383 
0.0037838236765265426 
0.0012134831361038027 
0.0004351412612228772 
0.0006530925942609594 
0.0010557116297069706 
0.000982363477517022 
0.0006084851301613479 
0.0005962871529333273 
0.0005728266729071578 
0.0003695822849894567 
0.00031451290977895917 
0.00042702127928070347 
0.0004310118271092363 
0.00038129854185832716 
0.00031265107828541894 
0.00035197392893658775 
0.0006838593836377405 
0.0007688689123998394 
0.0012332997747076632 
0.0014217488076580993 
0.0018079012754707293 
0.0020691240175339577 
0.0023848593906449634 
0.0024839211623995925 
0.0027834113640256455 
0.0027653265607117624 
0.002912263733011832 
0.003011006645812501 
0.0035040979724001668 
0.0037083547073641183 
0.00401174446014115 
0.004326974643814225 
0.004801921221424867 
0.005111169977420929 
0.00525134987206834 
0.005271640835267484 
0.0054161057495869915 
0.005576569449101916 
0.005791883502702419 
0.005710682127568151 
0.006039304395143283 
0.005785908965603177 
0.005916397787975488 
0.005849794520145606 
0.005879600127638609 
0.006128657701121936 
0.006513293369764431 
0.005859938708416988 
0.005769918628874857 
0.005953505983759457 
0.006163661452568368 
0.005470507217047808 
0.0053861478852028554 
0.005385459347623781 
0.005523228980881384 
0.005764443306357277 
0.005325299461662013 
0.005556854337580198 
0.005473479495858465 
0.005388543047647154 
0.00570670205265944 
0.005295002574013416 
0.004657819761040763 
0.0050825501554479366 
0.005642903597537426 
0.005606131302471066 
0.005656676613890987 
0.004085776752526641 
0.004551722423233163 
0.005227365997537638 
0.005139901714955101 
0.0036899508072637402 
0.004427251200703832 
0.0049511008239312895 
0.003466449523945312 
0.004412560010168818 
0.0044780945178716095 
0.0039228625194841485 
0.004416311206982724 
0.004025235832169827 
0.003048430050706192 
0.004171058776608441 
0.003978645423617471 
0.003436156544065018 
0.003219714500437074 
0.0032967355463172396 
0.0037158562444825054 
0.002888288870243707 
0.003339219677917819 
0.0027480311284805202 
0.002775178796531628 
0.0035496221811905635 
0.004097590037793256 
0.0045570075865467175 
0.004790244532816118 
0.00487571781790439 
0.004831659967722977 
0.004643962317745598 
0.0040525875408106 
0.00391903284276 
0.00351886343838132 
0.002515531331240006 
0.0016132577279605435 
0.0013122237697515983 
0.0015951239553858446 
0.0017810392851273036 
0.0016919702961885343 
0.0011690966743489058 
0.001297577570194942 
0.0019191181303437463 
0.0019170356749279947 
0.001809090973611352 
0.0025821876350613938 
0.0026948758514316797 
0.0015248416915715798 
0.0008399654448538287 
0.0010584996624909578 
0.0016157207703826498 
0.0023109279074086052 
0.017209628204367854 
0.019331665817730975 
0.012387401032194868 
0.007311155250596847 
0.0066908241456808465 
0.006708300710264747 
0.006782674356670121 
0.005949272213802136 
0.005358403097858734 
0.004910190633247145 
0.004287511301533027 
0.003964194905987123 
0.0038159675447963456 
0.00372212787463189 
0.0037666834183209806 
0.003872324252246799 
0.004035743384019739 
0.004528817314363596 
0.00496973786652351 
0.00549110492929487 
0.006092488984989913 
0.006809926827824213 
0.007461128775437285 
0.008157735738999038 
0.00883761803915115 
0.009510574282624962 
0.009983207948645614 
0.010525718906880291 
0.011601211956059499 
0.013095478335848572 
0.014319827475873093 
0.015575495052880549 
0.016465747805406505 
0.017375645463343203 
0.018192556457476826 
0.018882347356878083 
0.01960828330115299 
0.020342943101042805 
0.020913115319227838 
0.02112415676076687 
0.021613451733252804 
0.02162654298269251 
0.021958278901050805 
0.021969704586793204 
0.022346681183333824 
0.022552405211544342 
0.022745738018112985 
0.02302885035668291 
0.02285034999782222 
0.022606504730863685 
0.022255519152260823 
0.022238076635604714 
0.022031982441610212 
0.021761931314673015 
0.02156993337061265 
0.021329551385145945 
0.021172439941367548 
0.020838925950681927 
0.02050282360381046 
0.020303184055234683 
0.020102218640346153 
0.019779006442911265 
0.019390765745665353 
0.01896144735601219 
0.018742468885709424 
0.018466203275549792 
0.01824753722897342 
0.01796348516840121 
0.017511612041837592 
0.016991101477431547 
0.01659292728464993 
0.016363745066612853 
0.016097700596505705 
0.015729595810225813 
0.015570511624628983 
0.015312048810318479 
0.014878683451287272 
0.014733896547433043 
0.014392690588249093 
0.014208160828524944 
0.013945728026475701 
0.013857504319065354 
0.013525636701854277 
0.013085548287563486 
0.012713675101930288 
0.01241228187846757 
0.01206951031487656 
0.011792965112472567 
0.011594759882888633 
0.01124919314529773 
0.010973297204513371 
0.010833326935469578 
0.01161652035146605 
0.013137967419253663 
0.014730066727124881 
0.015556772627005305 
0.01624621541253491 
0.016622309945545043 
0.016802490946101666 
0.016796760426718554 
0.016787652113222924 
0.01639230982183164 
0.01628847958219328 
0.015541340442999088 
0.015420104184192603 
0.015192621498583128 
0.015180550665006403 
0.015079499499344201 
0.01521355626089686 
0.01563572477600264 
0.017214447069986757 
0.01794392732140541 
0.018712060620560318 
0.01965294052653906 
0.019211101242287223 
0.018129479565491533 
0.01618767449422158 
0.014967717282991217 
0.011391624571355645 
0.012311862247322738 
0.032930232772142236 
0.03653894350766819 
0.027468310351140758 
0.01627590038741064 
0.013161498437323274 
0.012368055982356336 
0.011050868625907016 
0.010101441431331203 
0.009290563011711075 
0.008724016195865908 
0.008207335811852477 
0.008000967601749592 
0.00793760309270365 
0.007947590787614514 
0.008097048083542571 
0.008414708563190855 
0.008604479775737497 
0.00924562582947756 
0.009612171561202417 
0.010177426728216366 
0.010763793133517066 
0.01143255944841432 
0.012096443781764502 
0.01280073961179621 
0.013523583387391513 
0.014132338735032793 
0.014733457210466313 
0.01569935380814 
0.017442621280148635 
0.019279640731379076 
0.020868404908286287 
0.022241708009674392 
0.02348793696936874 
0.024747287675934718 
0.02577452189852883 
0.02674450081144321 
0.027672013230562273 
0.028466779080904645 
0.029287572129714997 
0.029879349433756263 
0.030219474193772126 
0.030587904477043033 
0.030834958368926968 
0.031231758442939257 
0.03153422550359832 
0.03201094840715886 
0.032501438972838845 
0.03275239264586526 
0.032598203082845965 
0.03256775517061448 
0.0320699492002042 
0.03187866788781863 
0.03170491866878637 
0.03133563741710197 
0.031154513680297764 
0.030953435480205415 
0.03080229135671543 
0.030354751378221127 
0.029934520851700244 
0.029713136253942216 
0.02951648356646549 
0.02911241397237844 
0.028657247457954158 
0.0281212553541473 
0.02781834143527374 
0.02746365050033128 
0.027206697111835716 
0.026877831689594664 
0.02638770076368724 
0.025849799155432444 
0.0253766530072834 
0.024921810865040125 
0.024610634898208847 
0.02429553716407811 
0.023985666481414765 
0.023595863277292874 
0.023179833606064935 
0.022899697742220525 
0.022626147763044207 
0.022255871965221823 
0.02204596758541417 
0.021841183156647487 
0.021373267604591836 
0.020917924654830687 
0.020480646879210588 
0.02006614760021216 
0.019620713578661464 
0.019198219813133646 
0.018943374163659796 
0.018532309831393638 
0.018088004086541962 
0.017868068311441995 
0.01835731517131389 
0.020102916858807048 
0.022301908807101114 
0.024154207694329244 
0.025585066280831695 
0.026636816359454585 
0.02749432940385892 
0.028209763888935657 
0.028907947362999998 
0.029169815410382927 
0.029984320188365415 
0.029469283003267104 
0.030146539361150707 
0.02996588366546564 
0.030100116861560756 
0.029814435379404005 
0.02955211436583844 
0.028901627129099723 
0.029633846702844285 
0.030040657478903346 
0.030911988283794455 
0.031615628685648205 
0.034813278839790074 
0.03715047539092436 
0.035452996463448946 
0.03425673844191968 
0.02840163668051822 
0.027496415462487933 
0.047386592898797056 
0.050764575915219864 
0.0418133459513445 
0.025921687518826363 
0.0181121277451214 
0.01724475031490423 
0.015577200405078066 
0.01404766152616741 
0.012926480280760738 
0.012440547412909179 
0.011718384437853249 
0.011488585547724398 
0.01137437940553485 
0.011433226759597567 
0.01169297459664028 
0.012120549474436049 
0.01222044821018805 
0.012787490599612972 
0.012999855524297723 
0.013424065745998852 
0.013754359933423811 
0.014184305190408614 
0.014792437106210051 
0.015430109540430656 
0.016119529640291903 
0.01681320652919211 
0.017592870135782215 
0.0188294264176833 
0.020814588099315606 
0.02274937910360985 
0.024401581773476018 
0.02592683396909651 
0.027327201353384917 
0.02867283593557616 
0.0297905303436336 
0.030874453907091162 
0.031937056185499066 
0.03288004665433464 
0.03374204709505708 
0.034449921771805184 
0.034892484899006176 
0.0353254464664397 
0.03571584322099089 
0.03617291243663365 
0.036495776004255714 
0.037117426242993676 
0.03767884889281755 
0.03806005945017327 
0.03788851369383839 
0.03786988214893608 
0.037341293481206454 
0.03716256581285984 
0.037045477123539616 
0.036615471756159576 
0.036457701050838495 
0.036311469676092556 
0.036165535077482075 
0.035689664632268955 
0.03523940237535586 
0.035017891778402796 
0.03484807574338741 
0.03442099625887788 
0.03396177602613859 
0.03339458496256983 
0.03303952027249493 
0.03265313449416261 
0.03237628450646926 
0.03202960665387713 
0.031563263817580865 
0.03101192930960041 
0.03053032369402598 
0.030037876531729523 
0.02971753119435467 
0.029400612187299027 
0.02908264279732079 
0.028646813426750992 
0.02828732254803329 
0.02798616643674802 
0.027705037257647527 
0.027349759134124497 
0.0271213785425132 
0.026867522968087296 
0.026482856074970175 
0.025988464892610978 
0.025486018246521393 
0.02503028125772814 
0.02459381938754683 
0.024195018813894645 
0.023911786367832213 
0.023471261923961984 
0.02299059234283231 
0.02277311435957107 
0.02306627506678592 
0.024752915715186646 
0.027046447124990575 
0.029236547556456542 
0.031065666472976535 
0.032527470504505704 
0.0337757089705399 
0.03518443936503515 
0.036598393354158654 
0.03728539884210868 
0.03865827495481222 
0.038382602383912515 
0.039685533240645283 
0.039720641278513595 
0.04007966894827444 
0.04017629714242507 
0.04037507656104615 
0.039946979222896986 
0.040065555655325186 
0.040953668222243333 
0.042388443949173425 
0.044862512249201944 
0.04891089565170395 
0.05077615914143349 
0.04768905029108951 
0.04574759906538317 
0.04469961881749421 
0.04412941124207925 
0.05860185928855694 
0.06096164658883853 
0.05319704756319668 
0.036397547655146995 
0.02260533927288608 
0.020377831044401946 
0.01915616323332238 
0.0176570209183179 
0.01633555986651384 
0.01536358293391146 
0.014489861691648797 
0.014158257083230787 
0.013985605344355386 
0.014053995249412863 
0.01435229096193338 
0.014751112077991117 
0.014786194251344108 
0.015038961786232548 
0.015082435175527077 
0.015353876545170293 
0.015516538588538792 
0.01586126843720393 
0.016304450739528718 
0.016897048882762764 
0.017631122139804965 
0.018454501582817348 
0.01939888677677199 
0.020859876259516297 
0.022906781247584093 
0.024863781200369965 
0.0265744670585922 
0.028171803094255942 
0.029662088931207094 
0.03107734227925496 
0.032255765861119876 
0.033383215289968834 
0.03450694119231035 
0.03549352351858378 
0.036416377204834635 
0.0371663001143001 
0.03767346969697634 
0.03820534776689024 
0.03866704254815133 
0.03915860767343249 
0.03950424766322186 
0.04019448164502641 
0.040815568398341814 
0.04125705322236868 
0.0410777314216674 
0.04107368757258524 
0.040552062215191434 
0.04039281809109656 
0.040326291374941335 
0.039868333559572644 
0.03970475184169775 
0.039575859196315816 
0.03943442959215289 
0.038997161778655545 
0.03855694491011386 
0.03834926054230059 
0.038185202271939306 
0.037756972892196025 
0.03730923636178399 
0.03676297012172803 
0.036355335867722084 
0.03594416102536628 
0.03563909265624375 
0.03527903758693832 
0.034838790372884995 
0.034319594967318755 
0.03384684952244328 
0.03335399525626906 
0.033051999957443075 
0.032741852868896484 
0.0324242920147305 
0.031972953255171695 
0.03162745727747943 
0.03131686398349173 
0.031027477077933505 
0.0306728434524686 
0.030457016091809813 
0.030198665600764202 
0.029843586900378125 
0.02935634199710254 
0.028853690941434976 
0.028406300000947765 
0.027997816437684182 
0.02759329633848135 
0.027305949325159985 
0.026919414211982975 
0.026470944697680285 
0.02631001295483256 
0.02649779036383038 
0.027951263788117884 
0.03011653077524481 
0.03235294744292337 
0.034354340445316926 
0.03606435130998904 
0.0378244408952709 
0.03942511185768091 
0.04116663574848947 
0.04207406001977308 
0.043739282451706704 
0.044168871844107754 
0.04548878123208662 
0.04585563050657146 
0.046443328396711975 
0.04693443365210565 
0.047577711398519594 
0.04787700017832237 
0.049486633915961975 
0.05027800845121902 
0.052493288379573816 
0.05500392222434475 
0.05686470202098703 
0.058521530372677495 
0.05466734527177135 
0.05103895805004112 
0.05385469143245211 
0.05723549167437113 
0.06588758556211767 
0.06757381236015747 
0.0612899707963209 
0.046720339913764945 
0.027637864318873346 
0.02295935947260754 
0.021370774459219873 
0.01994608015145562 
0.01844050916028501 
0.017331159168400966 
0.016541787107564113 
0.016099546197388934 
0.01589699349298026 
0.016023037961943275 
0.01623850313247059 
0.016535289223718976 
0.01649430227937169 
0.016445163108962522 
0.01638191828910939 
0.016511485000903686 
0.01657665723664878 
0.016831211707878185 
0.01723870783599657 
0.01783317488451762 
0.018636662646290332 
0.019571365097338263 
0.020676361103144733 
0.022284992943831933 
0.024362217259909686 
0.026354694609117435 
0.028116782021288103 
0.029770639128842598 
0.03133238884308642 
0.03279670208528662 
0.0340248858379974 
0.035166590279154926 
0.03633689295171788 
0.03734104479004376 
0.03828495784114162 
0.03905188016464767 
0.03960913303330191 
0.04021781503274291 
0.04073390235777251 
0.041248330123851575 
0.041598746808667195 
0.042282177390601916 
0.04295699083603229 
0.043397007265592265 
0.043251393854648046 
0.04327313538652781 
0.04276684297334317 
0.04262587600893127 
0.04257985819453214 
0.042133317993763256 
0.04193796174920948 
0.04177786157692791 
0.04164377201629598 
0.041277332893102654 
0.04087172467791851 
0.04067090450678695 
0.040492432437530694 
0.040075220760260565 
0.03964624901692772 
0.03915766144972225 
0.03869639739188273 
0.03826831651174489 
0.037928006541568776 
0.03755503662657496 
0.03712523333110025 
0.03663749748800938 
0.036175561560080144 
0.03570333798636373 
0.035426385237258336 
0.03512387979865379 
0.034797721166935164 
0.034344506995407906 
0.0340233054335046 
0.03370376745379568 
0.03338568282632901 
0.03303479327142435 
0.03283245879179024 
0.03256688479967584 
0.03224117655997084 
0.031768631349933435 
0.031276996382633704 
0.03084609440401914 
0.030483705154412274 
0.030079701001180337 
0.029769957086840958 
0.029431903963042773 
0.029046752653702716 
0.028952898218357885 
0.029074910994575195 
0.03029373007962575 
0.032270687846605084 
0.03450121417033178 
0.03652581731141864 
0.03836664982740165 
0.040290599736744835 
0.04217176184050171 
0.044062927879118044 
0.045201368855170974 
0.04687831712562229 
0.047915626948577976 
0.04914723362925281 
0.049817992424811365 
0.05070008507004936 
0.05132215333269632 
0.05217989289418086 
0.053119170533335994 
0.05436137877437348 
0.056310036333296495 
0.0583084302853594 
0.06044505911667362 
0.06159228524584526 
0.06306776091966242 
0.05918795919919589 
0.0545114154650401 
0.056645819324677306 
0.06436151017999928 
0.06926466225314096 
0.07124130865599416 
0.06662343124052968 
0.05580566502559372 
0.03347624767249034 
0.025615839562914328 
0.023152047722765218 
0.021472807770586258 
0.020001175169380114 
0.01884868638860173 
0.01804275713149163 
0.01752662631740859 
0.017286405197356015 
0.017379833929859458 
0.017554734624950837 
0.01773035599683896 
0.01761724987508584 
0.017350422490198237 
0.01722111084425463 
0.01722783209322456 
0.01726152748464038 
0.01748510532989486 
0.01789590528551499 
0.018517129103731975 
0.019372223269106405 
0.020420777207808622 
0.02167841335329112 
0.023386453023051 
0.02550218066953558 
0.02753703179482034 
0.029340505076334594 
0.031044868134855963 
0.03267249868722462 
0.03418520524572971 
0.035455913183440046 
0.03660022915160639 
0.03779604549653815 
0.03880800725404661 
0.03976050489695527 
0.040520098563265744 
0.04112384226277939 
0.04178315508136041 
0.04233395956310988 
0.042876903021203575 
0.04320599721105299 
0.043857959664041254 
0.04455359286605499 
0.0449654791166369 
0.044881839939266234 
0.0449240845398394 
0.04445013988497235 
0.04431585387717116 
0.04426616554177824 
0.043848140448724995 
0.04362847418506875 
0.043404215893145116 
0.04326295411088907 
0.042969401988678865 
0.04261235220566467 
0.04240492078384879 
0.042203874115764074 
0.04181160210092305 
0.0414118458942958 
0.040988630289556766 
0.0404834461204709 
0.040042074512479986 
0.039664908044168036 
0.039273886032319516 
0.03884108253030246 
0.038372960769418644 
0.03792600229984406 
0.03748513452806178 
0.03722919834778565 
0.03692699578280078 
0.036586712057666254 
0.03613671068118461 
0.03584915094972002 
0.03552486202659584 
0.03517527762312386 
0.034816455370436386 
0.034618056581595266 
0.034346102795593775 
0.034039822695873 
0.03358160915342451 
0.03310345481145857 
0.032683534383014315 
0.03236981325669962 
0.03198524013784302 
0.03165478653044699 
0.03134534717478319 
0.031014326101663006 
0.03097194954262187 
0.0310662950576288 
0.03208327738536945 
0.03386522393086334 
0.03599645239055149 
0.03803864943907977 
0.039933928367525635 
0.04195932195458366 
0.04397180499271579 
0.045921944754414676 
0.04732198448926876 
0.04896335298012701 
0.05042309986352992 
0.05154017510567348 
0.052467972983027286 
0.05335136504516362 
0.05424861036140648 
0.0552258652686768 
0.05658817848513445 
0.05779788466279895 
0.05990821782585558 
0.06160598858892485 
0.06381582921527985 
0.06474217754798293 
0.06580614562933636 
0.06217933251801539 
0.05749930009920412 
0.05688041609947323 
0.06607308854434102 
0.06966499463272013 
0.07263786059529216 
0.06978504004422367 
0.06300944977642652 
0.03995746521572681 
0.028607423287234236 
0.024837522335675474 
0.02279267761185086 
0.021185052212479794 
0.02004694353600621 
0.019148998714375053 
0.018663776349477693 
0.018334864299373817 
0.018367484503678103 
0.01847077079129278 
0.01852575347354259 
0.01835800027871511 
0.01795426830166582 
0.017780520789700847 
0.01771104147910513 
0.017747947169232614 
0.017965870092847426 
0.018407827710076763 
0.019063929457129467 
0.019975750337447536 
0.021128295728700695 
0.02252339008247308 
0.024323509366061365 
0.026491341660865933 
0.028562279738697703 
0.0303951633995023 
0.032150749341105886 
0.03384491569068071 
0.03540754342186264 
0.03671143982775284 
0.03784849932010424 
0.039060608431849095 
0.0400725012186401 
0.0410351769937621 
0.04176683563243726 
0.04241624821507792 
0.04311414774016602 
0.043671959828117925 
0.044234290831997744 
0.044534804430910555 
0.04515676702181476 
0.04583219546052814 
0.046206709512689376 
0.04619661603956517 
0.046247598700544804 
0.045822926792486965 
0.04568760036140629 
0.0456150924468393 
0.04522122093241619 
0.044985877191018216 
0.044688742749764594 
0.044531443574528234 
0.04429522380833126 
0.04399546950129128 
0.04377120801699441 
0.04354934372188503 
0.043191332138080844 
0.042830157833920454 
0.04246757345143895 
0.041927590844682325 
0.041481428536048415 
0.04106410908007229 
0.04064469928955243 
0.040202664132970266 
0.039743443123624184 
0.039310387400472324 
0.0389014834662879 
0.03866638277771554 
0.03835706080199502 
0.03800499408131998 
0.03756277634222542 
0.03730454935697192 
0.03698369025000174 
0.036611299748507076 
0.03623047731087026 
0.036018201388002685 
0.03574583859693996 
0.03543876515595778 
0.03499760984478483 
0.03453357561142985 
0.03411711740284096 
0.03384151474077895 
0.033493704038081294 
0.03315132724155542 
0.03286029355517247 
0.03256821379090124 
0.0325432275974748 
0.0326278865003226 
0.03349215699172868 
0.03508162775272178 
0.03707901553720031 
0.03907095805587287 
0.041009293872443967 
0.043089081582646516 
0.04519422718979598 
0.04716606514400727 
0.04878041677607767 
0.05040963934389417 
0.052134123652482524 
0.053143895129812574 
0.05428878842899109 
0.05516123917753933 
0.05630450665583739 
0.05744088349110796 
0.058875309018207235 
0.06021693593296184 
0.06218869177055904 
0.06392279330098477 
0.06576533305133389 
0.06674325257984795 
0.067368572324119 
0.06404094618807443 
0.059979727198305105 
0.057083400919670554 
0.0648434402907836 
0.06818017672216488 
0.0723427950179237 
0.07124383837554527 
0.06817401868437202 
0.046863239199320325 
0.03202109107475256 
0.026664164804489195 
0.02403669862538939 
0.022243966575624614 
0.02101199811368265 
0.020024299915409063 
0.01950544755506497 
0.019158524934519278 
0.01910631958898503 
0.01910084341609457 
0.01905365083983481 
0.018848809911332167 
0.018349069552971383 
0.018168233016465526 
0.018062776171090946 
0.01812911357347948 
0.018360653946735195 
0.018846433189730578 
0.019552071302991525 
0.020524351315596552 
0.021765203242627127 
0.023277209341908744 
0.02518471082518583 
0.027407672757407138 
0.029506194264603 
0.0313577323671466 
0.033158595029710476 
0.03491848706646451 
0.03653764855074473 
0.037865202357486256 
0.03899454209424792 
0.04020832913390001 
0.0412239085773045 
0.042195504093766045 
0.0428965668992049 
0.04357236226767083 
0.044306030299407856 
0.04484746353855823 
0.0454159072913098 
0.04570127797011911 
0.04628558659325191 
0.046903363386856675 
0.04724359781274433 
0.04730556017789387 
0.04735176215440276 
0.04699705514259875 
0.04685901808258126 
0.04674336456027666 
0.04636496357636691 
0.046134611701091406 
0.04576874856326836 
0.04558050571228392 
0.04539474424083822 
0.04514957694699112 
0.04490399401528363 
0.04465516308363986 
0.04433774828010985 
0.044027487419932565 
0.043703677730207405 
0.04314460875606232 
0.04269845318800061 
0.04223770696143308 
0.041784018169854116 
0.04133101459354438 
0.04087272641684496 
0.04046009129589402 
0.040074744997536174 
0.03985511974699367 
0.0395366079580043 
0.039179909709689584 
0.03874360769606883 
0.03850761702543244 
0.03819100177937619 
0.03780980205203617 
0.03739831291888933 
0.03715538093814931 
0.036882602886714064 
0.036561826521121145 
0.03613965319925274 
0.03568866970220254 
0.03527678092633453 
0.03502531395213483 
0.03471591980846332 
0.03436912750417053 
0.034089188453216304 
0.03382414286078552 
0.03379159227865263 
0.03386262668383852 
0.034601113978356315 
0.03602074233615053 
0.037870994507032615 
0.03980184950149425 
0.041730515092906345 
0.043835037551951714 
0.04601079179802732 
0.04798530201315225 
0.04976876689276307 
0.05136765018618548 
0.05328703917249028 
0.05422294818862753 
0.05553441333489464 
0.05642129415527019 
0.057785967762990595 
0.05883091836296091 
0.0604507140700691 
0.06181976795065282 
0.06385220334559213 
0.06544065861197641 
0.06704945578185306 
0.06777964155310459 
0.06821624430845952 
0.06511995070015292 
0.06182496649870231 
0.0578008621283587 
0.06280282608618265 
0.06585768066593142 
0.07091509373141669 
0.07138611581758401 
0.07143257000231534 
0.05368141104769096 
0.03590214143617574 
0.02872542888765591 
0.0253370258152923 
0.023241182586345138 
0.021859306219895847 
0.02078798584183423 
0.02021594216313874 
0.019815326590236465 
0.019660000024844325 
0.01956134123186793 
0.019422607318308326 
0.019187109146311897 
0.01863083131662864 
0.018453688166787278 
0.01834116455867551 
0.01845977411801821 
0.01871868548956359 
0.01925138958943823 
0.020014560013491674 
0.021059138609715453 
0.022375273360440345 
0.0239932671952076 
0.026014753080653926 
0.028288605730725096 
0.03040288954166123 
0.032271288606683046 
0.03411828519865752 
0.03593384487097402 
0.03761514800259396 
0.03895452504365032 
0.04008335738126313 
0.0412819063469886 
0.04230261127108481 
0.04328159255360253 
0.04395715320164527 
0.044638222606510056 
0.045401300985534174 
0.0459158084094573 
0.04648284892271316 
0.046765001400798076 
0.047292694521051226 
0.047840978840334294 
0.048144517388627794 
0.048271769646659836 
0.04830434223505359 
0.04803270919045341 
0.04789090957379062 
0.0477247048618127 
0.04735126927177476 
0.047140687197353565 
0.046720177119061596 
0.04648876257190946 
0.046348617787765105 
0.04614231715492503 
0.045855928911003326 
0.045595514391080824 
0.045326535137034066 
0.04507403647538141 
0.044761578155759416 
0.0442053533407758 
0.043763237696119915 
0.04325706221793487 
0.042761828264403265 
0.0423021899812958 
0.04184121279881789 
0.04145105509834149 
0.04108102444949385 
0.040869729738321404 
0.04054902553103269 
0.04019128254974984 
0.03975209192755466 
0.03953298764324183 
0.03921813929000263 
0.038839235068367436 
0.0383910939066662 
0.03810566146709511 
0.03782876225538598 
0.037491157664928706 
0.0370854430418464 
0.03665058690487027 
0.036240398956910495 
0.036000959697137985 
0.03572469829349069 
0.03537768157878424 
0.0350994271393144 
0.03485588236302355 
0.034807610245035134 
0.03485214009516014 
0.035480979689798506 
0.036749168996721704 
0.038458336430836244 
0.040319804645434026 
0.04220896295889195 
0.04433054262267501 
0.04654226499055847 
0.04849492420934562 
0.0504015905495246 
0.051994413140583576 
0.05404599012931061 
0.054949716397502554 
0.05640740767104649 
0.05725560867676492 
0.05881902718015203 
0.05979515038119887 
0.06162012033135818 
0.06283157223202204 
0.06495891891214738 
0.06633561485103923 
0.06784297231988155 
0.0683026527449882 
0.06854065432963563 
0.06569430115259298 
0.06303940428120491 
0.05880743381285195 
0.06113791016158854 
0.06348405959560215 
0.06887142372742319 
0.07056234155233634 
0.07307882540171648 
0.06010457837045739 
0.04027782292080968 
0.031095305346715858 
0.026792861286270148 
0.024264288146050302 
0.022693171930285624 
0.02147748330453244 
0.020829651147627304 
0.020370731228432023 
0.020111277948682983 
0.019910029143635887 
0.019691794910741738 
0.01940011135472973 
0.01886155902274974 
0.01868743074427998 
0.018584626092380454 
0.018761644374512734 
0.019066200768124243 
0.019649020571405298 
0.020475095764204924 
0.021598422190326177 
0.02299918106074761 
0.02471309981290276 
0.026842716970086215 
0.029161542856211704 
0.03127783283484234 
0.0331667520148298 
0.0350644089298862 
0.03690953220715827 
0.03865130171254718 
0.03999638169686966 
0.04112825554364454 
0.04230275994493962 
0.04332425450617701 
0.044308640093319335 
0.044962663121445055 
0.04563838256969747 
0.046419505183289064 
0.0469109697124479 
0.04747447439414315 
0.047753321927721706 
0.04821868323195898 
0.048691490655348627 
0.048960559504623774 
0.04913754669197819 
0.04914844792982905 
0.04897093386781912 
0.048822507022943384 
0.04860199534848332 
0.04822757438355377 
0.048041128511005664 
0.047582976100503105 
0.047307272300961385 
0.04720005631611468 
0.047010783184917304 
0.046685982549434735 
0.0464231315336054 
0.046202637138808504 
0.04600010099431534 
0.04568414739005178 
0.04514243805747069 
0.044711162851626726 
0.04415969973435835 
0.04362392615569583 
0.04316607962199191 
0.04270269867763482 
0.0423274722063395 
0.041965199886196146 
0.041757232907281075 
0.041433431637077085 
0.041075184987707396 
0.040632583032049585 
0.0404254574865751 
0.04010463240993672 
0.03973056346049062 
0.039243576361227175 
0.038913194038458374 
0.03863069450245607 
0.03826999882762122 
0.03787792987805921 
0.03746753353919531 
0.037051101616802765 
0.03681657258405077 
0.03656127908942598 
0.03622088999783493 
0.035942309478739935 
0.03571032359945052 
0.035649315441217466 
0.03566373031646895 
0.036201645521769264 
0.03734112243550565 
0.038905687237449596 
0.040689644295932706 
0.04252403104719545 
0.04464414283899961 
0.04685708803461856 
0.04878650593950759 
0.05076135909337906 
0.05239221138817306 
0.05437829291293524 
0.05546185256476693 
0.05694857541482172 
0.05781697277270806 
0.05953654563623009 
0.060390712621762266 
0.06239595580289845 
0.06348957511672722 
0.06567291308196896 
0.06688054531021441 
0.06821138887585951 
0.06851796480867513 
0.06853261942317473 
0.06592594682228013 
0.06374778327294528 
0.05977644989781941 
0.060211617546012154 
0.061495998104049335 
0.06664152775049625 
0.06909961885437897 
0.07345691314198412 
0.06574904260915199 
0.045061868699905624 
0.033845610098972814 
0.028463071554883444 
0.02538157651512429 
0.023558940276407987 
0.02216714310516451 
0.02140870842468235 
0.02086394421453078 
0.020497726482694024 
0.020194176517342812 
0.019914349660988512 
0.019579748087261567 
0.019095300641438186 
0.01890304080630114 
0.018826886572346244 
0.01906321225269852 
0.01942052960801162 
0.020051778768034195 
0.020953962119750494 
0.022154246093017103 
0.02364422855721425 
0.025454764327843434 
0.027685477048344863 
0.030045714031162053 
0.03215320688118028 
0.03405555167437795 
0.03600097704004373 
0.03786954888441099 
0.03965100595016548 
0.04101081974986074 
0.04214644863738172 