7 	0.00391112967796255 	1.21430643318376e-17 	0.187662226443468 	1.16210723621249e-05 	855.111847561237 	6.77215200862726e-09 	2.4562606554131e-38
7 	0.0118766651674913 	1.21430643318376e-17 	0.187659795304944 	0.00014257548090307 	225.45969066562 	1.14431761038528e-06 	0
7 	0.020134001548576 	1.04083408558608e-17 	0.187654783324616 	0.000749641317459373 	59.0645750479373 	2.07410206073162e-05 	0
7 	0.0286938283423949 	1.21430643318376e-17 	0.187642725731985 	0.00213756409325719 	24.8466880480925 	0.000123286126363348 	0
7 	0.0375672266585908 	1.73472347597681e-17 	0.187616642601472 	0.00392793425379876 	13.4715697130979 	0.000280852674762659 	0
7 	0.046765683540303 	1.56125112837913e-17 	0.18757210636369 	0.00560966665270238 	8.72937874897972 	0.000381604408613392 	0
7 	0.0563011068347006 	1.21430643318376e-17 	0.187510744373069 	0.00705837638856591 	6.3803677767554 	0.000440102283868589 	0
7 	0.0661858406082648 	1.04083408558608e-17 	0.187436789376794 	0.00831502520479013 	5.03827910231623 	0.000489547205383445 	0
7 	0.0764326811267815 	-1.73472347597681e-18 	0.18735351964035 	0.00943361696296727 	4.18612564524075 	0.000541763412359455 	0
7 	0.0870548934207257 	-6.93889390390723e-18 	0.187262962147988 	0.0104535664897014 	3.60307845564986 	0.000599432167993081 	0
7 	0.098066228457484 	-1.73472347597681e-18 	0.187166568946058 	0.0114017326209264 	3.18231840693989 	0.000663046846360329 	0
7 	0.109480940942647 	1.73472347597681e-18 	0.187065553436203 	0.0122966941418719 	2.86668089465037 	0.000732696323423646 	0
7 	0.121313807773416 	3.46944695195361e-18 	0.186960974612172 	0.0131517146982629 	2.62304187747949 	0.000808467638656774 	0
7 	0.13358014716801 	1.73472347597681e-18 	0.186853773218906 	0.01397657405169 	2.43096374623324 	0.000890530985977286 	0
7 	0.146295838495838 	3.46944695195361e-18 	0.186744802487596 	0.0147786933933756 	2.27718682441925 	0.000979148700048019 	0
7 	0.159477342834115 	6.93889390390723e-18 	0.186634848747303 	0.01556384076804 	2.15275038891307 	0.00107466807108466 	0
7 	0.173141724277517 	8.67361737988404e-18 	0.186524642235307 	0.0163365837265164 	2.05139232573709 	0.00117751285339081 	0
7 	0.18730667202848 	8.67361737988404e-18 	0.186414861817016 	0.0171005852789744 	1.96861242227478 	0.00128817601925734 	0
7 	0.201990523296728 	1.73472347597681e-18 	0.186306136122017 	0.0178587991663756 	1.90109953659025 	0.00140721332685576 	0
7 	0.217212287037676 	-6.93889390390723e-18 	0.186199042357918 	0.018613597829692 	1.84636779340872 	0.00153523672533571 	0
7 	0.232991668560441 	-5.20417042793042e-18 	0.186094103565604 	0.0193668533888142 	1.80251771904061 	0.00167290654278498 	0
7 	0.249349095037321 	-1.73472347597681e-18 	0.185991784877466 	0.0201199841969788 	1.76807463151977 	0.00182092137375894 	0
7 	0.266305741947753 	-3.46944695195361e-18 	0.185892489208211 	0.0208739748227654 	1.74187619713128 	0.00198000453464797 	0
7 	0.283883560490998 	1.73472347597681e-18 	0.185796552710217 	0.0216293743811511 	1.72299203734973 	0.00215088587689348 	0
7 	0.30210530600303 	3.46944695195361e-18 	0.185704240261617 	0.0223862762958865 	1.71066463288131 	0.00233427764555038 	0
7 	0.320994567414413 	-5.20417042793042e-18 	0.185615741228063 	0.0231442814413909 	1.70426457736009 	0.0025308429617341 	0
7 	0.34057579778732 	-5.20417042793042e-18 	0.185531165674297 	0.0239024459704474 	1.70325557492191 	0.00274115543996746 	0
7 	0.3608743459712 	-1.73472347597681e-18 	0.185450540786617 	0.0246592148723353 	1.70716605555981 	0.00296564850608594 	0
7 	0.38191648941809 	0 	0.185373806688695 	0.0254123423725554 	1.7155652424523 	0.00320455302352541 	0
7 	0.403729468200046 	5.20417042793042e-18 	0.185300814244521 	0.0261588006695764 	1.72804214761189 	0.0034578209946376 	0
7 	0.426341520272734 	8.67361737988404e-18 	0.185231340603801 	0.026894679256984 	1.74418642021826 	0.00372503183359188 	0
7 	0.449781918030829 	1.04083408558608e-17 	0.185165121106163 	0.027615078302109 	1.76357030571924 	0.00400528817031335 	0
7 	0.474081006202548 	1.04083408558608e-17 	0.185101700915108 	0.028314000906074 	1.78573121866562 	0.00429714969386007 	0
7 	0.499270241132363 	1.21430643318376e-17 	0.185039749091865 	0.0289842487097136 	1.81015451169953 	0.00459864986844433 	0
7 	0.525382231502763 	1.04083408558608e-17 	0.184977596000016 	0.0296173225422569 	1.83625593242733 	0.0049100263879779 	0
7 	0.552450780547767 	5.20417042793042e-18 	0.184922444378483 	0.0302034784886348 	1.86337046430312 	0.00524771144558822 	0
7 	0.580510929812849 	5.20417042793042e-18 	0.184903001873708 	0.0307325063373105 	1.89075653023988 	0.0056411187753689 	0
7 	0.60959900451791 	1.04083408558608e-17 	0.184926993329317 	0.0311930380192141 	1.91740635933816 	0.00603981155865227 	0
7 	0.639752660582033 	1.73472347597681e-17 	0.184957005585484 	0.0315649776762547 	1.94124617238563 	0.00644157191043894 	0
7 	0.671010933370887 	2.08166817117217e-17 	0.184961523609772 	0.0318152167973684 	1.95906541698597 	0.00676719065904942 	0
7 	0.703414288229901 	2.08166817117217e-17 	0.184934598223004 	0.0319111170257098 	1.96763400472308 	0.00697455993724614 	0
7 	0.737004672868606 	2.42861286636753e-17 	0.184882137875718 	0.031828828494396 	1.96448935903001 	0.00705821534220124 	0
7 	0.771825571663976 	2.77555756156289e-17 	0.184810769132247 	0.0315548133397612 	1.94811634158828 	0.00702832385297391 	0
7 	0.807922061953054 	2.94902990916057e-17 	0.184723947834627 	0.0310843781266722 	1.91779827803722 	0.00689526224988736 	0
7 	0.845340872387742 	3.12250225675825e-17 	0.184621759345756 	0.0304206107348838 	1.87346532124847 	0.00666472537818333 	0
7 	0.884130443427309 	2.94902990916057e-17 	0.184502113286126 	0.0295748032589056 	1.81565531908368 	0.0063407012136542 	0
7 	0.924340990046897 	3.12250225675825e-17 	0.184362117925945 	0.028567602046431 	1.74554180538973 	0.0059309037341178 	0
7 	0.966024566743242 	3.46944695195361e-17 	0.184199021946984 	0.0274295367537006 	1.66495429440232 	0.0054504667349694 	0
7 	1.00923513492173 	3.98986399474666e-17 	0.18401061847726 	0.0261999047207831 	1.57634151182954 	0.00492214090601034 	0
7 	1.05402863275205 	4.33680868994202e-17 	0.183795265919031 	0.0249244386630123 	1.48286041788585 	0.00437350139530155 	0
7 	1.10046304758287 	4.16333634234434e-17 	0.183551734881617 	0.0236550260931177 	1.38932532601872 	0.00383371505571244 	0
7 	1.14859849100923 	3.98986399474666e-17 	0.183279439322376 	0.0224365415303282 	1.29907465126167 	0.00332848998277984 	0
7 	1.19849727668994 	3.98986399474666e-17 	0.182978840629419 	0.0212957514178215 	1.21249904643335 	0.00287547440024866 	0
7 	1.25022400101563 	3.64291929955129e-17 	0.182651070596623 	0.0202466970790309 	1.1295958992612 	0.00248290395671938 	0
7 	1.30384562673185 	3.12250225675825e-17 	0.182297292082233 	0.0192937869064674 	1.05051441323094 	0.00215052820185817 	0
7 	1.35943156962565 	3.29597460435593e-17 	0.181918497216017 	0.018434092574927 	0.975531767341375 	0.00187267337256738 	0
7 	1.41705378838762 	3.29597460435593e-17 	0.181515531073677 	0.0176597690770488 	0.905080586567811 	0.0016413993937552 	0
7 	1.47678687776592 	2.94902990916057e-17 	0.18108919459127 	0.0169601350643911 	0.839794210067296 	0.00144856448593095 	0
7 	1.53870816513277 	2.94902990916057e-17 	0.180640351284435 	0.0163242744800347 	0.78082365939334 	0.00128692102204367 	0
7 	1.60289781058851 	2.77555756156289e-17 	0.18017006087158 	0.015739867993824 	0.728589766013795 	0.00115025611527539 	0
7 	1.66943891073266 	2.08166817117217e-17 	0.179679763703426 	0.0151926935005034 	0.682343890530735 	0.00103319122125095 	0
7 	1.73841760623657 	1.90819582357449e-17 	0.179171425308728 	0.0146691910823267 	0.6411271635104 	0.000931074204338966 	0
7 	1.80992319335659 	2.42861286636753e-17 	0.178647622363086 	0.014157451958577 	0.604025623300572 	0.000840019792835224 	0
7 	1.88404823953248 	2.60208521396521e-17 	0.178111238549003 	0.0136476329935849 	0.57023724044161 	0.000757321916786428 	0
7 	1.96088870322037 	2.60208521396521e-17 	0.177564095324399 	0.0131319838084638 	0.539105683521625 	0.000681604233818807 	0
7 	2.04004996790234 	3.12250225675825e-17 	0.177011340273024 	0.0126066488180891 	0.510214896487421 	0.00060921254212609 	0
7 	2.11873460271874 	3.46944695195361e-17 	0.176469652686339 	0.0120823859664837 	0.483874000232317 	0.000541817021848101 	0
7 	2.19463865000284 	3.46944695195361e-17 	0.175953118172014 	0.0115733797050814 	0.460458235752021 	0.000479740366526062 	0
7 	2.26786037121375 	3.46944695195361e-17 	0.175462422530829 	0.0110825641463473 	0.439835735257008 	0.000422742475376094 	0
7 	2.33849455540975 	3.46944695195361e-17 	0.174996526252467 	0.0106113149259151 	0.421781742815515 	0.000370803293594143 	0
7 	2.40663264195736 	3.46944695195361e-17 	0.174554350697911 	0.0101606957877801 	0.406092071308825 	0.000323697726710452 	0
7 	2.47236283890404 	3.64291929955129e-17 	0.174134813655702 	0.00973145739572408 	0.392598374105113 	0.000281116403719356 	0
7 	2.5357702371677 	3.64291929955129e-17 	0.173736842204385 	0.00932402048946016 	0.381162033912679 	0.000242734693212161 	0
7 	2.59693692069107 	3.64291929955129e-17 	0.173359390855274 	0.00893849251666213 	0.371667816940355 	0.000208235957753137 	0
7 	2.65594207270333 	3.64291929955129e-17 	0.173001455027072 	0.00857471317964414 	0.364020535418615 	0.000177321009246526 	0
7 	2.71286207822658 	3.12250225675825e-17 	0.172662079277908 	0.00823231287200533 	0.35814380937837 	0.000149713413953518 	0
7 	2.76777062295999 	2.77555756156289e-17 	0.172340361790612 	0.00791077217592475 	0.353979913672089 	0.000125163109483535 	0
7 	2.82073878866949 	2.42861286636753e-17 	0.172035456241722 	0.0076094758980566 	0.35149009359086 	0.000103448942245169 	0
7 	2.87183514520654 	2.42861286636753e-17 	0.171746571785086 	0.00732775883616913 	0.3506550373832 	8.43803488863087e-05 	0
7 	2.92112583927514 	2.77555756156289e-17 	0.171472971616809 	0.00706494268929733 	0.351475379971958 	6.77983821262034e-05 	0
7 	2.9686746800619 	2.42861286636753e-17 	0.171213970426577 	0.00682036467457253 	0.353972211309202 	5.35762993399044e-05 	0
