3 	0.0039111296779627 	-2.42861286636753e-17 	-0.0251055426431893 	0.000159275708586492 	-1.91261153463054e-21
3 	0.0118766651674914 	-3.12250225675825e-17 	-0.0735999569957343 	0.000649462537906592 	-2.36459883813633e-21
3 	0.020134001548576 	-3.12250225675825e-17 	-0.117302942998033 	0.00143854313559155 	-2.1212487986426e-22
3 	0.028693828342395 	-3.46944695195361e-17 	-0.152099605211743 	0.00238557352156942 	6.00569136688908e-22
3 	0.0375672266585909 	-3.12250225675825e-17 	-0.174662114796999 	0.00328203525986731 	2.29463387035986e-23
3 	0.0467656835403032 	-2.77555756156289e-17 	-0.186283522814646 	0.0040211617230197 	-3.79220512203437e-23
3 	0.0563011068347006 	-2.08166817117217e-17 	-0.191052145512827 	0.00461694267840311 	-2.50443524435415e-22
3 	0.0661858406082649 	-1.73472347597681e-17 	-0.192241332840922 	0.00511743797511151 	9.75528201858135e-22
3 	0.0764326811267816 	-2.08166817117217e-17 	-0.191556994611441 	0.00555554027115615 	3.07966842910926e-22
3 	0.0870548934207256 	-2.08166817117217e-17 	-0.189792168745655 	0.00594872403920251 	-1.55992759077623e-22
3 	0.0980662284574838 	-1.73472347597681e-17 	-0.187325988092113 	0.00630667226216189 	-3.1808072886863e-22
3 	0.109480940942647 	-1.73472347597681e-17 	-0.184351155647595 	0.00663502618448432 	-2.85055239451552e-22
3 	0.121313807773416 	-2.08166817117217e-17 	-0.180970486273014 	0.00693700793476657 	4.64161182244137e-22
3 	0.13358014716801 	-2.08166817117217e-17 	-0.177239772237279 	0.00721428258123917 	-2.18984720140435e-17
3 	0.146295838495838 	-1.38777878078145e-17 	-0.173188189898408 	0.00746745355655006 	-7.0173282894338e-17
3 	0.159477342834115 	-1.38777878078145e-17 	-0.168828679494154 	0.00769634076757832 	6.30124741669739e-17
3 	0.173141724277517 	-2.42861286636753e-17 	-0.164163521420035 	0.00790013122202955 	1.89976157148524e-17
3 	0.18730667202848 	-2.77555756156289e-17 	-0.159187453652049 	0.00807745477438064 	8.56410012589499e-22
3 	0.201990523296728 	-3.12250225675825e-17 	-0.153889450736986 	0.00822641291194306 	8.47482194904818e-22
3 	0.217212287037675 	-3.46944695195361e-17 	-0.148253729353931 	0.00834457525110091 	1.40517943726349e-22
3 	0.232991668560441 	-3.81639164714898e-17 	-0.14226027755412 	0.00842895169090678 	0
3 	0.249349095037321 	-4.16333634234434e-17 	-0.135885067761343 	0.00847594455623865 	2.33166510780212e-22
3 	0.266305741947753 	-4.5102810375397e-17 	-0.129100039099139 	0.00848128302930375 	1.24338501412924e-21
3 	0.283883560490998 	-4.5102810375397e-17 	-0.121872891014547 	0.00843994104034161 	2.19047100115667e-22
3 	0.30210530600303 	-3.81639164714898e-17 	-0.114166702173438 	0.00834603941219694 	1.26215590192076e-21
3 	0.320994567414413 	-3.12250225675825e-17 	-0.105939368151441 	0.00819273345893936 	3.94819429796377e-22
3 	0.34057579778732 	-2.42861286636753e-17 	-0.0971428335626234 	0.00797208843490041 	1.42465510984886e-21
3 	0.3608743459712 	-2.08166817117217e-17 	-0.0877220764032886 	0.00767494734768921 	3.68434072347014e-22
3 	0.38191648941809 	-2.08166817117217e-17 	-0.0776137835933434 	0.0072907992647002 	1.68908897383642e-21
3 	0.403729468200045 	-1.73472347597681e-17 	-0.0667446360769182 	0.00680766143568325 	-9.93517385602358e-18
3 	0.426341520272733 	0 	-0.0550291008490339 	0.00621199652640591 	-8.33781474353593e-17
3 	0.449781918030829 	6.93889390390723e-18 	-0.0423666135332593 	0.005488699073428 	8.61423117934892e-17
3 	0.474081006202548 	6.93889390390723e-18 	-0.0286380363231975 	0.00462118551319673 	8.54931585813482e-18
3 	0.499270241132363 	1.04083408558608e-17 	-0.0137012963820477 	0.00359162856459979 	-6.37986254786437e-21
3 	0.525382231502763 	1.04083408558608e-17 	0.00261395881542425 	0.0023816242452619 	8.36331685797116e-21
3 	0.552450780547767 	6.93889390390723e-18 	0.0205135386189093 	0.000974595985059361 	8.59577710447212e-22
3 	0.580510929812849 	-3.46944695195361e-18 	0.0402632746141378 	-0.000641883047012316 	-4.44310873613336e-21
3 	0.60959900451791 	-1.04083408558608e-17 	0.0622981771675752 	-0.00249761076926841 	-5.23591808023554e-21
3 	0.639752660582033 	-3.46944695195361e-18 	0.0876135508286995 	-0.00467022816274728 	-6.04786314438328e-21
3 	0.671010933370886 	6.93889390390723e-18 	0.11757659398146 	-0.00726436055377384 	-6.74611027108616e-21
3 	0.7034142882299 	3.46944695195361e-18 	0.153142972749059 	-0.0103117813851025 	6.68946053728333e-21
3 	0.737004672868606 	0 	0.194703116407783 	-0.0137355077509024 	5.132921289447e-24
3 	0.771825571663976 	0 	0.242005114194846 	-0.0173711459865881 	0
3 	0.807922061953053 	-6.93889390390723e-18 	0.294213209212784 	-0.0210182783131807 	9.09559106884743e-24
3 	0.845340872387742 	-1.73472347597681e-17 	0.350120923995003 	-0.0244882623190931 	1.72603972276304e-20
3 	0.884130443427309 	-1.73472347597681e-17 	0.4084158464561 	-0.0276286685370472 	1.69068793065334e-20
3 	0.924340990046898 	-1.40946282423116e-17 	0.467879653073141 	-0.0303277739158628 	2.74241041976019e-22
3 	0.966024566743241 	-1.10588621593521e-17 	0.527443861493402 	-0.0324992160729628 	1.57107032947934e-20
3 	1.00923513492173 	-6.50521303491303e-18 	0.586116995915627 	-0.0340832373552092 	5.62356781568555e-22
3 	1.05402863275205 	-9.54097911787244e-18 	0.642718570348348 	-0.0349405775257616 	2.45232209341534e-22
3 	1.10046304758287 	-1.30104260698261e-17 	0.695743960648134 	-0.0350211222714082 	1.12663319413903e-20
3 	1.14859849100923 	-1.73472347597681e-17 	0.743393742012018 	-0.0345080321596184 	9.31663038988371e-21
3 	1.19849727668995 	-1.90819582357449e-17 	0.784374102225331 	-0.0336861675260837 	1.66486694870057e-20
3 	1.25022400101563 	-1.47451495458029e-17 	0.818734573761638 	-0.0328392805596361 	-2.55821386164875e-21
3 	1.30384562673186 	-1.04083408558608e-17 	0.847565430097269 	-0.0320948849638184 	-2.98801628054878e-20
3 	1.35943156962566 	-8.67361737988404e-18 	0.872300053059872 	-0.0314738079147904 	1.26544362158525e-20
3 	1.41705378838763 	-1.04083408558608e-17 	0.894266649010225 	-0.0309395344182573 	-2.16647119066777e-20
3 	1.47678687776592 	-1.38777878078145e-17 	0.914484551039105 	-0.0304341313408685 	-1.06606644148034e-20
3 	1.53870816513278 	-1.21430643318376e-17 	0.933609666947149 	-0.0299010894556502 	8.12151581525352e-22
3 	1.60289781058851 	-1.38777878078145e-17 	0.951978630997997 	-0.0292960103135872 	4.96687429884605e-21
3 	1.66943891073267 	-1.73472347597681e-17 	0.969697106670936 	-0.0285870214331009 	1.01627483990897e-20
3 	1.73841760623657 	-1.04083408558608e-17 	0.986736146652203 	-0.0277541706269096 	-4.7243745339846e-22
3 	1.8099231933566 	-1.73472347597681e-17 	1.00300043765684 	-0.0267876408094261 	3.96190872124247e-21
3 	1.86664143671802 	-2.42861286636753e-17 	1.01492739475546 	-0.0259543268280375 	8.13723905195556e-21
3 	1.90437118448318 	-1.38777878078145e-17 	1.02236957718911 	-0.025369116033523 	8.59299693863027e-21
3 	1.96088928407727 	-1.38777878078145e-17 	1.03198924417759 	-0.0245246048561704 	3.71727758918535e-21
3 	2.02025965173185 	-2.42861286636753e-17 	1.04203110165498 	-0.0235321661338099 	0
3 	2.06006301192217 	-2.77555756156289e-17 	1.04875746728501 	-0.0227696267113314 	0
3 	2.09845978584128 	-2.77555756156289e-17 	1.05423123184182 	-0.0220785851048555 	0
3 	2.13549967996946 	-2.77555756156289e-17 	1.05910781955951 	-0.0214030957648153 	0
3 	2.17123064424048 	-2.77555756156289e-17 	1.06343283234511 	-0.0207421111481144 	0
3 	2.20569893411516 	-2.77555756156289e-17 	1.06724746305501 	-0.0200969698368728 	0
3 	2.23894917046123 	-2.77555756156289e-17 	1.0705884893779 	-0.0194687120974031 	0
3 	2.27102439731726 	-2.77555756156289e-17 	1.07348839148502 	-0.0188578910071858 	0
3 	2.30196613761522 	-2.77555756156289e-17 	1.07597553341631 	-0.0182647469969462 	0
3 	2.33181444693392 	-2.42861286636753e-17 	1.0780743737641 	-0.0176892965162473 	0
3 	2.3606079653529 	-1.73472347597681e-17 	1.07980568519507 	-0.0171313796338746 	0
3 	2.38838396747391 	-1.38777878078145e-17 	1.08118677177481 	-0.0165907004802311 	0
3 	2.41517841067461 	-1.73472347597681e-17 	1.08223167930776 	-0.0160668618932548 	0
3 	2.44102598165722 	-2.42861286636753e-17 	1.0829513980834 	-0.0155593937335364 	0
3 	2.46596014135208 	-2.77555756156289e-17 	1.08335406026882 	-0.0150677757878817 	0
3 	2.49001316823444 	-2.77555756156289e-17 	1.08344513610126 	-0.0145914562320627 	0
3 	2.51321620011054 	-2.77555756156289e-17 	1.08322763418112 	-0.0141298663797027 	0
3 	2.535599274427 	-2.77555756156289e-17 	1.08270231155943 	-0.0136824322729366 	0
3 	2.55719136715571 	-2.77555756156289e-17 	1.0818678988565 	-0.0132485835344452 	0
3 	2.57802043030466 	-2.77555756156289e-17 	1.08072134418008 	-0.0128277597741011 	0
3 	2.59811342810315 	-2.77555756156289e-17 	1.07925807697499 	-0.0124194147307387 	0
3 	2.61749637190832 	-2.77555756156289e-17 	1.07747228906353 	-0.0120230182398266 	0
3 	2.63619435387806 	-2.77555756156289e-17 	1.0753572251408 	-0.0116380560611836 	0
3 	2.65423157945406 	-2.77555756156289e-17 	1.07290546925383 	-0.0112640275874262 	0
3 	2.67163139869691 	-2.77555756156289e-17 	1.07010920801328 	-0.0109004414911344 	0
3 	2.68841633651388 	-2.77555756156289e-17 	1.06696044642786 	-0.0105468094585126 	0
3 	2.70460812181851 	-2.77555756156289e-17 	1.06345114940577 	-0.010202638292573 	0
3 	2.72022771565972 	-2.77555756156289e-17 	1.05957328210482 	-0.00986742083252633 	0
3 	2.73529533835695 	-2.77555756156289e-17 	1.05531872599181 	-0.00954062630264062 	0
3 	2.74983049567626 	-2.77555756156289e-17 	1.05067905460619 	-0.00922169084412517 	0
3 	2.76385200408157 	-2.77555756156289e-17 	1.04564516280643 	-0.00891000907167374 	0
3 	2.77737801509344 	-3.12250225675825e-17 	1.04020675432282 	-0.00860492751656889 	0
3 	2.79042603878708 	-3.46944695195361e-17 	1.03435170311695 	-0.0083057407701621 	0
3 	2.80301296646003 	-3.46944695195361e-17 	1.02806531290039 	-0.00801169103902348 	0
3 	2.81515509249873 	-3.46944695195361e-17 	1.02132950527677 	-0.00772197168584827 	0
3 	2.82686813547238 	-3.12250225675825e-17 	1.01412197012742 	-0.00743573517614635 	0
3 	2.83816725848143 	-2.77555756156289e-17 	1.00641531246812 	-0.00715210573217703 	0
3 	2.84906708878692 	-3.12250225675825e-17 	0.998176228776875 	-0.00687019704141528 	0
3 	2.85958173674617 	-3.46944695195361e-17 	0.989364743300318 	-0.00658913524193125 	0
3 	2.86972481407933 	-3.46944695195361e-17 	0.979933531034556 	-0.00630808483197908 	0
3 	2.87950945149043 	-3.46944695195361e-17 	0.969827347879044 	-0.00602627134432322 	0
3 	2.88894831566567 	-3.12250225675825e-17 	0.958982577783534 	-0.00574301688746941 	0
3 	2.89805362567107 	-2.08166817117217e-17 	0.947326791991924 	-0.00545793461888621 	0
3 	2.90683716877067 	-1.38777878078145e-17 	0.934762867786183 	-0.00517049357371 	0
3 	2.9153103156857 	-1.73472347597681e-17 	0.921131478043925 	-0.00487865945548514 	0
3 	2.92348403531449 	-2.08166817117217e-17 	0.906217275935505 	-0.00457990488315786 	0
3 	2.9313689089323 	-2.08166817117217e-17 	0.889809665944583 	-0.00427243421621503 	0
3 	2.93897514388925 	-2.08166817117217e-17 	0.871730940442996 	-0.00395651498958228 	0
3 	2.94631258682425 	-2.42861286636753e-17 	0.851823536560457 	-0.00363390323676915 	0
3 	2.95339073641193 	-2.77555756156289e-17 	0.829934576119872 	-0.00330716276537853 	0
3 	2.96021875565916 	-2.77555756156289e-17 	0.805902079863593 	-0.00297940755780611 	0
3 	2.96680548376697 	-2.42861286636753e-17 	0.779539617593597 	-0.00265408662609171 	0
3 	2.97315944757337 	-2.42861286636753e-17 	0.750617164151173 	-0.00233476601658863 	0
3 	2.97928887259171 	-2.77555756156289e-17 	0.718836365682553 	-0.00202494485727381 	0
3 	2.98520169365903 	-2.77555756156289e-17 	0.683797388642474 	-0.00172792899560921 	0
3 	2.99090556520807 	-2.77555756156289e-17 	0.644955397004429 	-0.00144672753215702 	0
3 	2.99640787117633 	-1.73472347597681e-17 	0.601581250393675 	-0.00118402002303212 	0
3 	3.00171573456492 	-6.93889390390723e-18 	0.552744289332825 	-0.000942420614902908 	0
3 	3.00683602665963 	-6.93889390390723e-18 	0.49723404221637 	-0.000724201228430805 	0
3 	3.01177537592613 	-6.93889390390723e-18 	0.433529626483394 	-0.000530307557804483 	0
3 	3.01654017659085 	-6.93889390390723e-18 	0.360749851851576 	-0.000361779710506676 	0
3 	3.02113659691864 	-3.46944695195361e-18 	0.280634289925552 	-0.000221822993132075 	0
3 	3.02557058719784 	-3.46944695195361e-18 	0.197689217390253 	-0.000115271543808679 	0
3 	3.02984788744324 	-6.93889390390723e-18 	0.116270181369724 	-4.4883577515665e-05 	0
