8 	0.449781918030828 	-1.73472347597681e-17 	0.327189749312118 	0.042364580465739 	1.69656471545656 	0.00472024333815661 	0
8 	0.474081006202548 	-2.08166817117217e-17 	0.327067477401758 	0.0436770337882115 	1.69850808996793 	0.0050954373418193 	0
8 	0.499270241132363 	-2.08166817117217e-17 	0.326936328929312 	0.044999370791345 	1.70390008448501 	0.00549582918921073 	0
8 	0.525382231502763 	-1.38777878078145e-17 	0.326794547229656 	0.0463281509128713 	1.71252744856766 	0.00592158376966668 	0
8 	0.551557156387474 	-6.93889390390723e-18 	0.326645253048268 	0.0476157411915208 	1.72375153708239 	0.00635733619537911 	0
8 	0.565334871985252 	-3.46944695195361e-18 	0.326564362350844 	0.048280971709853 	1.73029289682488 	0.00658880837617171 	0
8 	0.580510929812849 	6.93889390390723e-18 	0.326470616500672 	0.0489861712954945 	1.73855944723725 	0.00684655380634225 	0
8 	0.60959900451791 	1.73472347597681e-17 	0.326283377150721 	0.0503035389028069 	1.75546985596665 	0.00734256619277992 	0
8 	0.639752660582033 	1.73472347597681e-17 	0.326074446042829 	0.0516027189847951 	1.77470613721196 	0.00785797264706696 	0
8 	0.671010933370887 	1.04083408558608e-17 	0.325840539687853 	0.0528739817545479 	1.79599218338208 	0.00838873465695545 	0
8 	0.703414288229901 	1.21430643318376e-17 	0.325578466508245 	0.0541060075967055 	1.81902824958802 	0.00893759045950859 	0
8 	0.737004672868606 	2.25514051876985e-17 	0.325273886448106 	0.0552863565248722 	1.84350338601083 	0.00955238495753905 	0
8 	0.771825571663976 	2.94902990916057e-17 	0.324873733340322 	0.0564051016548818 	1.86915714614366 	0.0102825483509078 	0
8 	0.807922061953054 	3.03576608295941e-17 	0.32435263386365 	0.0574552655511227 	1.8956410749467 	0.0110951091323465 	0
8 	0.845340872387743 	3.68628738645072e-17 	0.323758536584164 	0.0584138287062318 	1.92176055184021 	0.0119774300878076 	0
8 	0.884130443427309 	4.2934406030426e-17 	0.323109731174814 	0.0592253851630526 	1.94500918891755 	0.0127735885330544 	0
8 	0.924340990046898 	4.5102810375397e-17 	0.322376665547115 	0.0598071346641514 	1.96181412907894 	0.0133666497853475 	0
8 	0.966024566743242 	4.5102810375397e-17 	0.321539444064952 	0.0601033156278373 	1.96938239565954 	0.0137266639202858 	0
8 	1.00923513492173 	3.81639164714898e-17 	0.320581158827561 	0.0600734845317338 	1.96580789561383 	0.0138641679764155 	0
8 	1.05402863275206 	3.81639164714898e-17 	0.319488813592889 	0.0596917499551304 	1.94997862238359 	0.0138007716037875 	0
8 	1.10046304758287 	4.5102810375397e-17 	0.318251998264331 	0.0589457783360963 	1.92147227893884 	0.0135547251839745 	0
8 	1.14859849100923 	4.85722573273506e-17 	0.316860822932428 	0.0578349776165832 	1.880426237679 	0.013137173079717 	0
8 	1.18975506991011 	5.63785129692462e-17 	0.31558794031883 	0.0566522132587689 	1.83757573734025 	0.0126701547339043 	0
8 	1.21515322762592 	7.02563007770607e-17 	0.31476927932681 	0.0558391132290865 	1.80841796120365 	0.012342756124799 	0
8 	1.25022400101563 	7.63278329429795e-17 	0.313587957144851 	0.0545990032260441 	1.76446106916467 	0.0118357613536486 	0
8 	1.30384562673186 	8.15320033709099e-17 	0.311693027701939 	0.0525348126978578 	1.69212037230435 	0.0109837806077312 	0
8 	1.35943156962565 	8.50014503228635e-17 	0.309613884097043 	0.0502232957350367 	1.61222243792476 	0.0100271557723212 	0
8 	1.41705378838762 	7.97972798949331e-17 	0.307349880783554 	0.0477271660097721 	1.52723596113688 	0.00900166308916142 	0
8 	1.47678687776592 	7.7412035115465e-17 	0.304905458268353 	0.0451364509710542 	1.44221453280832 	0.00795084031966817 	0
8 	1.53870816513278 	7.39425881635114e-17 	0.302275215947049 	0.0425416234116756 	1.36079445393909 	0.00692473029035761 	0
8 	1.60289781058851 	6.93889390390723e-17 	0.299470383215065 	0.0399716174116294 	1.27995962811568 	0.00596650780359744 	0
8 	1.66943891073267 	6.93889390390723e-17 	0.296537957500829 	0.0374411129174199 	1.19885810256245 	0.00509424760541398 	0
8 	1.73841760623657 	7.63278329429795e-17 	0.293503355726277 	0.0349785748578098 	1.12034897367454 	0.00431417366952835 	0
8 	1.79261206046318 	7.78457159844592e-17 	0.291140475721808 	0.0331614786730291 	1.06455229087353 	0.00377977654338745 	0
8 	1.82900793973081 	7.78457159844592e-17 	0.289570998470084 	0.0320000060365413 	1.03037404004709 	0.00345738412440168 	0
8 	1.88404823953249 	8.84708972748172e-17 	0.287241596658306 	0.030331665188273 	0.984151874676035 	0.00302356529333043 	0
8 	1.96088870322038 	9.0205620750794e-17 	0.284196913595673 	0.0282055112132884 	0.930478172456195 	0.00251648827552128 	0
8 	2.02025965173185 	8.67361737988404e-17 	0.282054880174302 	0.0265910920083857 	0.895250807314941 	0.00212348412923826 	0
8 	2.06006301192217 	8.67361737988404e-17 	0.280548468614644 	0.0254970474167302 	0.874148151165182 	0.00189047465385105 	0
8 	2.09845978584128 	8.67361737988404e-17 	0.279202914107909 	0.0244982806621641 	0.857050426335109 	0.00168406451998239 	0
8 	2.13549967996946 	8.67361737988404e-17 	0.277949440323731 	0.0235516427832847 	0.842909328198029 	0.00149165477064059 	0
8 	2.17123064424048 	8.67361737988404e-17 	0.276774636083084 	0.0226538581382977 	0.831564133610654 	0.00131380303041717 	0
8 	2.20569893411516 	8.67361737988404e-17 	0.275674775612379 	0.021801897393858 	0.822883936632185 	0.00115037144687921 	0
8 	2.23894917046123 	8.67361737988404e-17 	0.274646524547631 	0.0209929391443177 	0.816766800991284 	0.00100087420434282 	0
8 	2.27102439731726 	8.67361737988404e-17 	0.273686045622382 	0.0202243594919863 	0.813139278570751 	0.000864624699191338 	0
8 	2.30196613761522 	8.67361737988404e-17 	0.272789512788201 	0.0194937316886916 	0.811956186932741 	0.000740838853969642 	0
8 	2.33181444693392 	8.67361737988404e-17 	0.271953237563651 	0.0187988282391078 	0.813200659420528 	0.000628712533380354 	0
8 	2.3606079653529 	8.67361737988404e-17 	0.27117366636788 	0.0181376226052796 	0.816884530663365 	0.000527472955626818 	0
8 	2.38838396747391 	8.32667268468867e-17 	0.270447384822172 	0.0175082895760209 	0.823049142422339 	0.000436410989009207 	0
8 	2.41517841067461 	7.97972798949331e-17 	0.26977112639557 	0.016909204272812 	0.831766657985054 	0.000354901565110397 	0
8 	2.44102598165722 	7.97972798949331e-17 	0.269141777520444 	0.0163389402321432 	0.843141969892079 	0.000282417225878331 	0
8 	2.46596014135207 	7.97972798949331e-17 	0.268556379341003 	0.0157962671525238 	0.857315283109896 	0.000218538109057176 	0
8 	2.49001316823444 	7.97972798949331e-17 	0.268012127237507 	0.0152801488508288 	0.874465455565678 	0.000162960617773395 	0
8 	2.51321620011054 	7.63278329429795e-17 	0.267506368728042 	0.0147897418424973 	0.894814178913464 	0.0001155063460256 	0
8 	2.535599274427 	7.28583859910259e-17 	0.267036600129994 	0.0143243948064905 	0.918631081650249 	7.61323890262625e-05 	0
8 	2.55719136715571 	7.28583859910259e-17 	0.2666004622943 	0.0138836490377828 	0.946239830096719 	4.49438648999141e-05 	0
8 	2.57802043030465 	6.93889390390723e-17 	0.266195735668283 	0.0134672397995003 	0.978025284708106 	2.22092387827433e-05 	0
8 	2.59811342810315 	6.59194920871187e-17 	0.265820334894374 	0.0130750982175356 	1.01444173248229 	8.37880546725484e-06 	0
8 	2.61749637190832 	6.59194920871187e-17 	0.265472303117893 	0.0127073530173684 	1.05602215172029 	4.1063896719334e-06 	0
8 	2.63619435387806 	6.59194920871187e-17 	0.265149806151042 	0.0123643309969591 	1.10338836161701 	1.02739017117622e-05 	0
8 	2.65423157945406 	6.59194920871187e-17 	0.26485112661699 	0.0120465546520335 	1.15726175295724 	2.80177789613132e-05 	0
8 	2.67163139869691 	6.59194920871187e-17 	0.264574658175743 	0.0117547348154057 	1.21847407484374 	5.87554949727142e-05 	0
8 	2.68841633651388 	6.59194920871187e-17 	0.264318899911937 	0.0114897555635107 	1.28797745808571 	0.00010420919868917 	0
8 	2.7046081218185 	6.59194920871187e-17 	0.264082450942795 	0.0112526480519973 	1.36685249355893 	0.000166422185375154 	0
8 	2.72022771565972 	6.59194920871187e-17 	0.263864005281196 	0.0110445495033902 	1.45631278307648 	0.000247762435806141 	0
8 	2.73529533835694 	6.41847686111419e-17 	0.263662346963231 	0.010866643498066 	1.55770401036749 	0.000350906189123506 	0
8 	2.74983049567626 	5.89805981832114e-17 	0.263476345421174 	0.010720078308362 	1.67249536377031 	0.000478793930768571 	0
8 	2.76385200408157 	5.20417042793042e-17 	0.263304951052766 	0.0106058615898033 	1.80226126123074 	0.000634551940229384 	0
8 	2.77737801509344 	4.5102810375397e-17 	0.263147190910304 	0.010524732550527 	1.94865200141283 	0.00082137534172804 	0
8 	2.79042603878708 	3.81639164714898e-17 	0.263002164415524 	0.0104770167638255 	2.11335339202588 	0.0010423738739232 	0
8 	2.80301296646003 	3.46944695195361e-17 	0.26286903900598 	0.0104624736475793 	2.29803766862586 	0.00130038916688853 	0
8 	2.81515509249872 	3.46944695195361e-17 	0.262747045641838 	0.0104801513526717 	2.50431095583865 	0.00159780108981419 	0
8 	2.82686813547237 	3.46944695195361e-17 	0.262635474160988 	0.0105282669777049 	2.73366565637307 	0.00193634867111906 	0
8 	2.83816725848142 	3.46944695195361e-17 	0.262533668571215 	0.0106041301706502 	2.98744870419845 	0.00231699563292333 	0
8 	2.84906708878691 	3.46944695195361e-17 	0.262441022366218 	0.0107041242928362 	3.26685770849584 	0.00273986943203904 	0
8 	2.85958173674616 	3.46944695195361e-17 	0.262356973452489 	0.0108237514690177 	3.57297600251061 	0.00320429467980905 	0
8 	2.86972481407933 	3.12250225675825e-17 	0.262280998127245 	0.0109577373935183 	3.90685445983237 	0.0037089276407585 	0
8 	2.87950945149043 	2.77555756156289e-17 	0.262212609136109 	0.0111001810962587 	4.26964347138055 	0.00425198127415276 	0
8 	2.88894831566566 	2.77555756156289e-17 	0.262151373143071 	0.0112447266997607 	4.66277440709507 	0.00483162313814368 	0
8 	2.89805362567106 	2.77555756156289e-17 	0.262096913090579 	0.0113847290671859 	5.0881953637058 	0.00544892514177919 	0
8 	2.90683716877067 	2.77555756156289e-17 	0.262048729664866 	0.0115133369608324 	5.54880802727155 	0.00612345512257321 	0
8 	2.91531031568569 	2.77555756156289e-17 	0.262005628390843 	0.0116231315166163 	6.04990168531917 	0.00683091809137722 	0
8 	2.92348403531448 	2.77555756156289e-17 	0.261967058233556 	0.0117064155472042 	6.59730549853366 	0.00757322521636718 	0
8 	2.93136890893229 	2.77555756156289e-17 	0.261933409696021 	0.0117546892514853 	7.19527979758897 	0.00832140633451013 	0
8 	2.93897514388925 	2.77555756156289e-17 	0.261904633254417 	0.0117605590576915 	7.85012487604448 	0.00905783721234342 	0
8 	2.94631258682425 	2.77555756156289e-17 	0.261880519508401 	0.0117187572260243 	8.57385925193605 	0.00978991388982005 	0
8 	2.95339073641193 	2.77555756156289e-17 	0.261861234423609 	0.0116256966568687 	9.38684590389027 	0.0105466544078591 	0
8 	2.96021875565916 	2.77555756156289e-17 	0.261847427312558 	0.0114779827215006 	10.3206720941346 	0.0113656191336288 	0
8 	2.96680548376697 	2.77555756156289e-17 	0.261838901712286 	0.011270601975228 	11.421490868931 	0.0122767364806165 	0
8 	2.97315944757337 	2.77555756156289e-17 	0.261834502265889 	0.0109962433938711 	12.7526328340928 	0.0133354009085148 	0
8 	2.97928887259171 	3.12250225675825e-17 	0.261833427656404 	0.0106436448850028 	14.4019313143585 	0.014564390393452 	0
8 	2.98520169365903 	3.46944695195361e-17 	0.261835240643622 	0.0101959967642582 	16.4982976152124 	0.0160000342345714 	0
8 	2.99090556520806 	3.46944695195361e-17 	0.261839494035159 	0.0096280404897431 	19.2373745626815 	0.0176642262996336 	0
8 	2.99640787117633 	3.98986399474666e-17 	0.261845642584389 	0.00890183769134852 	22.9267726857515 	0.0195145543762724 	0
8 	3.00171573456492 	4.5102810375397e-17 	0.261853042609141 	0.00796194267369534 	28.0714614142455 	0.0213146683930554 	0
8 	3.00683602665962 	4.5102810375397e-17 	0.261860922715681 	0.00673570294873053 	35.5533405643242 	0.0223287644304771 	0
8 	3.01177537592612 	4.5102810375397e-17 	0.26186834033547 	0.00516302699709779 	47.0934779022428 	0.0208845769440533 	0
8 	3.01654017659085 	4.5102810375397e-17 	0.26187432869768 	0.0033159463696057 	66.8386663531798 	0.0150562028070505 	0
8 	3.02113659691864 	4.5102810375397e-17 	0.261878477075044 	0.00158852936763316 	108.141950145972 	0.00667986464792875 	0
8 	3.02557058719784 	4.85722573273506e-17 	0.261881358044392 	0.000502143325466614 	227.903998045451 	0.00148673533206707 	0
8 	3.02984788744324 	5.55111512312578e-17 	0.26188394313388 	8.91614221597823e-05 	812.162090388925 	0.000145915184791165 	0
