# Wall shear stress
# Time        	patch         	min           	max           
5.125000e+03	wallTop	(-6.963382e+00 -8.241556e-16 -4.071202e-16)	(-2.642712e-02 7.443042e-16 2.677656e-16)
5.125000e+03	wallSide	(-5.443402e+00 -1.059416e-16 -6.544533e-17)	(-2.579371e-02 3.150690e-16 8.188343e-17)
