1 	0.450104833607992 	-2.08166817117217e-17 	0.1444391716484 	2.74399550871521e-08 	5725.23414447959 	1.08021214501644e-10 	8.50719770631347e-39
1 	0.45411588018469 	-1.99493199737333e-17 	0.144450358634296 	5.43154437801318e-07 	1167.33465045197 	5.33429366295246e-09 	0
1 	0.458271722436624 	-1.64798730217797e-17 	0.144462104236619 	3.57613742188783e-06 	351.038341523451 	8.95642248550147e-08 	0
1 	0.462577509192929 	-2.08166817117217e-17 	0.144473232370802 	1.29994622407859e-05 	157.068420147626 	6.84733025018315e-07 	0
1 	0.467038566773706 	-2.77555756156289e-17 	0.144484489578345 	3.4184106128891e-05 	86.2429898015159 	3.22210142585001e-06 	0
1 	0.471660404714064 	-2.94902990916057e-17 	0.144496153974847 	7.37295204763902e-05 	53.6579616810168 	1.09945491707986e-05 	0
1 	0.47644872164547 	-2.77555756156289e-17 	0.144508333184951 	0.00013890325178029 	36.3464675962122 	2.95135493874943e-05 	0
1 	0.481409411336888 	-2.77555756156289e-17 	0.144521229323982 	0.000236378314713668 	26.1924365834326 	6.4740554086227e-05 	0
1 	0.486548568898046 	-3.29597460435593e-17 	0.144535164983491 	0.000370209492969443 	19.77587734873 	0.000117962123766107 	0
1 	0.491872497147123 	-3.12250225675825e-17 	0.144550553332866 	0.000539896560214828 	15.4697220279714 	0.000180212955056521 	0
1 	0.497387713144978 	-2.42861286636753e-17 	0.144567861965431 	0.000740098435030771 	12.4339438062958 	0.000233628873961723 	0
1 	0.503100954897973 	-2.42861286636753e-17 	0.144587562876453 	0.000962610929647029 	10.2101330768505 	0.000261741785993429 	0
1 	0.509019188231255 	-2.60208521396521e-17 	0.144610075537107 	0.00119920355759675 	8.53554946303223 	0.00025919798037838 	0
1 	0.515149613834241 	-1.73472347597681e-17 	0.144635727150335 	0.00144347147010154 	7.2503130397059 	0.000232179737662264 	0
1 	0.521499674479872 	-6.93889390390723e-18 	0.144664742384941 	0.00169123578937251 	6.25019081351599 	0.000192069650599873 	0
1 	0.528077062419057 	-3.46944695195361e-18 	0.14469725555626 	0.0019401211624445 	5.46297956227977 	0.0001493883301901 	0
1 	0.534889726951499 	-5.20417042793042e-18 	0.144733332505718 	0.00218897178250438 	4.83663423114106 	0.000111162699283473 	0
1 	0.541945882173934 	-6.93889390390723e-18 	0.144772992791844 	0.00243739580928676 	4.33287362677455 	8.09675070070438e-05 	0
1 	0.549254014906597 	0 	0.144816227222061 	0.00268547490528917 	3.92329479843931 	5.99865624158269e-05 	0
1 	0.5568228927985 	1.21430643318376e-17 	0.144863009083008 	0.00293359463533011 	3.58673739549713 	4.8075384301903e-05 	0
1 	0.564661572611886 	2.42861286636753e-17 	0.144913299488566 	0.00318235024573969 	3.30738591020733 	4.44955317432754e-05 	0
1 	0.572779408685979 	3.12250225675825e-17 	0.144967048148065 	0.00343249856608876 	3.07337903380984 	4.83317929879951e-05 	0
1 	0.581186061579926 	3.29597460435593e-17 	0.14502419100849 	0.00368494016554047 	2.87579430715419 	5.8695527672887e-05 	0
1 	0.589891506894536 	3.64291929955129e-17 	0.145084646198715 	0.00394072425500584 	2.70791602237603 	7.48082700403661e-05 	0
1 	0.59890604427218 	2.94902990916057e-17 	0.14514830990173 	0.00420107410538591 	2.56471761301319 	9.60288499876159e-05 	0
1 	0.608240306573976 	1.73472347597681e-17 	0.145215054458519 	0.00446743483858886 	2.44250825058533 	0.000121862174377728 	0
1 	0.617905269233076 	2.77555756156289e-17 	0.145284732396542 	0.00474154970947776 	2.3387096288597 	0.000151973050608908 	0
1 	0.627912259782652 	4.16333634234434e-17 	0.145357192433556 	0.00502557670118393 	2.2517440500137 	0.000186222219271017 	0
1 	0.638272967556877 	4.16333634234434e-17 	0.145432316919031 	0.00532226616812102 	2.18103084305293 	0.000224742235375487 	0
1 	0.648999453562991 	4.5102810375397e-17 	0.145510094483637 	0.00563523555401004 	2.12710883294132 	0.000268078607246406 	0
1 	0.660104160522277 	3.81639164714898e-17 	0.145590749214551 	0.00596940526246139 	2.09193637391462 	0.000317442263702566 	0
1 	0.671599923077542 	2.08166817117217e-17 	0.145674968216818 	0.00633171367644149 	2.07948492434951 	0.000375166803643335 	0
1 	0.683499978164522 	1.38777878078145e-17 	0.145764286943576 	0.00673232615771778 	2.09686127678221 	0.000445534105730783 	0
1 	0.695817975544423 	2.42861286636753e-17 	0.145861519864304 	0.00718642316523286 	2.15606253161365 	0.000535947371485054 	0
1 	0.7085679884947 	2.42861286636753e-17 	0.145970546075776 	0.00771405628948943 	2.27270358806221 	0.000658176153150728 	0
1 	0.717737099987066 	1.56125112837913e-17 	0.146055036917497 	0.00813405514731675 	2.39094607893446 	0.000769623444322167 	0
1 	0.724449847067585 	1.56125112837913e-17 	0.146121047981857 	0.00847075126923668 	2.49891099440974 	0.000870768740287803 	0
1 	0.735426213294291 	1.73472347597681e-17 	0.146234932731097 	0.00907622962695037 	2.7013671071384 	0.00107998957648201 	0
1 	0.749564393721337 	3.12250225675825e-17 	0.146392250881877 	0.00997991949871135 	3.00964060072717 	0.00145265175949635 	0
1 	0.764195248112446 	2.77555756156289e-17 	0.146567400172775 	0.0111177187526983 	3.39202775026087 	0.00202023356719944 	0
1 	0.77933511922575 	1.38777878078145e-17 	0.146761615168111 	0.0125825450179507 	3.86435628022903 	0.00289834224681903 	0
1 	0.795000839837209 	1.38777878078145e-17 	0.146976185572636 	0.014486448482344 	4.43853711264034 	0.00426610190091641 	0
1 	0.811209744449084 	1.73472347597681e-17 	0.1472128978515 	0.0169542555018966 	5.11917837500585 	0.0063883432705994 	0
1 	0.827979681139488 	2.08166817117217e-17 	0.147475380660598 	0.0201003438043906 	5.90327619396077 	0.00964009611262547 	0
1 	0.845329023552352 	2.77555756156289e-17 	0.14777097416822 	0.0239927439510346 	6.78317631505154 	0.0145858871161307 	0
1 	0.863276683027865 	3.81639164714898e-17 	0.148124205202168 	0.0286484563225976 	7.75065898863065 	0.0222184001093594 	0
1 	0.881842120874374 	3.46944695195361e-17 	0.148596082631312 	0.0340302814780652 	8.80053398567383 	0.0333475340743198 	0
1 	0.901045360783727 	2.77555756156289e-17 	0.149246317893994 	0.0399429602797698 	9.90107736671226 	0.0489571301004474 	0
1 	0.920907001393321 	3.12250225675825e-17 	0.15008630410705 	0.0458219115908225 	10.9547433610298 	0.0682289699405385 	0
1 	0.94144822899952 	3.12250225675825e-17 	0.151139043920709 	0.0508133521620578 	11.7870665375632 	0.0870741929623363 	0
1 	0.962690830428723 	2.77555756156289e-17 	0.152397806045137 	0.0541736334631022 	12.2154005213325 	0.100344075717295 	0
1 	0.984657206074292 	3.12250225675825e-17 	0.153696884362897 	0.0555839173161288 	12.1181748155475 	0.102007153416465 	0
1 	1.00737038310959 	2.77555756156289e-17 	0.15477526095275 	0.0552757696465594 	11.4464132096713 	0.0909602162701769 	0
1 	1.03085402888981 	1.38777878078145e-17 	0.155516083764311 	0.0539095294145264 	10.2805546950017 	0.0720182761125742 	0
1 	1.05513246455794 	8.02309607639273e-18 	0.155940469079655 	0.0522631181961502 	8.851787055007 	0.0514423472237983 	0
1 	1.08023067887304 	4.55364912443912e-18 	0.156053401231129 	0.0509458897567757 	7.44108700812768 	0.0348785497735141 	0
1 	1.10617434228246 	3.46944695195361e-18 	0.155901810424254 	0.050158829307527 	6.22733104072469 	0.0238577960247746 	0
1 	1.1329898212631 	9.54097911787244e-18 	0.155541554246189 	0.049829352182516 	5.26374199657989 	0.017403499157499 	0
1 	1.16070419296071 	4.33680868994202e-18 	0.155048296445435 	0.0497612477534093 	4.53805646020121 	0.0139173742576243 	0
1 	1.18934526016058 	-1.73472347597681e-18 	0.154507213225898 	0.0497407388080325 	4.00945347435939 	0.0120930880233739 	0
1 	1.21894156662766 	0 	0.153984001481415 	0.0495873860294911 	3.62347247361379 	0.0110877887254407 	0
1 	1.24952241285898 	-5.20417042793042e-18 	0.153508842695797 	0.0491673052202185 	3.32773373691097 	0.0104198218281704 	0
1 	1.28111787229685 	-1.56125112837913e-17 	0.153087498754639 	0.0483891562586934 	3.08510542373281 	0.00983598038098687 	0
1 	1.31375880805697 	-2.08166817117217e-17 	0.152719250986548 	0.0471967327622564 	2.87423150775055 	0.00921493085750997 	0
1 	1.34747689023168 	-1.73472347597681e-17 	0.152408718235655 	0.0455617562220176 	2.68375321183184 	0.0085065839735607 	0
1 	1.38230461383523 	-6.93889390390723e-18 	0.152160063953198 	0.0435960276606323 	2.5143769238352 	0.00772945312950622 	0
1 	1.41220272459524 	3.46944695195361e-18 	0.151994739025736 	0.04163761257425 	2.37736327705976 	0.00698220453480084 	0
1 	1.43617694926586 	6.93889390390723e-18 	0.151891996432362 	0.0398412119872176 	2.26967987152585 	0.00631163186698899 	0
1 	1.45930396367274 	6.93889390390723e-18 	0.151809388306311 	0.0381215286232623 	2.17814731959195 	0.00568106585736247 	0
1 	1.48161370685419 	6.93889390390723e-18 	0.151749401079344 	0.0364229858946162 	2.09629445568714 	0.00506819258155433 	0
1 	1.50313505985141 	3.46944695195361e-18 	0.151707583982449 	0.0347668718637288 	2.02352094838523 	0.00448312055354612 	0
1 	1.52389588309638 	-3.46944695195361e-18 	0.151679404472023 	0.0331683220474004 	1.95936904381658 	0.00393238510514542 	0
1 	1.54392305247857 	-6.93889390390723e-18 	0.151661627431596 	0.0316374048443051 	1.90346600260263 	0.00342035014411739 	0
1 	1.56324249413703 	-6.93889390390723e-18 	0.151651647144765 	0.0301801527045623 	1.85549468818654 	0.00294941185789564 	0
1 	1.58187921802306 	-6.93889390390723e-18 	0.151647301825712 	0.0287994858204712 	1.81518125728321 	0.00252032276033839 	0
1 	1.59985735027679 	-1.04083408558608e-17 	0.151646837080296 	0.0274960043867705 	1.78229276973051 	0.00213257539913729 	0
1 	1.61720016445966 	-1.04083408558608e-17 	0.151648855534388 	0.0262686446467304 	1.75664012306847 	0.0017847756053539 	0
1 	1.63393011168312 	0 	0.151652261399177 	0.025115206194136 	1.73808352280334 	0.00147497040067349 	0
1 	1.65006884967273 	3.46944695195361e-18 	0.151656211182962 	0.0240327647925431 	1.72653893009148 	0.00120091792912262 	0
1 	1.66563727080512 	0 	0.151660071112574 	0.0230179878064358 	1.72198472981997 	0.000960298891683146 	0
1 	1.68065552915414 	3.46944695195361e-18 	0.151663380358132 	0.0220673695752754 	1.72446835408559 	0.000750875637188592 	0
1 	1.69514306658136 	6.93889390390723e-18 	0.151665819462523 	0.0211774027622329 	1.73411287491187 	0.00057060803097554 	0
1 	1.70911863790442 	3.46944695195361e-18 	0.151667183413128 	0.0203446996342298 	1.75112371807328 	0.000417735740889991 	0
1 	1.7226003351761 	-3.46944695195361e-18 	0.151667358768117 	0.0195660748812284 	1.77579569840233 	0.000290835716909688 	0
1 	1.73560561110536 	-6.93889390390723e-18 	0.151666304276883 	0.0188385992634477 	1.80852057006962 	0.0001888621238984 	0
1 	1.74815130165068 	-6.93889390390723e-18 	0.151664034491723 	0.0181596312467218 	1.84979524450241 	0.000111174243307265 	0
1 	1.76025364781502 	-3.46944695195361e-18 	0.151660605933897 	0.017526831918533 	1.9002307670012 	5.75561121551123e-05 	0
1 	1.77192831667064 	-3.46944695195361e-18 	0.151656105443265 	0.0169381668882015 	1.96056206966056 	2.82300209323097e-05 	0
1 	1.78319042164083 	-1.04083408558608e-17 	0.151650640402768 	0.0163918975591243 	2.0316584414939 	2.38644983746358e-05 	0
1 	1.79405454206499 	-6.93889390390723e-18 	0.151644330584788 	0.0158865631114002 	2.11453458886467 	4.55761226554847e-05 	0
1 	1.80453474207227 	0 	0.1516373014143 	0.0154209537537637 	2.2103621201474 	9.49235091166149e-05 	0
1 	1.81464458878828 	-6.93889390390723e-18 	0.151629678482984 	0.0149940753176396 	2.32048130895821 	0.000173891297694811 	0
1 	1.8243971698984 	-1.73472347597681e-17 	0.151621583178554 	0.0146051051153416 	2.44641311500351 	0.000284862140398117 	0
1 	1.83380511059041 	-2.08166817117217e-17 	0.151613129314 	0.01425333921993 	2.58987172835888 	0.000430575865542986 	0
1 	1.84288058989839 	-2.08166817117217e-17 	0.15160442065219 	0.0139381319835419 	2.7527784163512 	0.000614077446329568 	0
1 	1.85163535646909 	-2.42861286636753e-17 	0.151595549222336 	0.0136588296834883 	2.93727824917556 	0.00083865925523198 	0
1 	1.86008074377113 	-2.42861286636753e-17 	0.151586594317215 	0.0134147015705816 	3.14576238748871 	0.00110780816092784 	0
1 	1.8682276847667 	-2.08166817117217e-17 	0.151577622045989 	0.0132048730670536 	3.38090000082424 	0.00142517368504353 	0
1 	1.8760867260648 	-2.08166817117217e-17 	0.151568685300572 	0.0130282670669424 	3.64568543714481 	0.00179457855640837 	0
1 	1.88366804157438 	-1.73472347597681e-17 	0.151559823979295 	0.0128835597906232 	3.94350778499867 	0.00222009613024996 	0
1 	1.89098144567491 	-1.38777878078145e-17 	0.151551065306416 	0.0127691570200582 	4.27825121309068 	0.00270621889285809 	0
1 	1.89803640592158 	-1.38777878078145e-17 	0.151542424096524 	0.0126831945445852 	4.65443520983928 	0.00325813784074226 	0
1 	1.90484205530155 	-1.38777878078145e-17 	0.151533902844937 	0.0126235633349814 	5.07740396306847 	0.00388214407812822 	0
1 	1.91140720405698 	-1.38777878078145e-17 	0.151525491580312 	0.0125879557500935 	5.55357369501987 	0.00458615267449182 	0
1 	1.91774035109035 	-1.04083408558608e-17 	0.151517167480658 	0.0125739246625958 	6.09074609377338 	0.00538033625519902 	0
1 	1.9238496949667 	-6.93889390390723e-18 	0.151508894310186 	0.0125789435598681 	6.6984955196566 	0.00627784295899863 	0
1 	1.92974314452705 	-6.93889390390723e-18 	0.151500621891747 	0.0126004530985832 	7.38863795969252 	0.00729555948505451 	0
1 	1.9354283291268 	-3.46944695195361e-18 	0.151492286445256 	0.0126358786811167 	8.17579136837898 	0.00845486129226398 	0
1 	1.9409126085123 	0 	0.151483812854858 	0.0126826046213384 	9.07804089584167 	0.00978226129012066 	0
1 	1.94620308234835 	0 	0.151475113740013 	0.0127378938116077 	10.1177296198412 	0.0113098217070624 	0
1 	1.95130659940914 	3.46944695195361e-18 	0.151466068303297 	0.0127987488384993 	11.3224193912895 	0.0130751631604959 	0
1 	1.95622976644424 	6.93889390390723e-18 	0.151456515209227 	0.0128617233492028 	12.7261065323445 	0.0151310215261948 	0
1 	1.96097895673142 	6.93889390390723e-18 	0.151446598337908 	0.0129225084265987 	14.3715032104784 	0.0175656845141769 	0
1 	1.96556031832711 	6.93889390390723e-18 	0.151436829365225 	0.0129747413428174 	16.3150813819486 	0.0204669118272645 	0
1 	1.96997978202541 	1.04083408558608e-17 	0.151427156741813 	0.0130085602357359 	18.6296579835287 	0.023908117648333 	0
1 	1.97424306903575 	1.04083408558608e-17 	0.15141683269514 	0.0130090441604709 	21.3961804326818 	0.0279543538485883 	0
1 	1.9783556983893 	6.93889390390723e-18 	0.151405371896498 	0.0129544875041116 	24.6949152980088 	0.0325890306111026 	0
1 	1.98232299408358 	3.46944695195361e-18 	0.151392758174714 	0.0128160778436474 	28.6095484133779 	0.0377181974245562 	0
1 	1.98615009197469 	-3.46944695195361e-18 	0.151379168929141 	0.0125582789649253 	33.239614166762 	0.0431854917906422 	0
1 	1.98984194642589 	-3.46944695195361e-18 	0.151364932885254 	0.0121389557402009 	38.7176369777176 	0.0487047545970539 	0
0.999999999999999 	1.99340333672126 	0 	0.151350518379991 	0.0115105749338033 	45.2365861275536 	0.0538085499076739 	0
1 	1.99683887325273 	0 	0.151336462814504 	0.0106236640262041 	53.1031317312712 	0.0577795405733832 	0
1 	2.00015300348844 	0 	0.151323283894885 	0.00943452713468547 	62.8569553356052 	0.0595917520980856 	0
1 	2.00335001773022 	0 	0.151311466522115 	0.00791934180298489 	75.5546814346367 	0.0577290491819513 	0
1 	2.00643405466757 	0 	0.151301478034936 	0.00610396036702069 	93.488269361647 	0.0498454681836096 	0
1 	2.00940910673542 	0 	0.151293661991103 	0.0041408144500775 	122.229133512892 	0.0353196336334348 	0
1 	2.01227902528252 	-3.46944695195361e-18 	0.151288033723664 	0.00234995591083813 	177.281644230272 	0.0188187495913989 	0
1 	2.01504752555717 	-3.46944695195361e-18 	0.151284139198083 	0.00105621457683098 	309.544330773551 	0.00690273211987957 	0
1 	2.01771819151684 	0 	0.151281205762199 	0.000351237143961148 	744.51400174721 	0.00155857708010681 	0
1 	2.02029448046774 	-3.46944695195361e-18 	0.151278660757242 	7.71231682774773e-05 	3346.87404750576 	0.00018428489405116 	0
1 	2.02277972754047 	-7.74943373265934e-18 	0.151276878067039 	8.52403136818557e-06 	7602.4136958788 	7.89730715738629e-06 	6.04068042574241e-38
