5 	0.00391112967796286 	3.46944695195361e-18 	-0.0261654227140127 	-3.07554447305635e-05 	-1.5816530400437e-22
5 	0.0118766651674915 	6.93889390390723e-18 	-0.0707535072279357 	-0.000201573067145999 	-5.68717908737788e-22
5 	0.020134001548576 	1.04083408558608e-17 	-0.100982599045704 	-0.000554526531363261 	-2.33233007862213e-21
5 	0.0286938283423949 	1.38777878078145e-17 	-0.116024815732358 	-0.00107120626301478 	-3.45932863073384e-22
5 	0.0375672266585908 	1.73472347597681e-17 	-0.120156621037847 	-0.00168177293229022 	-2.97401535449821e-22
5 	0.0467656835403032 	1.73472347597681e-17 	-0.119251411546312 	-0.00234296032287583 	-2.04861660907927e-22
5 	0.0563011068347006 	2.08166817117217e-17 	-0.116525286785238 	-0.00304915606248013 	7.4440348868932e-24
5 	0.0661858406082648 	1.73472347597681e-17 	-0.113088797368494 	-0.00379822211759268 	-1.78588661451766e-22
5 	0.0764326811267816 	6.93889390390723e-18 	-0.109295383830834 	-0.00458586994977311 	-2.17100120626871e-22
5 	0.0870548934207258 	-3.46944695195361e-18 	-0.105264695677067 	-0.0054093092555015 	1.0613513944238e-22
5 	0.0980662284574839 	-6.93889390390723e-18 	-0.101036333092228 	-0.00626746770122739 	-6.92194461973582e-17
5 	0.109480940942647 	-1.04083408558608e-17 	-0.0966182220304225 	-0.00716014650506808 	-1.32219935239644e-16
5 	0.121313807773417 	-1.04083408558608e-17 	-0.0920038783836159 	-0.00808754056573411 	1.04990943862799e-16
5 	0.13358014716801 	-6.93889390390723e-18 	-0.0871792579913509 	-0.00905006028751035 	6.27473636942113e-17
5 	0.146295838495838 	-1.04083408558608e-17 	-0.0821256719892469 	-0.0100482562980869 	-8.16112304551411e-23
5 	0.159477342834115 	-1.04083408558608e-17 	-0.0768210558819727 	-0.0110827742820305 	8.05793677672841e-23
5 	0.173141724277517 	0 	-0.071240487905419 	-0.012154323681314 	1.04905666110018e-22
5 	0.18730667202848 	6.93889390390723e-18 	-0.0653563378112032 	-0.0132636548004539 	5.16624609172803e-23
5 	0.201990523296728 	-3.46944695195361e-18 	-0.0591382197324322 	-0.0144115405293252 	-2.47825514094613e-23
5 	0.217212287037676 	-1.04083408558608e-17 	-0.0525528328884723 	-0.0155987601033493 	-1.42696778067397e-22
5 	0.232991668560441 	0 	-0.0455637326663972 	-0.0168260832109039 	-1.7240931773705e-24
5 	0.249349095037321 	3.46944695195361e-18 	-0.0381310549654288 	-0.0180942531959505 	3.09075604029028e-23
5 	0.266305741947753 	0 	-0.0302112072137235 	-0.0194039682485229 	9.27020544084091e-23
5 	0.283883560490999 	6.93889390390723e-18 	-0.0217565351122966 	-0.0207558594047051 	4.87202673812072e-23
5 	0.30210530600303 	1.73472347597681e-17 	-0.0127149726110599 	-0.0221504639267433 	-1.02768308692854e-22
5 	0.320994567414414 	1.73472347597681e-17 	-0.00302968289622069 	-0.0235881928424991 	-1.44025881956675e-22
5 	0.340575797787321 	1.38777878078145e-17 	0.00736130119166298 	-0.0250692922380101 	-3.35804674913981e-23
5 	0.360874345971201 	1.73472347597681e-17 	0.0185254235008571 	-0.0265937934632192 	-1.58859356182279e-24
5 	0.381916489418091 	1.38777878078145e-17 	0.030535907957008 	-0.0281614427522672 	2.39133056773657e-22
5 	0.403729468200046 	6.93889390390723e-18 	0.0434719991163992 	-0.0297715888808539 	1.44842386204898e-22
5 	0.426341520272734 	0 	0.0574191254042989 	-0.0314230611027276 	-9.43791835973248e-23
5 	0.449781918030829 	-1.38777878078145e-17 	0.0724689429182656 	-0.0331143672122514 	-1.05587934233783e-23
5 	0.474081006202548 	-2.42861286636753e-17 	0.0887192139313644 	-0.0348444651001733 	-9.67379463122215e-23
5 	0.499270241132364 	-2.08166817117217e-17 	0.106274571001505 	-0.0366090697219951 	2.07142377139376e-22
5 	0.525382231502763 	-1.04083408558608e-17 	0.12533116135565 	-0.03839758754712 	3.42899339850045e-22
5 	0.552450780547768 	-1.38777878078145e-17 	0.146333287478744 	-0.0402045592941912 	5.51972494178861e-22
5.00000000000001 	0.58051092981285 	-1.73472347597681e-17 	0.169807640946508 	-0.042022754699559 	-1.72488327194506e-22
5.00000000000001 	0.609599004517911 	-2.42861286636753e-17 	0.196001810849991 	-0.0438284714742435 	-9.02254857720766e-22
5.00000000000001 	0.639752660582033 	-2.42861286636753e-17 	0.2248519288868 	-0.0455958611780827 	-8.62025592045038e-22
5.00000000000001 	0.671010933370887 	-1.04083408558608e-17 	0.256152581646706 	-0.0473028719921432 	-7.41277836402337e-22
5.00000000000001 	0.703414288229901 	-1.04083408558608e-17 	0.289685055347461 	-0.0489262217851336 	-2.93571986398268e-22
5.00000000000001 	0.737004672868607 	-2.08166817117217e-17 	0.325259541385106 	-0.0504398321806374 	-1.17969592166155e-22
5.00000000000001 	0.771825571663977 	-3.12250225675825e-17 	0.362689839297709 	-0.0518155869064396 	-9.92277313114644e-23
5 	0.807922061953054 	-2.42861286636753e-17 	0.401741921878484 	-0.0530249128581735 	-4.13431764877853e-22
5 	0.845340872387743 	-2.77555756156289e-17 	0.442091290855776 	-0.0540406775948089 	-7.6972509733055e-17
5.00000000000001 	0.88413044342731 	-3.81639164714898e-17 	0.483305774793849 	-0.0548390134815838 	-8.39171968481202e-17
5.00000000000001 	0.924340990046899 	-3.12250225675825e-17 	0.524854440880242 	-0.0554007886561815 	8.13307312383489e-17
5.00000000000001 	0.963741052165831 	-2.42861286636753e-17 	0.56392919888538 	-0.0557027887740255 	8.71460555557379e-17
5.00000000000001 	0.984957721883351 	-2.08166817117217e-17 	0.584424197879473 	-0.0557951129969396 	8.46182106874289e-18
5.00000000000001 	1.00923513492173 	-2.77555756156289e-17 	0.60651509435521 	-0.0557689276490718 	1.03215615687622e-21
5.00000000000001 	1.05402863275206 	-3.46944695195361e-17 	0.645366862284291 	-0.0555703193009709 	5.91606848418084e-22
5.00000000000001 	1.10046304758287 	-3.81639164714898e-17 	0.682115119541145 	-0.0551266697737363 	-1.03833454765554e-22
5.00000000000001 	1.14859849100923 	-3.81639164714898e-17 	0.716327363561913 	-0.0544585065957687 	-1.11962498735373e-22
5.00000000000001 	1.19849727668995 	-3.12250225675825e-17 	0.747805071716168 	-0.0535951898176858 	5.67435896460707e-22
5.00000000000001 	1.25022400101563 	-2.42861286636753e-17 	0.77661585177954 	-0.0525661899498451 	1.05248743542902e-21
5.00000000000001 	1.30384562673186 	-2.42861286636753e-17 	0.803059512578976 	-0.0513869709688854 	-9.83748685312898e-22
5.00000000000001 	1.35943156962566 	-1.73472347597681e-17 	0.827537680560611 	-0.0500627080857723 	9.43993154600731e-22
5.00000000000001 	1.41705378838763 	-6.93889390390723e-18 	0.850316859370209 	-0.0486088550760173 	2.60460090628743e-21
5.00000000000001 	1.47678687776592 	-6.93889390390723e-18 	0.871492170803571 	-0.0470567252115238 	-7.20185497686392e-22
5.00000000000001 	1.53870816513278 	3.46944695195361e-18 	0.891156416130487 	-0.0454342409776936 	-8.58228634992822e-23
5.00000000000001 	1.60289781058851 	1.38777878078145e-17 	0.909445369789596 	-0.0437543021641469 	-2.04440928730651e-21
5.00000000000001 	1.66943891073267 	1.04083408558608e-17 	0.926506173042659 	-0.042015211561191 	-2.75489489484144e-21
5.00000000000001 	1.73841760623657 	1.04083408558608e-17 	0.942480749067703 	-0.0402061232703967 	3.24069359695448e-21
5.00000000000001 	1.8099231933566 	1.38777878078145e-17 	0.957472967653069 	-0.038313975866272 	1.85831945655759e-21
5.00000000000001 	1.88404823953249 	1.73472347597681e-17 	0.97151610900356 	-0.036327825274427 	-2.217141186359e-22
5.00000000000001 	1.96088870322038 	2.08166817117217e-17 	0.984006897057346 	-0.0343458609283601 	-6.9030154057351e-22
5.00000000000001 	2.02025965173185 	1.73472347597681e-17 	0.993141361776597 	-0.032729414369156 	0
5.00000000000001 	2.06006301192217 	1.38777878078145e-17 	0.999276356292996 	-0.031534913493847 	0
5.00000000000001 	2.09845978584128 	1.73472347597681e-17 	1.00433198538981 	-0.0304662272257049 	0
5.00000000000001 	2.13549967996946 	2.08166817117217e-17 	1.00885657700813 	-0.0294309222946905 	0
5.00000000000001 	2.17123064424048 	2.08166817117217e-17 	1.01288595050613 	-0.0284279595246018 	0
5.00000000000001 	2.20569893411516 	2.08166817117217e-17 	1.01645174155989 	-0.0274568016367875 	0
5.00000000000001 	2.23894917046123 	2.08166817117217e-17 	1.01958171699233 	-0.0265168722028338 	0
5.00000000000001 	2.27102439731726 	2.08166817117217e-17 	1.02230000997005 	-0.0256074778840955 	0
5.00000000000001 	2.30196613761522 	2.08166817117217e-17 	1.02462732065535 	-0.0247278422227594 	0
5.00000000000001 	2.33181444693392 	2.08166817117217e-17 	1.02658109451816 	-0.0238771238523869 	0
5.00000000000001 	2.3606079653529 	2.42861286636753e-17 	1.02817568470209 	-0.0230544271212059 	0
5.00000000000001 	2.38838396747391 	2.77555756156289e-17 	1.0294225029268 	-0.022258812275912 	0
5.00000000000001 	2.41517841067461 	2.77555756156289e-17 	1.03033016217522 	-0.02148930493675 	0
5.00000000000001 	2.44102598165722 	2.77555756156289e-17 	1.03090461398182 	-0.020744904329915 	0
5.00000000000001 	2.46596014135208 	2.42861286636753e-17 	1.0311492831266 	-0.0200245902571435 	0
5.00000000000001 	2.49001316823444 	2.08166817117217e-17 	1.03106520257001 	-0.0193273288967039 	0
5.00000000000001 	2.51321620011054 	2.42861286636753e-17 	1.0306511512951 	-0.0186520775372382 	0
5.00000000000001 	2.535599274427 	3.12250225675825e-17 	1.02990379719531 	-0.0179977883524896 	0
5.00000000000001 	2.55719136715571 	4.16333634234434e-17 	1.02881784615847 	-0.0173634113323939 	0
5.00000000000001 	2.57802043030466 	4.85722573273506e-17 	1.02738619701343 	-0.0167478964952861 	0
5.00000000000001 	2.59811342810315 	5.55111512312578e-17 	1.02560010008204 	-0.0161501955221435 	0
5.00000000000001 	2.61749637190832 	6.24500451351651e-17 	1.02344931488921 	-0.015569262980405 	0
5.00000000000001 	2.63619435387806 	6.24500451351651e-17 	1.02092226042904 	-0.0150040573430049 	0
5.00000000000001 	2.65423157945406 	6.24500451351651e-17 	1.01800614968779 	-0.014453542056229 	0
5.00000000000001 	2.67163139869691 	6.24500451351651e-17 	1.01468709936505 	-0.0139166869631907 	0
5.00000000000001 	2.68841633651388 	5.89805981832114e-17 	1.01095020636402 	-0.0133924704401792 	0
5.00000000000001 	2.70460812181851 	5.89805981832114e-17 	1.00677958493017 	-0.0128798826400134 	0
5.00000000000001 	2.72022771565972 	5.89805981832114e-17 	1.00215836231875 	-0.0123779302477236 	0
5.00000000000001 	2.73529533835695 	5.20417042793042e-17 	0.997068636214015 	-0.0118856431278955 	0
5.00000000000001 	2.74983049567626 	4.85722573273506e-17 	0.991491403086946 	-0.0114020831606162 	0
5.00000000000001 	2.76385200408157 	4.85722573273506e-17 	0.985406472227214 	-0.0109263553751923 	0
5.00000000000001 	2.77737801509344 	4.85722573273506e-17 	0.978792384088644 	-0.0104576212098965 	0
5.00000000000001 	2.79042603878708 	4.16333634234434e-17 	0.97162635254747 	-0.00999511385402707 	0
5.00000000000001 	2.80301296646003 	3.46944695195361e-17 	0.963884247523551 	-0.00953815658782731 	0
5.00000000000001 	2.81515509249873 	3.46944695195361e-17 	0.955540626496898 	-0.00908618067216046 	0
5.00000000000001 	2.82686813547238 	3.46944695195361e-17 	0.946568811448956 	-0.00863871641594085 	0
5.00000000000001 	2.83816725848143 	3.46944695195361e-17 	0.936940994389487 	-0.00819534319423599 	0
5.00000000000001 	2.84906708878692 	3.46944695195361e-17 	0.926628196205991 	-0.00775602870302325 	0
5.00000000000001 	2.85958173674617 	3.46944695195361e-17 	0.915581363499445 	-0.00732104736668779 	0
5.00000000000001 	2.86972481407933 	3.46944695195361e-17 	0.903685007672889 	-0.00688843831512899 	0
5.00000000000001 	2.87950945149043 	3.81639164714898e-17 	0.890786177176182 	-0.00645577883829403 	0
5.00000000000001 	2.88894831566567 	4.5102810375397e-17 	0.876783203018587 	-0.00602216992199145 	0
5.00000000000001 	2.89805362567107 	4.85722573273506e-17 	0.861638642219074 	-0.00558878214373607 	0
5.00000000000001 	2.90683716877067 	4.85722573273506e-17 	0.845350218966443 	-0.00515776874383221 	0
5.00000000000001 	2.9153103156857 	4.85722573273506e-17 	0.827929364767002 	-0.00473166326786645 	0
5.00000000000001 	2.92348403531449 	4.5102810375397e-17 	0.809388035500779 	-0.00431311658840561 	0
5.00000000000001 	2.9313689089323 	4.16333634234434e-17 	0.789730472032727 	-0.00390475417499781 	0
5.00000000000001 	2.93897514388925 	4.16333634234434e-17 	0.768947092470843 	-0.00350908211135266 	0
5.00000000000001 	2.94631258682425 	4.16333634234434e-17 	0.747008399574644 	-0.00312841635841524 	0
5.00000000000001 	2.95339073641193 	4.16333634234434e-17 	0.723857624962088 	-0.00276483339568795 	0
5.00000000000001 	2.96021875565916 	4.5102810375397e-17 	0.699401471641332 	-0.00242014183680901 	0
5.00000000000001 	2.96680548376697 	4.85722573273506e-17 	0.673498614546908 	-0.00209587328091218 	0
5.00000000000001 	2.97315944757337 	4.85722573273506e-17 	0.645945203621883 	-0.00179328700613252 	0
5.00000000000001 	2.97928887259171 	4.85722573273506e-17 	0.616455881482192 	-0.00151337966261504 	0
5.00000000000001 	2.98520169365903 	4.85722573273506e-17 	0.584638751708516 	-0.00125689753525485 	0
5.00000000000001 	2.99090556520807 	4.85722573273506e-17 	0.549963565921557 	-0.0010243662056244 	0
5.00000000000001 	2.99640787117633 	4.85722573273506e-17 	0.511723123908705 	-0.000816204751110586 	0
5.00000000000001 	3.00171573456492 	4.16333634234434e-17 	0.468951555070478 	-0.000632526848735876 	0
5.00000000000001 	3.00683602665963 	3.46944695195361e-17 	0.420294777507201 	-0.000472435675343186 	0
5.00000000000001 	3.01177537592613 	3.46944695195361e-17 	0.364278479742991 	-0.000334829126763267 	0
5.00000000000001 	3.01654017659085 	3.46944695195361e-17 	0.300581759648172 	-0.000219589393292306 	0
5.00000000000001 	3.02113659691864 	3.46944695195361e-17 	0.231550291013641 	-0.000128634956621446 	0
5.00000000000001 	3.02557058719784 	3.46944695195361e-17 	0.161564754374402 	-6.35014710564833e-05 	0
5.00000000000001 	3.02984788744324 	3.46944695195361e-17 	0.094212480955664 	-2.32046103877475e-05 	0
