2 	0.00391112967796275 	3.46944695195361e-18 	0.0439359313608681 	1.2298238407791e-06 	802.309810865311 	4.29978589208131e-08 	4.10776887101254e-38
2 	0.0118766651674914 	1.73472347597681e-17 	0.0439441462299369 	1.23738946773721e-05 	270.398450336096 	1.14024902886093e-06 	0
2 	0.020134001548576 	2.08166817117217e-17 	0.0439527004075081 	6.15544723892692e-05 	66.2479970310652 	1.0723863429999e-05 	0
2 	0.0286938283423949 	2.08166817117217e-17 	0.0439572145238518 	0.000195876770300877 	28.7530517844504 	5.01844024668013e-05 	0
2 	0.0375672266585909 	2.08166817117217e-17 	0.0439565677991297 	0.000456208457067358 	16.3800548910233 	0.000132451538586548 	0
2 	0.0467656835403032 	6.93889390390723e-18 	0.043950464323188 	0.000840264949494073 	10.7459991529573 	0.000210337380957567 	0
2 	0.0563011068347006 	-3.46944695195361e-18 	0.0439391395812898 	0.00130217995618492 	7.62944168828706 	0.000217770778787773 	0
2 	0.0661858406082648 	-1.38777878078145e-17 	0.0439231982285975 	0.00179305152388752 	5.7333826989119 	0.000165211210916917 	0
2 	0.0764326811267815 	-1.73472347597681e-17 	0.0439029143064806 	0.00228315153288382 	4.52464790969542 	0.000104927332957484 	0
2 	0.0870548934207257 	-1.38777878078145e-17 	0.0438780960642218 	0.00275871135709503 	3.72308075834388 	6.42273145500142e-05 	0
2 	0.0980662284574838 	-1.73472347597681e-17 	0.043848463314483 	0.00321483622669971 	3.16873021131982 	4.42032658216454e-05 	0
2 	0.109480940942647 	-2.42861286636753e-17 	0.043813891248684 	0.00365098191312559 	2.76924872481629 	3.8446566862349e-05 	0
2 	0.121313807773416 	-2.42861286636753e-17 	0.0437744125025083 	0.00406846343145113 	2.47060187519792 	4.14156123730615e-05 	0
2 	0.13358014716801 	-2.08166817117217e-17 	0.0437301549765113 	0.00446920828614337 	2.24029847528387 	4.96384003713996e-05 	0
2 	0.146295838495839 	-2.08166817117217e-17 	0.0436813021879635 	0.00485520230684708 	2.0581073282028 	6.1144890266474e-05 	0
2 	0.159477342834115 	-2.08166817117217e-17 	0.0436280756221883 	0.00522827624953112 	1.91096430478018 	7.48679189544085e-05 	0
2 	0.173141724277517 	-2.08166817117217e-17 	0.0435707268388989 	0.00559004478423725 	1.79013759311236 	9.02617164658288e-05 	0
2 	0.18730667202848 	-1.73472347597681e-17 	0.0435095341679766 	0.005941908631965 	1.68960721616156 	0.000107084370261251 	0
2 	0.201990523296728 	-1.38777878078145e-17 	0.0434448021113506 	0.00628508056776327 	1.60510932038303 	0.000125276886585129 	0
2 	0.217212287037676 	-1.38777878078145e-17 	0.0433768623348219 	0.00662061904314712 	1.53355448796864 	0.000144896139227846 	0
2 	0.232991668560441 	-1.38777878078145e-17 	0.0433060755719612 	0.00694946342703974 	1.47266312533703 	0.000166077988602075 	0
2 	0.249349095037321 	-2.08166817117217e-17 	0.0432328341418291 	0.00727246940125088 	1.42073098027378 	0.000189017920490122 	0
2 	0.266305741947753 	-2.77555756156289e-17 	0.0431575650581058 	0.00759044512897035 	1.37647530666178 	0.000213962641879696 	0
2 	0.283883560490999 	-2.42861286636753e-17 	0.0430807339398256 	0.0079041899056635 	1.33893282691978 	0.000241209490017215 	0
2 	0.30210530600303 	-2.08166817117217e-17 	0.0430028502089916 	0.00821453777306064 	1.30739238066456 	0.000271112610830233 	0
2 	0.320994567414414 	-2.77555756156289e-17 	0.042924474462185 	0.00852240936669917 	1.28135209564848 	0.000304096403530126 	0
2 	0.340575797787321 	-3.12250225675825e-17 	0.0428462295350612 	0.00882887628771252 	1.2604952532797 	0.000340678173815412 	0
2 	0.360874345971201 	-3.46944695195361e-17 	0.0427688177847516 	0.00913524373099233 	1.24468197014453 	0.000381503631879246 	0
2 	0.381916489418091 	-4.85722573273506e-17 	0.0426930487178504 	0.00944315920052152 	1.23395610037129 	0.000427401143770988 	0
2 	0.403729468200046 	-4.23923049441832e-17 	0.0426199925057745 	0.00975476850828699 	1.22857492523479 	0.000479476042810723 	0
2 	0.426341520272733 	-3.15502832193282e-17 	0.0425530333862333 	0.0100732290388671 	1.22917564738952 	0.000539515012553278 	0
2 	0.449781918030829 	-3.25260651745651e-17 	0.0424916221735471 	0.0104022438011054 	1.23649287000924 	0.000609412231843799 	0
2 	0.474081006202548 	-3.20923843055709e-17 	0.0424378582137101 	0.0107470628635101 	1.25182752501919 	0.000692156657723387 	0
2 	0.499270241132364 	-2.94902990916057e-17 	0.0423946772957464 	0.0111148900808058 	1.27710764727706 	0.000792048868154674 	0
2 	0.525382231502763 	-3.03576608295941e-17 	0.0423663617366472 	0.0115157076298462 	1.31515870290686 	0.000915311163331923 	0
2 	0.552450780547767 	-3.90312782094782e-17 	0.0423595381057556 	0.011963494656402 	1.3701104748183 	0.00107081112993216 	0
2 	0.58051092981285 	-4.9439619065339e-17 	0.0423839166539649 	0.0124777433374203 	1.44776335424234 	0.00127031974200756 	0
2 	0.609599004517911 	-5.03069808033274e-17 	0.0424485480915645 	0.0130823124156967 	1.55364281456563 	0.00152745419853342 	0
2 	0.639752660582033 	-4.16333634234434e-17 	0.0425551232295605 	0.0137953773218623 	1.68468657546598 	0.00186009381164564 	0
2 	0.671010933370887 	-3.29597460435593e-17 	0.0427049234587325 	0.0146394863315349 	1.83375902130587 	0.00229805824227872 	0
2 	0.703414288229901 	-2.42861286636753e-17 	0.0429075279076569 	0.0156512503106284 	2.00183241395556 	0.00292673035674109 	0
2 	0.737004672868607 	-2.08166817117217e-17 	0.0431364860790447 	0.0168927233930782 	2.19525384439971 	0.00380551941685541 	0
2 	0.771825571663977 	-2.08166817117217e-17 	0.0433773784787672 	0.0184428656305428 	2.41837633264185 	0.00502670154830876 	0
2 	0.807922061953054 	-1.04083408558608e-17 	0.0436512819113331 	0.0203102453653716 	2.66118824048346 	0.00659090708746695 	0
2 	0.845340872387743 	3.46944695195361e-18 	0.0439582020510085 	0.0223727352109715 	2.89908382054397 	0.00835444835547338 	0
2 	0.884130443427309 	1.38777878078145e-17 	0.044295151023611 	0.024395209096131 	3.10260037864114 	0.0100945016362263 	0
2 	0.924340990046897 	2.42861286636753e-17 	0.0446640299057949 	0.0260982687969226 	3.2461100853896 	0.0115552229573272 	0
2 	0.953974676970842 	2.99239799605999e-17 	0.0449461014297863 	0.0270196256949406 	3.30585291758426 	0.0123152385574911 	0
2 	0.975194291935934 	2.99239799605999e-17 	0.0451521519084344 	0.0274521327960647 	3.31970798478056 	0.0126291366859209 	0
2 	1.00924605669773 	3.46944695195361e-17 	0.0455045760522745 	0.0278031880614451 	3.29794049574173 	0.0127157711717174 	0
2 	1.05404932893872 	3.81639164714898e-17 	0.0460435904799941 	0.0277030295149205 	3.19135643703677 	0.0120352604521212 	0
2 	1.10049289270005 	4.5102810375397e-17 	0.0466964432741737 	0.0271003090751384 	2.9965340606368 	0.0104991475958207 	0
2 	1.1486367561192 	6.24500451351651e-17 	0.0473599477304299 	0.0262399800595945 	2.73333603783066 	0.00849912714191053 	0
2 	1.19854311870798 	6.93889390390723e-17 	0.0479579081699899 	0.025381307295913 	2.43858847016692 	0.0065316357156383 	0
2 	1.25027645100039 	6.93889390390723e-17 	0.0484800186813496 	0.0246909259587744 	2.15101957688042 	0.00493944945241468 	0
2 	1.30390357705621 	6.93889390390723e-17 	0.0489388047864036 	0.0242061260970515 	1.89602036249044 	0.0038192067714833 	0
2 	1.35949375991811 	6.24500451351651e-17 	0.0493509279450456 	0.0238732857069773 	1.68212122009893 	0.00309884019562221 	0
2 	1.41711879012317 	5.55111512312578e-17 	0.0497334262259948 	0.0236048451722975 	1.50672968225193 	0.00265342522627282 	0
2 	1.47685307737193 	5.94142790522056e-17 	0.0501018236691779 	0.0233172665639477 	1.36251758794729 	0.00237152388669976 	0
2 	1.53877374546149 	6.50521303491303e-17 	0.0504659386896628 	0.0229425398355154 	1.24225873854181 	0.00217456026682353 	0
2 	1.60296073059122 	7.32920668600201e-17 	0.0508355456945051 	0.0224435333491148 	1.13848330783285 	0.00200827608848082 	0
2 	1.66949688315289 	7.97972798949331e-17 	0.0512151242569154 	0.0218086131957604 	1.04591330858885 	0.00184604474664549 	0
2 	1.73846807311896 	7.45931094670027e-17 	0.0516072122909031 	0.0210417787315705 	0.961294266609526 	0.00167850950080015 	0
2 	1.80996329914586 	7.28583859910259e-17 	0.0520101954284411 	0.0201656996246508 	0.884585651565668 	0.00150467169553369 	0
2 	1.88407480151058 	7.28583859910259e-17 	0.0524190307963249 	0.0192122599267815 	0.816323018537933 	0.00132820092327456 	0
2 	1.96089817900171 	6.93889390390723e-17 	0.0528292938170401 	0.0182134805920137 	0.755360115812219 	0.00115461045966549 	0
2 	2.04004996790234 	6.93889390390723e-17 	0.0532395249243641 	0.0172080745321923 	0.700815401196923 	0.000989062147656699 	0
2 	2.11873460271874 	6.93889390390723e-17 	0.0536320735973886 	0.0162401417053648 	0.652900633120991 	0.000839599523158594 	0
2 	2.19463865000284 	6.93889390390723e-17 	0.0539975432414175 	0.0153376581151151 	0.61118748220406 	0.00071088473374648 	0
2 	2.26786037121375 	6.93889390390723e-17 	0.0543398392465793 	0.0145019407002067 	0.574341911055033 	0.000601863957097923 	0
2 	2.33849455540975 	6.93889390390723e-17 	0.0546580600984724 	0.0137272046768852 	0.541560927373355 	0.000509855281052312 	0
2 	2.40663264195736 	6.93889390390723e-17 	0.0549540626799488 	0.0130092139849493 	0.512645826176239 	0.000432087254369483 	0
2 	2.47236283890404 	6.93889390390723e-17 	0.0552286736508702 	0.0123448479788468 	0.487604502375316 	0.000366115964880239 	0
2 	2.5357702371677 	7.28583859910259e-17 	0.0554828340556869 	0.0117305503894505 	0.46625189343954 	0.000309868503913052 	0
2 	2.59693692069107 	7.63278329429795e-17 	0.0557174683303425 	0.0111613565544118 	0.4481210516606 	0.000261637810057535 	0
2 	2.65594207270333 	7.97972798949331e-17 	0.0559337476994528 	0.0106321835206015 	0.432739157342843 	0.000220043544115045 	0
2 	2.71286207822658 	7.97972798949331e-17 	0.056132964595736 	0.0101389499911428 	0.419783078278169 	0.000183999742303992 	0
2 	2.76777062295999 	7.97972798949331e-17 	0.0563163989584232 	0.00967851760443897 	0.409045069589775 	0.000152660032348293 	0
2 	2.82073878866949 	8.32667268468867e-17 	0.0564852626843249 	0.00924837553012431 	0.400383111047979 	0.000125355720452935 	0
2 	2.87183514520654 	8.32667268468867e-17 	0.0566406851086873 	0.00884644722513318 	0.393697745177267 	0.000101554839420391 	0
2 	2.92112583927514 	8.32667268468867e-17 	0.0567837118564396 	0.00847097798906481 	0.388922092694453 	8.08365432955797e-05 	0
2 	2.96867468006189 	8.32667268468867e-17 	0.0569153091242206 	0.00812046786298624 	0.386017659826212 	6.28727717016929e-05 	0
