4 	0.0118766651674913 	1.73472347597681e-18 	-0.0820728313145611 	-1.53651087172017e-06 	2.77788260621003e-23
4 	0.020134001548576 	-5.20417042793042e-18 	-0.123212194114688 	-8.57810094892148e-05 	2.15596042381348e-21
4 	0.0286938283423949 	-6.93889390390723e-18 	-0.149792722446358 	-0.000254613419702813 	-3.32824483542978e-22
4 	0.0375672266585909 	-8.67361737988404e-18 	-0.162278776721889 	-0.000520544262190307 	-1.46123604317271e-22
4 	0.0467656835403032 	-1.38777878078145e-17 	-0.166260834726531 	-0.000852353287797792 	-1.32351145277925e-22
4 	0.0563011068347006 	-1.38777878078145e-17 	-0.166367962363993 	-0.00122965475491958 	1.12945269913923e-21
4 	0.0661858406082649 	-1.73472347597681e-17 	-0.164761496823932 	-0.00164334911127348 	1.01939618106472e-21
4 	0.0764326811267816 	-2.42861286636753e-17 	-0.162292405725952 	-0.00208786980541898 	-1.12040379677133e-21
4 	0.0870548934207257 	-2.42861286636753e-17 	-0.159308077164464 	-0.00255977387667049 	-5.14529912543233e-22
4 	0.0980662284574838 	-2.25514051876985e-17 	-0.155962021068447 	-0.00305732742430147 	2.83516564204867e-22
4 	0.109480940942647 	-2.94902990916057e-17 	-0.152325292091337 	-0.00357985085443325 	-1.23407779924034e-22
4 	0.121313807773416 	-3.46944695195361e-17 	-0.148429792018183 	-0.00412725354387839 	-3.72455964078876e-22
4 	0.13358014716801 	-3.46944695195361e-17 	-0.144286809933738 	-0.00469980785604655 	-2.38688907016359e-23
4 	0.146295838495838 	-3.46944695195361e-17 	-0.139895657328586 	-0.00529804748002925 	-6.712564732436e-23
4 	0.159477342834115 	-3.12250225675825e-17 	-0.135247957250207 	-0.00592271791197192 	9.84316131374798e-23
4 	0.173141724277517 	-2.77555756156289e-17 	-0.130329864963634 	-0.00657475205794321 	0
4 	0.18730667202848 	-3.12250225675825e-17 	-0.125123231092527 	-0.00725526092259341 	4.97592599091183e-24
4 	0.201990523296728 	-3.46944695195361e-17 	-0.119606187510907 	-0.00796553439278014 	3.93672311266339e-22
4 	0.217212287037676 	-3.12250225675825e-17 	-0.113753397270836 	-0.00870704923136915 	1.69353274503286e-22
4 	0.232991668560441 	-2.42861286636753e-17 	-0.107536095272864 	-0.00948148260539108 	-1.73128092813538e-22
4 	0.249349095037321 	-2.08166817117217e-17 	-0.100921988320269 	-0.0102907301310776 	-2.5017767717592e-22
4 	0.266305741947753 	-1.73472347597681e-17 	-0.0938750522314987 	-0.0111369277116105 	2.06612203567757e-23
4 	0.283883560490999 	-1.04083408558608e-17 	-0.0863552463234253 	-0.0120224764961409 	4.43309227863551e-22
4 	0.30210530600303 	-6.93889390390723e-18 	-0.0783181553123796 	-0.0129500701511732 	4.66055973082057e-24
4 	0.320994567414414 	-6.93889390390723e-18 	-0.069714562239597 	-0.0139227233392037 	0
4 	0.340575797787321 	-6.93889390390723e-18 	-0.0604899517448252 	-0.0149437999136548 	-7.83027958227418e-24
4 	0.360874345971201 	-6.93889390390723e-18 	-0.050583940076255 	-0.0160170386494317 	-8.67778123371929e-22
4 	0.381916489418091 	-1.04083408558608e-17 	-0.039929626264448 	-0.0171465717156494 	-5.22138219135895e-22
4 	0.403729468200046 	-1.38777878078145e-17 	-0.0284528577050582 	-0.0183369254320023 	-7.82758640327158e-23
4 	0.426341520272733 	-1.38777878078145e-17 	-0.0160714038359758 	-0.0195930007745941 	4.80174046102458e-22
4 	0.449781918030829 	-6.93889390390723e-18 	-0.00269401508250131 	-0.0209201054427406 	1.06763403545751e-23
4 	0.474081006202548 	-3.46944695195361e-18 	0.0117806927487089 	-0.0223241109412484 	3.91129822924679e-22
4 	0.499270241132364 	-6.93889390390723e-18 	0.0274655996138406 	-0.023810569047535 	-4.70339400189587e-22
4 	0.525382231502763 	-6.93889390390723e-18 	0.0445072522666211 	-0.0253844408549998 	-1.6649558332081e-21
4 	0.552450780547767 	-2.42861286636753e-17 	0.0632095571789446 	-0.0270580265699876 	-2.17312477887125e-21
4 	0.58051092981285 	-4.5102810375397e-17 	0.0841398293899212 	-0.0288575221004763 	-5.47106873108487e-22
4 	0.599204596617261 	-4.68375338513738e-17 	0.0990176098860629 	-0.0300949272185778 	-2.07738987355438e-22
4 	0.614010237655017 	-5.03069808033274e-17 	0.111654155316984 	-0.0311076688032459 	-8.62989189703628e-22
4 	0.639752660582033 	-5.55111512312578e-17 	0.13475009813492 	-0.0328979528440202 	-2.1095586842502e-21
4 	0.671010933370887 	-4.85722573273506e-17 	0.164753324502157 	-0.0351052065366635 	-2.85000628349616e-21
4 	0.703414288229901 	-4.5102810375397e-17 	0.197748484206082 	-0.0373841742746999 	-2.15404090238267e-21
4 	0.737004672868606 	-5.55111512312578e-17 	0.233520720671876 	-0.0396825776088253 	4.02101971811103e-23
4 	0.771825571663976 	-5.89805981832114e-17 	0.271813653385755 	-0.0419447403032429 	2.18430904935558e-21
4 	0.807922061953054 	-4.85722573273506e-17 	0.312300740463021 	-0.0441154844795048 	1.04567452850195e-21
4 	0.845340872387743 	-4.16333634234434e-17 	0.354552940324289 	-0.0461428178046037 	-1.81937798829237e-21
4 	0.884130443427309 	-4.16333634234434e-17 	0.398031558965773 	-0.0479796031958117 	2.93042788048983e-21
4 	0.924340990046898 	-4.16333634234434e-17 	0.4421068921647 	-0.0495838433924628 	-1.23723356761448e-21
4 	0.966024566743242 	-4.85722573273506e-17 	0.486084126690059 	-0.0509176118220171 	-1.07629126827381e-20
4 	1.00923513492173 	-5.20417042793042e-17 	0.529215883149693 	-0.0519457294338407 	-7.19327557927313e-21
4 	1.05402863275206 	-4.5102810375397e-17 	0.570695671659875 	-0.0526362038436473 	3.40084312164601e-21
4 	1.10046304758287 	-4.5102810375397e-17 	0.609664775320953 	-0.0529657602770774 	3.76675475999123e-21
4 	1.14859849100923 	-5.20417042793042e-17 	0.645331466824481 	-0.0529337623189792 	-1.76707187828008e-21
4 	1.19849727668995 	-5.89805981832114e-17 	0.677272326065232 	-0.0525694836627408 	-8.60175883764406e-22
4 	1.25022400101563 	-6.24500451351651e-17 	0.705709779641854 	-0.0519094570952882 	-1.19346772618731e-20
4 	1.30384562673186 	-6.93889390390723e-17 	0.731077640626266 	-0.0510264922621875 	1.98889884562052e-16
4 	1.35943156962565 	-8.32667268468867e-17 	0.753614680041428 	-0.0499986039253106 	1.14767377008394e-15
4 	1.41705378838762 	-8.32667268468867e-17 	0.773602843798712 	-0.0489149735115864 	-1.16515968921559e-15
4 	1.47678687776592 	-7.97972798949331e-17 	0.791504728986507 	-0.0478228839714517 	-1.34315423102933e-16
4 	1.53870816513278 	-8.32667268468867e-17 	0.807880256421713 	-0.0467338582263724 	-4.37030180119135e-23
4 	1.60289781058851 	-7.97972798949331e-17 	0.823227465627358 	-0.0456401990569694 	-4.57813853274545e-22
4 	1.66943891073267 	-7.28583859910259e-17 	0.837896025048573 	-0.0445274430407952 	-1.35448038406214e-20
4 	1.73841760623657 	-6.93889390390723e-17 	0.852097087156335 	-0.043379609127301 	3.70360708982555e-24
4 	1.8099231933566 	-6.93889390390723e-17 	0.865932850724616 	-0.0421828811583711 	1.42313155357565e-20
4 	1.88404823953249 	-6.46184494801361e-17 	0.879428436076967 	-0.0409252205737972 	-2.96279486241406e-20
4 	1.96088870322038 	-6.11490025281825e-17 	0.892548283771568 	-0.0395893697919108 	-1.81361345310111e-22
4 	2.04004996790234 	-6.24500451351651e-17 	0.90516714031302 	-0.0382312205364981 	0
4 	2.11873460271874 	-5.89805981832114e-17 	0.916830500808313 	-0.0368160623999963 	0
4 	2.19463865000285 	-5.89805981832114e-17 	0.927270925262266 	-0.0354601088337461 	0
4 	2.26786037121375 	-6.24500451351651e-17 	0.936586465025431 	-0.034142473117633 	0
4 	2.33849455540975 	-6.93889390390723e-17 	0.944876135898837 	-0.0328671566339467 	0
4 	2.40663264195737 	-7.28583859910259e-17 	0.952235761243857 	-0.0316368569264753 	0
4 	2.47236283890404 	-6.93889390390723e-17 	0.958757575657823 	-0.0304528467689662 	0
4 	2.5357702371677 	-7.28583859910259e-17 	0.964527367780462 	-0.0293154250887997 	0
4 	2.59693692069108 	-7.63278329429795e-17 	0.969622231339465 	-0.0282240866565507 	0
4 	2.65594207270333 	-8.37004077158809e-17 	0.974109863383852 	-0.0271777182109375 	0
4 	2.71286207822658 	-9.10729824887824e-17 	0.978048866218058 	-0.0261748128655101 	0
4 	2.76777062296 	-9.80118763926896e-17 	0.981489506233836 	-0.0252136259884974 	0
4 	2.8207387886695 	-1.01481323344643e-16 	0.984474611933948 	-0.0242922796436534 	0
4 	2.87183514520655 	-9.4542429440736e-17 	0.987040441339219 	-0.0234088337643303 	0
4 	2.92112583927514 	-9.10729824887824e-17 	0.989217447176595 	-0.0225613355188623 	0
4 	2.9686746800619 	-9.10729824887824e-17 	0.991030922977433 	-0.0217478542215111 	0
