4 	0.00391112967796265 	-2.08166817117217e-17 	0.142446143222871 	2.11873728918245e-05 	840.588740543902 	5.31105157126301e-06 	2.91216705719354e-38
4 	0.0118766651674913 	-2.42861286636753e-17 	0.142444054292953 	0.000238983228896869 	238.260475785007 	7.5064285966181e-05 	0
4 	0.020134001548576 	-3.12250225675825e-17 	0.142439170315058 	0.00116851712955891 	61.3226549639842 	0.000339656886108728 	0
4 	0.028693828342395 	-3.81639164714898e-17 	0.142424521250342 	0.0030823564749516 	25.7665858964281 	0.000439852746611929 	0
4 	0.0375672266585909 	-3.81639164714898e-17 	0.142393839887223 	0.00534553309082619 	14.031506190552 	0.000166609251389584 	0
4 	0.0467656835403032 	-3.81639164714898e-17 	0.142344386844394 	0.0074182543980679 	9.18739165200108 	3.0677671851175e-05 	0
4 	0.0563011068347006 	-3.81639164714898e-17 	0.142278723859219 	0.00921078517627064 	6.79675944285762 	6.77605246500573e-05 	0
4 	0.0661858406082648 	-3.46944695195361e-17 	0.14220115565599 	0.0107829121376992 	5.42744943450829 	0.000172509088452143 	0
4 	0.0764326811267815 	-3.46944695195361e-17 	0.14211486003776 	0.0121977629899923 	4.55410980083004 	0.000298959420351913 	0
4 	0.0870548934207257 	-3.46944695195361e-17 	0.142021826279538 	0.0135003292586929 	3.95395401418119 	0.000434106128416156 	0
4 	0.0980662284574838 	-3.81639164714898e-17 	0.141923488027956 	0.0147213720825866 	3.51932087364784 	0.000574798304117926 	0
4 	0.109480940942647 	-3.46944695195361e-17 	0.141821028294885 	0.0158824004497725 	3.19249468369841 	0.000720765796216192 	0
4 	0.121313807773416 	-2.77555756156289e-17 	0.141715468187898 	0.0169989884103694 	2.93994276895577 	0.000872659792574986 	0
4 	0.13358014716801 	-2.77555756156289e-17 	0.141607710050928 	0.0180828142607984 	2.74091900219919 	0.00103146605985558 	0
4 	0.146295838495838 	-2.77555756156289e-17 	0.141498570806325 	0.0191429195539588 	2.58193289816578 	0.00119832128766289 	0
4 	0.159477342834115 	-2.42861286636753e-17 	0.141388804383359 	0.0201865054456007 	2.45385474300835 	0.0013744597461535 	0
4 	0.173141724277517 	-1.73472347597681e-17 	0.141279115301859 	0.0212194501175885 	2.35030344166366 	0.00156120538591966 	0
4 	0.18730667202848 	-1.73472347597681e-17 	0.141170167189603 	0.0222466529711548 	2.26670121431665 	0.0017599802550451 	0
4 	0.201990523296728 	-2.42861286636753e-17 	0.141062588670196 	0.0232722674948353 	2.19969475464588 	0.0019723185718024 	0
4 	0.217212287037676 	-3.12250225675825e-17 	0.140956977974742 	0.0242998599293264 	2.14678748604061 	0.00219988238136384 	0
4 	0.232991668560441 	-3.81639164714898e-17 	0.140853907195654 	0.0253325164862897 	2.10609843829378 	0.00244447711532966 	0
4 	0.249349095037321 	-4.16333634234434e-17 	0.140753926915811 	0.0263729133036357 	2.07619977248524 	0.00270806620998895 	0
4 	0.266305741947753 	-4.16333634234434e-17 	0.140657571834021 	0.0274233580375577 	2.05600467199095 	0.00299278415976442 	0
4 	0.283883560490999 	-4.16333634234434e-17 	0.140565367937573 	0.0284858086299657 	2.04468836431689 	0.00330094733547518 	0
4 	0.30210530600303 	-4.5102810375397e-17 	0.140477841747604 	0.0295618725732365 	2.04163145207372 	0.0036350616977082 	0
4 	0.320994567414413 	-4.5102810375397e-17 	0.140395532155262 	0.0306527884723922 	2.04637857042107 	0.00399782621667105 	0
4 	0.340575797787321 	-3.81639164714898e-17 	0.140319005139119 	0.0317593906091386 	2.05860774340709 	0.00439213039148935 	0
4 	0.360874345971201 	-2.77555756156289e-17 	0.140248870876774 	0.032882056373981 	2.07810728115714 	0.00482104365184392 	0
4 	0.38191648941809 	-2.77555756156289e-17 	0.140185803561331 	0.0340206357404121 	2.10475797898862 	0.00528779293706338 	0
4 	0.403729468200046 	-3.81639164714898e-17 	0.140130574860287 	0.0351743613490692 	2.13851893767894 	0.00579572146268469 	0
4 	0.426341520272733 	-4.5102810375397e-17 	0.140084122409284 	0.0363417372442594 	2.17941562709199 	0.00634822627548888 	0
4 	0.449781918030829 	-3.81639164714898e-17 	0.140047564549429 	0.0375203531264141 	2.22752893171054 	0.00694874307935663 	0
4 	0.474081006202548 	-2.77555756156289e-17 	0.140021718460714 	0.0387059938412077 	2.28298407086832 	0.00760056613099116 	0
4 	0.499270241132363 	-3.12250225675825e-17 	0.140006474666193 	0.0398942498124263 	2.34593633066501 	0.00830683542885096 	0
4 	0.525382231502763 	-3.81639164714898e-17 	0.140005509866974 	0.041079382049188 	2.41655092343578 	0.00908021477213526 	0
4 	0.552450780547767 	-3.81639164714898e-17 	0.14004436261443 	0.0422544959708976 	2.49502306085188 	0.0100917851337922 	0
4 	0.580510929812849 	-3.46944695195361e-17 	0.1401404384056 	0.0434212009590113 	2.58241329428531 	0.0112412658360742 	0
4 	0.60959900451791 	-3.81639164714898e-17 	0.140272721276986 	0.0445764698907974 	2.67872344034343 	0.0126188847179308 	0
4 	0.639752660582032 	-3.12250225675825e-17 	0.14042099775614 	0.045669990353581 	2.77936325499884 	0.0140341351943329 	0
4 	0.671010933370886 	-2.77555756156289e-17 	0.140582763678759 	0.046623100508987 	2.87609909623197 	0.015312334171663 	0
4 	0.7034142882299 	-3.81639164714898e-17 	0.14076491488213 	0.0473555061166656 	2.95967456470165 	0.0163623201893032 	0
4 	0.737004672868606 	-3.81639164714898e-17 	0.140973916558839 	0.0478010190954076 	3.02267817306265 	0.01714910933561 	0
4 	0.771825571663976 	-4.5102810375397e-17 	0.14121210038155 	0.0479110530318576 	3.06116651482854 	0.0176526611544282 	0
4 	0.807922061953053 	-4.85722573273506e-17 	0.141477898789284 	0.0476520601337713 	3.07404271935819 	0.0178448626558676 	0
4 	0.845340872387742 	-3.81639164714898e-17 	0.141767715464937 	0.0470041217126373 	3.06138424265632 	0.0176923076738361 	0
4 	0.884130443427309 	-3.10081821330854e-17 	0.142078120278565 	0.0459620995179955 	3.02323890572072 	0.0171718697991436 	0
4 	0.924340990046897 	-2.62376925741492e-17 	0.142406990875771 	0.0445416081319948 	2.95940721963753 	0.016287445129903 	0
4 	0.966024566743241 	-2.99239799605999e-17 	0.142753219885322 	0.0427871869584355 	2.86997716651113 	0.015080019884648 	0
4 	1.00923513492173 	-3.16587034365767e-17 	0.143117656210746 	0.0407643207988421 	2.75526772281855 	0.0136157634390167 	0
4 	1.05402863275205 	-3.38271077815477e-17 	0.143501862430074 	0.0385602142840326 	2.61664568714114 	0.0119816689168949 	0
4 	1.10046304758287 	-3.51281503885303e-17 	0.143907317017284 	0.0362785795229416 	2.45736617193858 	0.0102790324309103 	0
4 	1.14859849100923 	-3.72965547335014e-17 	0.14433447510494 	0.0340366703919508 	2.28510653038225 	0.0086206946658166 	0
4 	1.19849727668994 	-3.98986399474666e-17 	0.14477949931114 	0.0319421452957828 	2.1106835393897 	0.00712068810319308 	0
4 	1.25022400101563 	-3.90312782094782e-17 	0.1452380341516 	0.0300533149564411 	1.94077321931407 	0.0058677275521558 	0
4 	1.30384562673185 	-3.81639164714898e-17 	0.145739253932213 	0.0283700809818664 	1.77752212019073 	0.00481621778330295 	0
4 	1.35943156962565 	-3.38271077815477e-17 	0.146269060247801 	0.026878049086723 	1.6226018703272 	0.00393656504835034 	0
4 	1.41705378838762 	-3.20923843055709e-17 	0.146787170837806 	0.0255644346118179 	1.47886326504974 	0.00321509126212308 	0
4 	1.47678687776592 	-3.29597460435593e-17 	0.147296358228315 	0.0244035421478214 	1.34899103917192 	0.00263393565549831 	0
4 	1.53870816513277 	-3.12250225675825e-17 	0.147797085640054 	0.0233505794448086 	1.23327626082865 	0.0021828406500724 	0
4 	1.60289781058851 	-2.94902990916057e-17 	0.148292785394357 	0.0223508912265119 	1.12999652586586 	0.00183506317256937 	0
4 	1.66943891073266 	-3.12250225675825e-17 	0.148784993795226 	0.0213563132926935 	1.03815735497042 	0.00155978070848329 	0
4 	1.73841760623657 	-3.12250225675825e-17 	0.149269128288897 	0.0203325289707694 	0.957699086872548 	0.00133095471362612 	0
4 	1.80992319335659 	-3.12250225675825e-17 	0.149738912808853 	0.019257477919407 	0.887693251351907 	0.00113020015396059 	0
4 	1.88404823953248 	-3.12250225675825e-17 	0.150190186026235 	0.0181207498172581 	0.826415539836011 	0.000946473639968308 	0
4 	1.96088870322037 	-2.94902990916057e-17 	0.150600033196598 	0.0169656864459537 	0.774407257326467 	0.000780546055016935 	0
4 	2.02025965173184 	-3.12250225675825e-17 	0.150899362887119 	0.0160186716067437 	0.738915781390488 	0.000655439166718522 	0
4 	2.06006301192217 	-2.77555756156289e-17 	0.151099808338675 	0.015331690611944 	0.716395106746831 	0.000572097648157337 	0
4 	2.09845978584128 	-2.77555756156289e-17 	0.151264865443928 	0.0147168159216475 	0.698567387048784 	0.000500528280225963 	0
4 	2.13549967996945 	-3.46944695195361e-17 	0.151414723796222 	0.0141299417499777 	0.683656475029497 	0.000434910444785623 	0
4 	2.17123064424048 	-3.46944695195361e-17 	0.151548870243855 	0.0135715359978136 	0.671548728442251 	0.000375212926762235 	0
4 	2.20569893411515 	-3.12250225675825e-17 	0.151668148270471 	0.0130416587394616 	0.662158340780746 	0.000321123082434036 	0
4 	2.23894917046122 	-2.77555756156289e-17 	0.151773743784012 	0.0125400427265192 	0.655424166833552 	0.00027238022845945 	0
4 	2.27102439731725 	-3.46944695195361e-17 	0.151866758072847 	0.0120661712394386 	0.651308551476181 	0.000228734400755844 	0
4 	2.30196613761521 	-4.16333634234434e-17 	0.151948233505789 	0.0116193500064686 	0.649797355535177 	0.000189951959040902 	0
4 	2.33181444693391 	-4.16333634234434e-17 	0.15201917691287 	0.0111987700773144 	0.650900641046874 	0.000155826439195369 	0
4 	2.3606079653529 	-4.16333634234434e-17 	0.152080557236712 	0.010803560476903 	0.654653721864665 	0.00012618632347375 	0
4 	2.3883839674739 	-3.81639164714898e-17 	0.152133301598831 	0.0104328308868445 	0.661118442727848 	0.000100901081105539 	0
4 	2.41517841067461 	-3.12250225675825e-17 	0.152178292782502 	0.0100857052438354 	0.670384632762281 	7.98862148478871e-05 	0
4 	2.44102598165722 	-3.46944695195361e-17 	0.152216367026248 	0.00976134734927497 	0.682571719270014 	6.31074913410095e-05 	0
4 	2.46596014135207 	-4.16333634234434e-17 	0.152248311917817 	0.0094589795694144 	0.697830504250707 	5.0584503419399e-05 	0
4 	2.49001316823443 	-4.5102810375397e-17 	0.152274864484934 	0.00917789558021644 	0.716345110499762 	4.23936777742836e-05 	0
4 	2.51321620011054 	-4.85722573273506e-17 	0.152296709554664 	0.00891746794262677 	0.738335103563969 	3.86707674843289e-05 	0
4 	2.535599274427 	-4.85722573273506e-17 	0.152314478437673 	0.00867715112540997 	0.76405779558735 	3.96128018811189e-05 	0
4 	2.55719136715571 	-4.85722573273506e-17 	0.15232874799741 	0.00845648045245807 	0.793810741548931 	4.54794263710184e-05 	0
4 	2.57802043030465 	-4.85722573273506e-17 	0.152340040166917 	0.00825506735897747 	0.827934451714928 	5.65935651467214e-05 	0
4 	2.59811342810315 	-4.85722573273506e-17 	0.15234882197406 	0.00807259130958063 	0.866815370327747 	7.33413938780636e-05 	0
4 	2.61749637190832 	-4.85722573273506e-17 	0.152355506129432 	0.00790878876845062 	0.910889213206109 	9.61717296213236e-05 	0
4 	2.63619435387806 	-4.85722573273506e-17 	0.152360452219353 	0.00776343971672678 	0.960644818280259 	0.000125595137041014 	0
4 	2.65423157945406 	-4.16333634234434e-17 	0.152363968528635 	0.00763635237300734 	1.01662874271799 	0.000162183306746353 	0
4 	2.67163139869691 	-3.46944695195361e-17 	0.152366314493892 	0.00752734696281597 	1.07945093358511 	0.000206569557562016 	0
4 	2.68841633651388 	-3.46944695195361e-17 	0.152367703759015 	0.00743623956002424 	1.14979189582464 	0.000259451602080185 	0
4 	2.7046081218185 	-3.46944695195361e-17 	0.152368307771751 	0.00736282713338373 	1.22841186590268 	0.000321597925948791 	0
4 	2.72022771565972 	-3.46944695195361e-17 	0.152368259827372 	0.00730687491705904 	1.31616255176651 	0.000393859188015551 	0
4 	2.73529533835694 	-3.46944695195361e-17 	0.15236765943619 	0.00726810703884543 	1.41400199953002 	0.000477185880129214 	0
4 	2.74983049567625 	-3.46944695195361e-17 	0.152366576870697 	0.00724620096458509 	1.52301307999823 	0.000572653049915655 	0
4 	2.76385200408156 	-3.81639164714898e-17 	0.15236505773887 	0.00724078577449551 	1.64442595182411 	0.000681492189988301 	0
4 	2.77737801509343 	-3.81639164714898e-17 	0.152363127435269 	0.00725144364577223 	1.77964466916541 	0.000805129484710956 	0
4 	2.79042603878708 	-3.46944695195361e-17 	0.152360795343428 	0.00727771328514829 	1.93027789757433 	0.000945228568510008 	0
4 	2.80301296646003 	-3.81639164714898e-17 	0.152358058699575 	0.00731909356689257 	2.09817354005957 	0.00110373488272664 	0
4 	2.81515509249872 	-4.16333634234434e-17 	0.152354906035786 	0.00737504541825712 	2.28545703254461 	0.00128291769650689 	0
4 	2.82686813547237 	-4.16333634234434e-17 	0.15235132002616 	0.00744499017115394 	2.49457324776284 	0.00148540496242333 	0
4 	2.83816725848142 	-4.16333634234434e-17 	0.152347279732467 	0.00752830325986902 	2.72833250764645 	0.00171420562399823 	0
4 	2.84906708878691 	-4.5102810375397e-17 	0.152342764188042 	0.00762430336885238 	2.98996241637413 	0.00197271414760081 	0
4 	2.85958173674616 	-4.85722573273506e-17 	0.152337760694012 	0.00773223899688777 	3.2831695327499 	0.00226469314653585 	0
4 	2.86972481407933 	-4.85722573273506e-17 	0.152332259851773 	0.00785127697835805 	3.6122189020479 	0.00259424770504197 	0
4 	2.87950945149043 	-4.85722573273506e-17 	0.15232616212261 	0.00798050005523727 	3.98204532615662 	0.00296802918711604 	0
4 	2.88894831566566 	-4.85722573273506e-17 	0.152319255373904 	0.00811890143934251 	4.39862499280809 	0.00340197284524642 	0
4 	2.89805362567106 	-4.85722573273506e-17 	0.152311786166252 	0.008265311359156 	4.8702544527595 	0.00390753258879707 	0
4 	2.90683716877067 	-4.85722573273506e-17 	0.152303981905403 	0.00841813021900436 	5.40758301586931 	0.00449908983798501 	0
4 	2.91531031568569 	-5.20417042793042e-17 	0.152295735857469 	0.00857406345769087 	6.0206303673851 	0.00518563324954229 	0
4 	2.92348403531448 	-5.55111512312578e-17 	0.152287115179635 	0.00872738452674586 	6.71700795858878 	0.00596193586169258 	0
4 	2.93136890893229 	-5.89805981832114e-17 	0.152278141283584 	0.00887059140669389 	7.50311644460471 	0.00682245118783256 	0
4 	2.93897514388925 	-5.89805981832114e-17 	0.152268755694533 	0.0089950493056258 	8.38589620530581 	0.00776439008142121 	0
4 	2.94631258682425 	-5.20417042793042e-17 	0.152258917119593 	0.00909125131762775 	9.37476432762428 	0.00878572356854571 	0
4 	2.95339073641193 	-4.85722573273506e-17 	0.15224863807721 	0.00914882612202185 	10.4849990617269 	0.00988408737922766 	0
4 	2.96021875565915 	-4.85722573273506e-17 	0.152237980781619 	0.00915633868747355 	11.7410885219123 	0.0110561296106263 	0
4 	2.96680548376697 	-4.85722573273506e-17 	0.152227047451442 	0.009100951690577 	13.1747707395217 	0.012296520951963 	0
4 	2.97315944757337 	-4.85722573273506e-17 	0.15221597532213 	0.00896791457104134 	14.8293413615465 	0.0135956415765723 	0
4 	2.97928887259171 	-4.85722573273506e-17 	0.152204934721133 	0.00873957086951852 	16.7708055119659 	0.0149342024237486 	0
4 	2.98520169365902 	-4.85722573273506e-17 	0.152194125745009 	0.00839407372992665 	19.0990788992751 	0.0162729359869422 	0
4 	2.99090556520806 	-5.55111512312578e-17 	0.152183772364398 	0.00790397399864743 	21.9670318057947 	0.0175282328658077 	0
4 	2.99640787117633 	-6.24500451351651e-17 	0.152174119541841 	0.00723549903107187 	25.6184322724613 	0.0185238812199767 	0
4 	3.00171573456492 	-6.24500451351651e-17 	0.152165401822502 	0.00635147839735044 	30.4710946666255 	0.0189714862781132 	0
4 	3.00683602665962 	-6.24500451351651e-17 	0.152157830395277 	0.00521778548527941 	37.3274829136987 	0.0182459770873145 	0
4 	3.01177537592612 	-6.24500451351651e-17 	0.152151745859951 	0.00383341804458372 	47.9664283577659 	0.0150643106322255 	0
4 	3.01654017659085 	-6.24500451351651e-17 	0.152147385406837 	0.00234689089943736 	67.1423095705905 	0.00940449585474426 	0
4 	3.02113659691864 	-6.24500451351651e-17 	0.152144523847438 	0.00109734972361609 	110.737004355933 	0.00377876424391942 	0
4 	3.02557058719784 	-6.59194920871187e-17 	0.152142606498463 	0.000358377195491108 	247.826536731246 	0.00085265185927669 	0
4 	3.02984788744324 	-6.93889390390723e-17 	0.152141102313153 	7.1905081601294e-05 	1001.42596168493 	9.35789578789443e-05 	0
