# Probe 0 (0.0005 0.0001 0.00144)
# Probe 1 (0.0005 0.0001 0.01296)
# Probe 2 (0.0005 0.0009 0.01296)
# Probe 3 (0.0005 0.0009 0.00144)
# Probe 4 (0.0005 0.0005 0.0072)
#       Probe             0             1             2             3             4
#        Time
            1     0.0200004          0.02          0.02          0.02     0.0200001
            2     0.0200025          0.02     0.0200002     0.0200522     0.0200008
            3     0.0200056          0.02     0.0200031     0.0199205     0.0200023
            4     0.0200088          0.02     0.0200053      0.019742     0.0200045
            5     0.0200144     0.0200001      0.019997     0.0195264     0.0200081
            6     0.0200184     0.0200001     0.0200966      0.019386     0.0200119
            7     0.0200241     0.0200002     0.0203885     0.0193444     0.0200162
            8     0.0200322     0.0200004     0.0208239     0.0194723     0.0200227
            9     0.0200423     0.0200006     0.0213523     0.0196824     0.0200299
           10     0.0200535     0.0200008     0.0219502     0.0199793     0.0200346
           11     0.0200649     0.0200012     0.0226167     0.0203917     0.0200431
           12     0.0200761     0.0200016     0.0233409     0.0209224     0.0200588
           13     0.0200882     0.0200022     0.0241129     0.0215624     0.0200899
           14     0.0200999     0.0200029     0.0249255     0.0223046     0.0201315
           15     0.0201101     0.0200037     0.0257864     0.0231563     0.0202041
           16     0.0201253     0.0200047     0.0266747     0.0240998     0.0203155
           17     0.0201415     0.0200058     0.0275697     0.0251265     0.0204786
           18     0.0201595     0.0200066     0.0284718     0.0262345      0.020814
           19     0.0201793     0.0200071     0.0293815     0.0274267     0.0213623
           20     0.0202029     0.0200073     0.0303022     0.0287137     0.0221574
           21     0.0202346     0.0200076     0.0312361     0.0300993      0.023247
           22       0.02027     0.0200079     0.0321862     0.0315914     0.0245075
           23     0.0203345     0.0200084     0.0331547     0.0331944     0.0258443
           24     0.0204158     0.0200093     0.0341445     0.0349175     0.0274258
           25     0.0205291     0.0200102     0.0351582     0.0367712     0.0294712
           26     0.0206936     0.0200113     0.0361983     0.0387692     0.0318822
           27     0.0209032     0.0200128     0.0372671     0.0409262     0.0346791
           28     0.0211501     0.0200145     0.0383669     0.0432624     0.0378894
           29     0.0214292     0.0200163        0.0395     0.0458023     0.0415209
           30     0.0217646     0.0200182     0.0406686     0.0485783     0.0455792
           31     0.0221777     0.0200202     0.0418749      0.051632     0.0500818
           32     0.0226478     0.0200222      0.043121     0.0550169     0.0550722
           33     0.0231444     0.0200243     0.0444093     0.0588026     0.0606484
           34     0.0236853     0.0200265     0.0457421     0.0630767     0.0669788
           35       0.02428     0.0200288     0.0471225     0.0679499     0.0743206
           36     0.0248973     0.0200312     0.0485537     0.0734419     0.0828447
           37     0.0255811     0.0200337     0.0500389     0.0797989     0.0933009
           38     0.0263364     0.0200362     0.0515816     0.0872165      0.106543
           39     0.0271677     0.0200389     0.0531854     0.0959361      0.123695
           40     0.0280857     0.0200417     0.0548551      0.106259      0.146439
           41     0.0291482     0.0200446     0.0565979      0.118559      0.177081
           42     0.0303586     0.0200477     0.0584175      0.133304      0.217474
           43     0.0317363     0.0200509     0.0603178      0.151086      0.269488
           44     0.0333743     0.0200542     0.0623076      0.172638      0.330828
           45     0.0354091     0.0200577     0.0643949      0.198861      0.402622
           46     0.0379717     0.0200613     0.0665883      0.230856      0.486895
           47      0.041355     0.0200651     0.0688974       0.26996      0.585332
           48     0.0460732     0.0200691     0.0713326      0.317769      0.699314
           49     0.0529061     0.0200732     0.0739056      0.376132      0.829813
           50     0.0629319     0.0200775      0.076629      0.447147      0.977827
           51     0.0777397      0.020082     0.0795166      0.533093       1.14374
           52     0.0989368     0.0200867     0.0825838      0.636334       1.32757
           53      0.127652     0.0200917     0.0858474      0.759038       1.52918
           54      0.165584     0.0200968     0.0893263      0.902867       1.74781
           55      0.214396     0.0201023     0.0930413       1.06866       1.97921
           56      0.275387     0.0201079     0.0970156       1.25632       2.21523
           57      0.349186     0.0201139      0.101274       1.46463        2.4499
           58      0.435772     0.0201201      0.105846       1.69162       2.67872
           59      0.534629     0.0201267      0.110759       1.93449       2.90489
           60      0.644396     0.0201336      0.116046       2.19025       3.13073
           61      0.763158      0.020141      0.121737       2.45597       3.35723
           62      0.888949     0.0201487      0.127873       2.72868       3.58408
           63       1.01996      0.020157      0.134491       3.00612       3.81142
           64       1.15407     0.0201658      0.141635       3.28591       4.03946
           65       1.28965     0.0201753      0.149352       3.56627       4.26799
           66       1.42575     0.0201854      0.157692       3.84621       4.49647
           67       1.56184     0.0201963      0.166711       4.12516       4.72462
           68       1.69783     0.0202081      0.176469       4.40268       4.95237
           69       1.83358     0.0202209       0.18703       4.67867        5.1795
           70       1.96888     0.0202349      0.198466       4.95264       5.40561
           71       2.10358     0.0202501      0.210853       5.22395       5.63026
           72       2.23753     0.0202669      0.224274       5.49253       5.85308
           73       2.37062     0.0202853      0.238816       5.75837       6.07373
           74       2.50272     0.0203056      0.254575       6.02149       6.29194
           75       2.63369     0.0203281      0.271651       6.28187       6.50742
           76       2.76342      0.020353       0.29015       6.53945       6.71992
           77       2.89178     0.0203809      0.310186       6.79412       6.92921
           78       3.01866      0.020412      0.331877        7.0456       7.13508
           79       3.14393     0.0204468      0.355349       7.29332       7.33731
           80       3.26752      0.020486      0.380736       7.53723       7.53575
           81       3.38932       0.02053      0.408174       7.77732       7.73025
           82       3.50927     0.0205796      0.437805       8.01352       7.92071
           83       3.62731     0.0206357      0.469777       8.24577       8.10703
           84       3.74339     0.0206991      0.504237       8.47398       8.28916
           85       3.85749     0.0207709      0.541335       8.69803       8.46705
           86       3.96959     0.0208523      0.581221        8.9178        8.6407
           87       4.07968     0.0209448      0.624041       9.13317        8.8101
           88       4.18779     0.0210497      0.669937       9.34403       8.97528
           89       4.29393     0.0211686      0.719047       9.55026       9.13626
           90       4.39814     0.0213031      0.771497       9.75165        9.2931
           91       4.50047     0.0214552      0.827404        9.9482       9.44584
           92       4.59625      0.021629      0.887168       10.1409       9.59444
           93       4.69065      0.021826      0.950617        10.329       9.73909
           94       4.78344     0.0220495       1.01782       10.5123       9.87985
           95       4.87439     0.0223035       1.08884       10.6908       10.0168
           96        4.9636     0.0225924       1.16371       10.8646         10.15
           97       5.05121      0.022921       1.24243       11.0336       10.2794
           98       5.13731     0.0232945         1.325       11.1978       10.4053
           99         5.222     0.0237182       1.41137       11.3573       10.5276
          100       5.30533     0.0241982       1.50151       11.5121       10.6464
          101       5.38735     0.0247406       1.59532       11.6621       10.7618
          102        5.4681     0.0253503        1.6927       11.8076       10.8739
          103       5.54756     0.0260266       1.79355       11.9484       10.9826
          104       5.62573     0.0267448       1.89772       12.0848       11.0882
          105       5.70258     0.0274818       2.00506       12.2167       11.1906
          106       5.77812     0.0282391       2.11539       12.3442       11.2899
          107       5.85233     0.0290175       2.22853       12.4675       11.3862
          108       5.92503     0.0298177       2.34426       12.5865       11.4795
          109       5.99609     0.0306405       2.46234       12.7015       11.5699
          110       6.06551      0.031487       2.58249       12.8124       11.6574
          111       6.13332     0.0323585       2.70443       12.9194        11.742
          112       6.19956     0.0332566       2.82782       13.0225       11.8238
          113       6.26425     0.0341834       2.95232       13.1219       11.9027
          114       6.32739     0.0351422       3.07758       13.2176       11.9787
          115       6.38901     0.0361372       3.20325       13.3097        12.052
          116       6.44911     0.0371743       3.32897       13.3984       12.1225
          117       6.50768     0.0382611       3.45442       13.4836       12.1904
          118       6.56475     0.0394073       3.57928       13.5655       12.2556
          119       6.62027     0.0406241       3.70328       13.6442       12.3183
          120       6.67398      0.041924       3.82612       13.7196       12.3787
          121       6.72594     0.0433232       3.94758       13.7919       12.4367
          122       6.77617     0.0448393       4.06752       13.8612       12.4924
          123       6.82471     0.0464921       4.18585       13.9276       12.5457
          124       6.87159     0.0483033       4.30249       13.9913       12.5967
          125       6.91683     0.0502966       4.41741       14.0521       12.6454
          126       6.96045     0.0524967       4.53061       14.1103       12.6919
          127       7.00248     0.0549296        4.6421       14.1659       12.7361
          128       7.04293     0.0576215       4.75189        14.219       12.7781
          129       7.08182     0.0605992          4.86       14.2696       12.8179
          130       7.11916     0.0638888       4.96646       14.3178       12.8554
          131       7.15491     0.0675143        5.0713       14.3637       12.8907
          132       7.18905     0.0714957       5.17456       14.4072       12.9239
          133       7.22158     0.0758439       5.27622       14.4486       12.9551
          134        7.2525     0.0805538       5.37627       14.4878       12.9842
          135       7.28183     0.0856159        5.4747       14.5249       13.0114
          136        7.3096     0.0909815       5.57155         14.56       13.0366
          137       7.33585     0.0966299       5.66685        14.593         13.06
          138       7.36059      0.102593       5.76066       14.6242       13.0816
          139       7.38387      0.108883       5.85301       14.6534       13.1014
          140       7.40571      0.115516       5.94396       14.6809       13.1194
          141       7.42614      0.122504       6.03355       14.7065       13.1358
          142       7.44514      0.129862       6.12183       14.7305       13.1504
          143       7.46275      0.137606       6.20883       14.7527       13.1635
          144       7.47899      0.145747        6.2946       14.7733        13.175
          145       7.49387        0.1543       6.37917       14.7924       13.1851
          146       7.50744      0.163278       6.46258       14.8099       13.1938
          147       7.51974      0.172692       6.54486       14.8259        13.201
          148       7.53079      0.182555       6.62604       14.8404       13.2068
          149       7.54065      0.192878       6.70615       14.8536       13.2114
          150       7.54933      0.203669       6.78522       14.8654       13.2146
          151       7.55688      0.214938       6.86327       14.8759       13.2165
          152       7.56331      0.226693       6.94033       14.8851       13.2172
          153       7.56864       0.23894       7.01643       14.8931        13.217
          154       7.57291      0.251683       7.09157       14.8999       13.2157
          155       7.57615      0.264925       7.16578       14.9055       13.2134
          156       7.57839      0.278669       7.23904         14.91         13.21
          157       7.57966      0.292914       7.31138       14.9134       13.2057
          158       7.57999      0.307659       7.38282       14.9158       13.2003
          159       7.57942      0.322902       7.45338       14.9172       13.1939
          160       7.57797      0.338637       7.52309       14.9176       13.1866
          161       7.57568       0.35486       7.59197       14.9171       13.1784
          162       7.57256      0.371562       7.66003       14.9156       13.1692
          163       7.56864      0.388736       7.72731       14.9133        13.159
          164       7.56395      0.406372       7.79382       14.9102       13.1478
          165       7.55852      0.424459       7.85957       14.9063       13.1358
          166       7.55237      0.442986       7.92458       14.9016       13.1231
          167       7.54554      0.461939       7.98886       14.8961       13.1097
          168       7.53806      0.481305       8.05244         14.89       13.0955
          169       7.52994       0.50107       8.11532       14.8832       13.0807
          170       7.52123      0.521219       8.17751       14.8758       13.0652
          171       7.51194      0.541736       8.23902       14.8677        13.049
          172       7.50211      0.562605       8.29988       14.8591        13.032
          173       7.49175      0.583811       8.36008       14.8499       13.0143
          174        7.4809      0.605336       8.41964       14.8401        12.996
          175       7.46957      0.627164       8.47857       14.8299       12.9772
          176        7.4578      0.649278       8.53687       14.8192       12.9578
          177       7.44561      0.671661       8.59457       14.8081       12.9381
          178       7.43303      0.694298       8.65166       14.7966       12.9178
          179       7.42008      0.717171       8.70816       14.7846       12.8972
          180       7.40679      0.740264       8.76408       14.7724        12.876
          181       7.39317      0.763562       8.81942       14.7597       12.8544
          182       7.37926       0.78705        8.8742       14.7468       12.8323
          183       7.36507      0.810712       8.92842       14.7336       12.8099
          184       7.35063      0.834534       8.98208       14.7201       12.7872
          185       7.33596      0.858502       9.03521       14.7064       12.7642
          186       7.32108      0.882602       9.08781       14.6925        12.741
          187       7.30601      0.906821       9.13988       14.6784       12.7175
          188       7.29076      0.931146       9.19143       14.6642       12.6937
          189       7.27536      0.955566       9.24247       14.6498       12.6697
          190       7.25982      0.980069       9.29301       14.6352       12.6455
          191       7.24416       1.00464       9.34306       14.6206       12.6211
          192        7.2284       1.02928       9.39261       14.6058       12.5965
          193       7.21255       1.05397       9.44169        14.591       12.5718
          194       7.19663       1.07869       9.49028       14.5761        12.547
          195       7.18066       1.10345        9.5384       14.5612       12.5221
          196       7.16464       1.12823       9.58606       14.5463       12.4971
          197        7.1486       1.15303       9.63326       14.5314        12.472
          198       7.13254       1.17783       9.68001       14.5164       12.4469
          199       7.11649       1.20263       9.72632       14.5015       12.4218
          200       7.10045       1.22742       9.77219       14.4867       12.3966
          201       7.08443        1.2522       9.81763       14.4719       12.3714
          202       7.06846       1.27696       9.86265       14.4571       12.3462
          203       7.05253       1.30169       9.90725       14.4424       12.3211
          204       7.03666       1.32639       9.95144       14.4278        12.296
          205       7.02086       1.35105       9.99522       14.4133       12.2709
          206       7.00515       1.37568       10.0386       14.3989       12.2459
          207       6.98951       1.40027       10.0816       14.3846       12.2209
          208       6.97398       1.42481       10.1242       14.3704       12.1961
          209       6.95855       1.44931       10.1664       14.3564       12.1714
          210       6.94324       1.47375       10.2083       14.3424       12.1467
          211       6.92804       1.49815       10.2497       14.3287       12.1222
          212       6.91297        1.5225       10.2908        14.315       12.0979
          213       6.89804       1.54679       10.3316       14.3016       12.0736
          214       6.88325       1.57103        10.372       14.2883       12.0495
          215       6.86861       1.59522        10.412       14.2751       12.0256
          216       6.85412       1.61935       10.4517       14.2621       12.0018
          217       6.83979       1.64342        10.491       14.2493       11.9782
          218       6.82562       1.66744       10.5301       14.2367       11.9548
          219       6.81162       1.69141       10.5687       14.2243       11.9316
          220        6.7978       1.71532       10.6071       14.2121       11.9086
          221       6.78416       1.73918       10.6452          14.2       11.8857
          222        6.7707       1.76298       10.6829       14.1881       11.8631
          223       6.75743       1.78673       10.7203       14.1765       11.8407
          224       6.74435       1.81042       10.7574        14.165       11.8185
          225       6.73146       1.83406       10.7942       14.1538       11.7965
          226       6.71877       1.85765       10.8308       14.1427       11.7747
          227       6.70628       1.88119        10.867       14.1319       11.7532
          228         6.694       1.90467       10.9029       14.1212       11.7319
          229       6.68188       1.92811       10.9386       14.1108       11.7108
          230       6.66994       1.95149       10.9739       14.1005       11.6899
          231       6.65816       1.97482        11.009       14.0905       11.6691
          232       6.64656        1.9981       11.0438       14.0807       11.6486
          233       6.63516       2.02134       11.0784       14.0711       11.6283
          234       6.62395       2.04452       11.1126       14.0617       11.6083
          235       6.61294       2.06766       11.1466       14.0525       11.5885
          236       6.60214       2.09076       11.1804       14.0436        11.569
          237       6.59156        2.1138       11.2139       14.0348       11.5497
          238       6.58118       2.13681       11.2471       14.0262       11.5306
          239       6.57103       2.15977       11.2801       14.0179       11.5119
          240        6.5611       2.18268       11.3129       14.0097       11.4934
          241       6.55139       2.20555       11.3454       14.0018       11.4752
          242        6.5419       2.22838       11.3777       13.9941       11.4572
          243       6.53264       2.25117       11.4098       13.9865       11.4396
          244        6.5236       2.27392       11.4416       13.9792       11.4222
          245       6.51479       2.29663       11.4732        13.972       11.4051
          246        6.5062       2.31929       11.5045       13.9651       11.3882
          247       6.49783       2.34192       11.5357       13.9583       11.3716
          248       6.48969       2.36451       11.5666       13.9518       11.3553
          249       6.48177       2.38706       11.5974       13.9454       11.3393
          250       6.47406       2.40957       11.6279       13.9392       11.3235
          251       6.46658       2.43204       11.6582       13.9332       11.3081
          252       6.45931       2.45448       11.6882       13.9274       11.2928
          253       6.45226       2.47687       11.7181       13.9218       11.2779
          254       6.44542       2.49924       11.7478       13.9164       11.2632
          255       6.43879       2.52156       11.7773       13.9111       11.2488
          256       6.43237       2.54385       11.8066       13.9061       11.2347
          257       6.42615        2.5661       11.8357       13.9012       11.2208
          258       6.42014       2.58831       11.8646       13.8965       11.2072
          259       6.41433       2.61049       11.8933       13.8919       11.1939
          260       6.40872       2.63264       11.9218       13.8875       11.1808
          261        6.4033       2.65474       11.9501       13.8833        11.168
          262       6.39807       2.67682       11.9783       13.8793       11.1555
          263       6.39303       2.69885       12.0062       13.8754       11.1432
          264       6.38818       2.72085        12.034       13.8717       11.1312
          265       6.38351       2.74282       12.0616       13.8682       11.1195
          266       6.37902       2.76475       12.0891       13.8648        11.108
          267        6.3747       2.78664       12.1163       13.8615       11.0967
          268       6.37055        2.8085       12.1434       13.8585       11.0857
          269       6.36656       2.83033       12.1703       13.8555        11.075
          270       6.36274       2.85211        12.197       13.8527       11.0645
          271       6.35908       2.87387       12.2236       13.8501       11.0543
          272       6.35557       2.89558         12.25       13.8475       11.0443
          273       6.35222       2.91726       12.2762       13.8452       11.0345
          274       6.34901       2.93891       12.3023       13.8429        11.025
          275       6.34595       2.96052       12.3282       13.8408       11.0157
          276       6.34304       2.98209       12.3539       13.8388       11.0066
          277       6.34027       3.00362       12.3795       13.8369       10.9977
          278       6.33763       3.02512       12.4049       13.8352        10.989
          279       6.33513       3.04658       12.4302       13.8336       10.9806
          280       6.33277       3.06801       12.4553       13.8321       10.9723
          281       6.33053       3.08939       12.4802       13.8307       10.9643
          282       6.32842       3.11074        12.505       13.8294       10.9565
          283       6.32643       3.13206       12.5297       13.8282       10.9489
          284       6.32456       3.15333       12.5542       13.8271       10.9415
          285       6.32281       3.17456       12.5785       13.8262       10.9344
          286       6.32118       3.19576       12.6027       13.8253       10.9274
          287       6.31966       3.21692       12.6267       13.8245       10.9206
          288       6.31825       3.23804       12.6506       13.8238        10.914
          289       6.31694       3.25912       12.6744       13.8233       10.9076
          290       6.31574       3.28016        12.698       13.8228       10.9015
          291       6.31464       3.30116       12.7215       13.8224       10.8955
          292       6.31364       3.32212       12.7448       13.8221       10.8896
          293       6.31274       3.34304        12.768       13.8218        10.884
          294       6.31192       3.36391        12.791       13.8217       10.8786
          295        6.3112       3.38475       12.8139       13.8216       10.8733
          296       6.31057       3.40555       12.8367       13.8216       10.8682
          297       6.31002        3.4263       12.8593       13.8217       10.8632
          298       6.30955       3.44701       12.8818       13.8218       10.8585
          299       6.30916       3.46768       12.9042        13.822       10.8539
          300       6.30885        3.4883       12.9264       13.8223       10.8495
          301       6.30861       3.50889       12.9485       13.8227       10.8452
          302       6.30845       3.52942       12.9705       13.8231       10.8411
          303       6.30836       3.54992       12.9923       13.8235       10.8371
          304       6.30833       3.57037        13.014       13.8241       10.8333
          305       6.30837       3.59077       13.0356       13.8247       10.8296
          306       6.30847       3.61114        13.057       13.8253       10.8261
          307       6.30863       3.63145       13.0783        13.826       10.8227
          308       6.30885       3.65172       13.0995       13.8267       10.8195
          309       6.30912       3.67194       13.1205       13.8275       10.8164
          310       6.30945       3.69212       13.1415       13.8284       10.8134
          311       6.30983       3.71225       13.1623       13.8293       10.8106
          312       6.31026       3.73234        13.183       13.8302       10.8079
          313       6.31073       3.75237       13.2035       13.8312       10.8053
          314       6.31125       3.77236        13.224       13.8322       10.8028
          315       6.31182        3.7923       13.2443       13.8332       10.8005
          316       6.31243       3.81219       13.2645       13.8343       10.7982
          317       6.31307       3.83203       13.2845       13.8354       10.7961
          318       6.31375       3.85183       13.3045       13.8365       10.7941
          319       6.31447       3.87157       13.3243       13.8377       10.7922
          320       6.31522       3.89127        13.344       13.8389       10.7903
          321       6.31601       3.91091       13.3636       13.8402       10.7886
          322       6.31682       3.93051       13.3831       13.8414        10.787
          323       6.31767       3.95005       13.4025       13.8427       10.7855
          324       6.31854       3.96954       13.4217        13.844        10.784
          325       6.31943       3.98898       13.4408       13.8453       10.7827
          326       6.32036       4.00837       13.4598       13.8467       10.7814
          327        6.3213       4.02771       13.4787       13.8481       10.7802
          328       6.32226       4.04699       13.4975       13.8494       10.7792
          329       6.32325       4.06623       13.5162       13.8509       10.7782
          330       6.32425        4.0854       13.5348       13.8523       10.7772
          331       6.32527       4.10453       13.5532       13.8537       10.7764
          332       6.32631        4.1236       13.5716       13.8551       10.7756
          333       6.32736       4.14262       13.5898       13.8566       10.7749
          334       6.32842       4.16159       13.6079       13.8581       10.7743
          335       6.32949        4.1805       13.6259       13.8595       10.7738
          336       6.33058       4.19935       13.6438        13.861       10.7733
          337       6.33167       4.21815       13.6616       13.8625       10.7729
          338       6.33278        4.2369       13.6793        13.864       10.7726
          339       6.33389       4.25559       13.6969       13.8655       10.7723
          340       6.33501       4.27422       13.7143        13.867       10.7721
          341       6.33613        4.2928       13.7317       13.8686       10.7719
          342       6.33726       4.31132        13.749       13.8701       10.7718
          343       6.33839       4.32979       13.7661       13.8716       10.7718
          344       6.33953        4.3482       13.7832       13.8731       10.7718
          345       6.34067       4.36655       13.8001       13.8746       10.7719
          346       6.34181       4.38484        13.817       13.8762        10.772
          347       6.34294       4.40308       13.8337       13.8777       10.7722
          348       6.34408       4.42126       13.8504       13.8792       10.7724
          349       6.34522       4.43938       13.8669       13.8807       10.7726
          350       6.34636       4.45745       13.8833       13.8822       10.7729
          351       6.34749       4.47545       13.8997       13.8837       10.7733
          352       6.34862        4.4934       13.9159       13.8852       10.7737
          353       6.34975       4.51129        13.932       13.8867       10.7741