# Probe 0 (0.0005 0.0001 0.00144)
# Probe 1 (0.0005 0.0001 0.01296)
# Probe 2 (0.0005 0.0009 0.01296)
# Probe 3 (0.0005 0.0009 0.00144)
# Probe 4 (0.0005 0.0005 0.0072)
#       Probe             0             1             2             3             4
#        Time
            1       10.0031            10       22.6964       812.689       10.0005
            2       10.1369            10       36.9199       1958.42       10.0083
            3       10.3859            10       123.302       5334.77       10.0507
            4       10.6679            10       470.646       10740.9       10.0956
            5       10.9189       10.0001       1348.34       18879.4       10.1423
            6       10.9696       10.0002       2666.48       29507.9       10.2132
            7       11.0734       10.0006       4923.48       42236.5       10.3415
            8       11.1507       10.0013       8726.39       56700.3       10.5105
            9       11.4246       10.0027       17539.9       79088.1       10.7807
           10        11.827       10.0051       29460.5        102199       10.8882
           11       12.2686       10.0094       44257.2        125653       11.2092
           12       12.6572       10.0167       61566.3        149140       12.1097
           13       13.0866       10.0289       80980.4        172390       13.8767
           14       13.4816       10.0488        102007        195090       16.4675
           15       13.6435       10.0796        124164        216949       21.4053
           16       14.0799       10.1212        146941        237682       30.6659
           17       14.7712       10.1633        170926        257164       57.9333
           18       15.6076       10.1826        194259        275078        125.65
           19       16.4579       10.1877        216663        291420       246.043
           20       17.3996       10.1925        237949        306270       433.301
           21        18.453       10.1976        257991        319689       711.798
           22       20.1824       10.2033        276720        331761       1094.56
           23       23.2792       10.2284        294112        342549       1573.63
           24       28.1753       10.2574        310179        352144       2162.99
           25       36.3212       10.3051        324966        360642       2933.05
           26       51.4294       10.4104        338529        368150       3873.61
           27       73.7935       10.5757        350935        374755       4986.97
           28       103.165       10.7832        362253        380549       6276.76
           29        139.86       11.0207        372557        385612        7738.6
           30       186.722       11.2836        381919        390021       9359.57
           31       246.482       11.5707        390413        393851       11120.6
           32       313.443       11.8826        398104        397168         13001
           33       386.776       12.2204        405054        400039       14984.9
           34       466.785       12.5852        411318        402520       17065.1
           35       554.872       12.9787        416951        404672       19241.3
           36       652.904       13.4022        422002        406552       21513.6
           37       762.693       13.8576        426521        408220       23885.1
           38       886.424       14.3463        430551        409732         26360
           39       1049.09        14.871        434157        411178       29138.4
           40       1234.91       15.4323        437345        412573       31936.7
           41       1449.95       16.0312        440166        413980       34729.2
           42       1698.34        16.669        442648        415464       37449.4
           43       1984.52       17.3472        444803        417125       40020.6
           44       2316.31       18.0671        446665        419044       42465.1
           45       2709.94       18.8302        448263        421280         44788
           46       3178.54       19.6381        449623        423887       47030.3
           47       3741.31       20.4925        450770        426911       49201.5
           48       4431.07       21.3955        451725        430386       51286.8
           49       5284.59       22.3492        452506        434324       53267.4
           50       6352.29       23.3561        453133        438712       55134.3
           51       7669.02       24.4187        453618        443500       56868.6
           52       9235.47       25.5402        453977        448592       58461.5
           53       11014.2       26.7242        454222        453829       59912.2
           54       12970.8       27.9755        454365        458991       61214.7
           55       15052.3       29.2998        454419        463826       62312.8
           56       17179.5       30.7046        454395        468101       63153.2
           57       19248.6       32.1989        454304        471628       63814.3
           58       21172.5       33.7941        454156        474312       64407.3
           59       22900.4       35.5032        453960        476103       64986.6
           60         24402       37.3417        453723        477038       65589.2
           61       25666.7       39.3283        453441        477211       66213.7
           62       26706.6       41.4837        453127        476708       66841.9
           63       27549.6       43.8312        452792        475661       67458.1
           64         28227       46.3975        452442        474157       68054.7
           65       28770.3        49.213        452084        472299       68624.6
           66       29210.9       52.3124        451726        470202       69160.6
           67       29575.9       55.7357        451371        467966       69659.5
           68       29854.6       59.5319        451025        465708       70111.7
           69       30101.9       63.7522        450694        463391       70531.3
           70         30324       68.4577        450382        461049       70917.4
           71       30524.9       73.7189        450093        458695       71268.9
           72       30706.8       79.6173        449830        456355       71586.1
           73       30871.1       86.2471        449597        454050       71869.8
           74       31018.5       93.7176        449397        451791       72121.2
           75       31149.3       102.156        449233        449581       72342.1
           76       31263.6       111.708        449107        447419       72533.8
           77       31361.6       122.545        449021        445301       72697.8
           78       31443.1        134.86        448977        443224       72835.4
           79       31508.3       148.878        448976        441183       72947.9
           80       31557.3       164.852        449019        439184       73036.3
           81       31590.3       183.074        449107        437226       73101.8
           82       31607.4       203.887        449238        435307       73145.7
           83       31608.9       227.691        449412        433423       73169.1
           84       31595.1       254.951        449627        431571       73173.1
           85       31566.2       286.199        449880        429750       73158.8
           86       31522.8       322.019        450169        427958       73127.2
           87         31465       362.992        450490        426193       73079.1
           88       31393.4       409.494        450839        424454       73015.7
           89       31308.3       461.437        451211        422743       72937.7
           90       31210.3       518.961        451600        421063         72846
           91       31100.2       583.021        452002        419413       72741.5
           92       30979.2       654.952        452409        417794       72624.8
           93         30850       736.226        452816        416207       72496.9
           94       30711.8       828.447        453216        414651       72358.5
           95       30564.2       933.347        453602        413125       72210.1
           96         30409       1052.78        453968        411627       72052.2
           97       30248.3       1188.65        454307        410157       71885.3
           98       30083.5       1342.96        454613        408715       71709.9
           99       29915.8       1517.86        454879        407301       71526.6
          100       29745.8       1715.53        455100        405916       71335.7
          101       29574.4       1938.25        455272        404560       71137.8
          102       29406.4       2188.19        455389        403234       70933.3
          103       29240.7       2466.66        455449        401937       70722.6
          104       29076.4       2772.09        455448        400671       70506.1
          105       28913.4       3092.97        455383        399436       70283.9
          106       28751.7       3419.06        455252        398230       70056.5
          107       28591.4       3750.58        455052        397055       69824.4
          108       28432.1       4087.45        454781        395911       69587.8
          109       28273.8       4429.56        454435        394797       69347.1
          110       28117.1       4776.75        454008        393714       69102.7
          111       27962.9        5128.8        453496        392661       68854.7
          112       27811.7       5485.46        452892        391638       68602.8
          113       27663.8        5846.4        452194        390644         68347
          114       27519.4       6211.24        451399        389679       68087.4
          115       27378.7       6579.51        450505        388744       67824.4
          116       27241.7       6950.78        449514        387836       67558.3
          117       27108.5       7324.83        448429        386956       67289.4
          118       26979.1        7701.5        447254        386103         67018
          119       26853.5       8080.46        445997        385277       66744.7
          120       26730.8        8460.9        444662        384474       66470.7
          121       26611.2       8842.26        443258        383695       66196.1
          122       26494.9       9223.64        441799        382942       65920.9
          123         26382        9603.8        440298        382215         65645
          124       26272.8       9981.18        438768        381513       65368.7
          125       26167.2       10354.1        437219        380836       65091.8
          126       26065.2       10720.8        435662        380182       64814.7
          127       25966.7       11079.6        434104        379552       64537.4
          128       25871.7         11429        432553        378944         64260
          129         25780       11767.4        431013        378359       63982.1
          130       25691.4       12094.6        429489        377794       63703.6
          131       25605.6       12411.5        427984        377249       63424.8
          132       25522.4       12719.9        426500        376725       63145.9
          133       25441.5       13021.7        425038        376219       62867.3
          134       25362.8       13318.7        423598        375732       62589.3
          135       25286.1       13613.2        422181        375263         62312
          136       25211.3         13909        420789        374811       62035.7
          137       25138.3       14210.3        419422        374377       61760.5
          138         25067       14518.7        418083        373958       61486.7
          139       24997.3       14834.6        416773        373556       61214.3
          140       24929.1       15158.4        415493        373169       60943.5
          141       24862.2       15490.6        414242        372797       60674.4
          142       24796.5       15831.5        413022        372439       60407.5
          143       24731.8       16181.4        411831        372096       60143.1
          144         24668       16540.6        410670        371766       59881.3
          145       24605.1       16909.2        409537        371449       59622.2
          146         24543       17287.1        408433        371145       59365.8
          147       24481.6         17674        407356        370854       59112.1
          148       24420.9       18069.5        406307        370574       58861.1
          149         24361       18472.7        405283        370306       58612.9
          150       24301.7       18882.4        404286        370050       58367.3
          151       24243.1       19296.7        403313        369804       58124.4
          152         24185         19715        402366        369568       57884.6
          153       24127.4       20136.8        401441        369343       57650.3
          154       24070.4       20561.4        400540        369128       57420.6
          155       24013.8       20988.2        399662        368923       57195.2
          156       23957.8       21416.6        398806        368727       56973.5
          157       23902.2       21845.8        397971        368539       56755.5
          158         23847       22275.3        397157        368361       56540.8
          159       23792.4       22704.2        396363        368191       56329.5
          160       23738.3       23132.1        395590        368029       56121.3
          161       23684.6       23558.1        394837        367875       55916.3
          162       23631.3       23981.7        394103        367728       55714.6
          163       23578.6       24402.3        393387        367590       55516.9
          164       23526.2       24819.2        392689        367458         55323
          165       23474.4       25231.9        392009        367333       55132.8
          166         23423       25639.9        391346        367215       54946.1
          167         23372       26042.6        390700        367104       54762.8
          168       23321.6       26439.7        390069        366999       54582.8
          169       23271.6       26830.7        389454        366900       54405.9
          170       23222.1       27215.1        388854        366807       54232.1
          171       23173.1       27592.8        388268        366720       54060.7
          172       23124.7       27963.3        387697        366638       53891.3
          173       23076.7       28326.5        387140        366562       53724.7
          174       23029.3       28682.1        386596        366491       53561.1
          175       22982.3       29029.9        386065        366426       53400.6
          176       22935.9       29369.8        385546        366365       53243.1
          177         22890       29701.7        385041        366309       53088.6
          178       22844.7       30025.5        384547        366258         52937
          179       22799.9       30341.1        384065        366211       52788.1
          180       22755.7       30648.5        383594        366169       52641.5
          181         22712       30947.9        383134        366131       52497.3
          182         22669       31239.1        382685        366098       52355.8
          183       22626.5       31522.2        382247        366068       52216.9
          184       22584.5       31797.4        381819        366043       52080.7
          185       22543.2       32064.7        381402        366021       51947.2
          186       22502.5       32324.3        380994        366003       51816.3
          187       22462.4       32576.3        380595        365989         51688
          188       22422.8       32820.8        380206        365978       51562.2
          189       22383.9         33058        379826        365971       51438.6
          190       22345.6         33288        379456        365966       51317.4
          191       22307.9       33511.1        379094        365965       51198.5
          192       22270.8       33727.3        378740        365967       51082.1
          193       22234.3       33936.9        378395        365972         50968
          194       22198.4         34140        378059        365980       50856.3
          195       22163.2       34336.9        377730        365991         50747
          196       22128.6       34527.7        377410        366004       50639.9
          197       22094.6       34712.5        377097        366020       50535.2
          198       22061.2       34891.6        376792        366038       50432.7
          199       22028.4       35065.2        376495        366058       50332.4
          200       21996.2       35233.3        376204        366081       50234.1
          201       21964.7       35396.3        375921        366106         50138
          202       21933.8       35554.2        375644        366132       50043.9
          203       21903.5       35707.2        375375        366161       49951.9
          204       21873.8       35855.5        375112        366192         49862
          205       21844.8       35999.4        374855        366224       49774.1
          206       21816.3       36138.8        374605        366258       49688.2
          207       21788.5       36274.1        374361        366293       49604.4
          208       21761.3       36405.4        374124        366330       49522.5
          209       21734.6       36532.8        373892        366368       49442.5
          210       21708.6       36656.5        373666        366408       49364.5
          211       21683.2       36776.7        373445        366448       49288.3
          212       21658.3       36893.4        373230        366490         49214
          213         21634       37006.9        373021        366532       49141.6
          214       21610.4       37117.2        372817        366576       49070.9
          215       21587.2       37224.5        372618        366620         49002
          216       21564.7       37328.9        372424        366665       48934.9
          217       21542.7       37430.5        372236        366711       48869.5
          218       21521.3       37529.5        372052        366757       48805.7
          219       21500.5       37625.9        371873        366804       48743.7
          220       21480.2       37719.8        371699        366852       48683.2
          221       21460.5       37811.5        371529        366899       48624.4
          222       21441.3       37900.8        371364        366947       48567.2
          223       21422.6         37988        371204        366996       48511.6
          224       21404.5       38073.1        371047        367045       48457.5
          225       21386.9       38156.2        370895        367093       48404.9
          226       21369.9       38237.4        370747        367142       48353.8
          227       21353.3       38316.7        370604        367192       48304.2
          228       21337.3       38394.3        370464        367241         48256
          229       21324.4       38471.1        370330        367291       48213.9
          230       21311.7       38546.3        370200        367340       48172.6
          231       21299.1       38619.8        370073        367390       48132.2
          232       21286.8       38691.7        369950        367439       48092.7
          233       21274.6       38762.1        369830        367488       48054.1
          234       21262.8       38831.1        369713        367536       48016.6
          235       21251.1       38898.6        369600        367585       47980.1
          236       21239.8       38964.7        369490        367633       47944.5
          237       21228.7       39029.6        369383        367680         47910
          238         21218       39093.1        369279        367727       47876.6
          239       21207.5       39155.4        369178        367774       47844.1
          240       21197.4       39216.4        369081        367821       47812.7
          241       21187.6       39276.3        368986        367867       47782.3
          242       21178.1       39335.1        368894        367912       47752.9
          243       21168.9       39392.7        368806        367957       47724.5
          244       21160.1       39449.2        368720        368001         47697
          245       21151.6       39504.7        368636        368045       47670.6
          246       21143.4       39559.2        368556        368089       47645.1
          247       21135.5       39612.6        368478        368131       47620.5
          248         21128         39665        368403        368174       47596.8
          249       21120.9       39716.5        368330        368215         47574
          250         21114       39767.1        368260        368256       47552.1
          251       21107.5       39816.7        368192        368297         47531
          252       21101.3       39865.4        368127        368337       47510.9
          253       21095.5       39913.3        368064        368376       47491.6
          254       21089.9       39960.2        368003        368415       47473.2
          255       21084.7       40006.3        367945        368453       47455.6
          256       21079.8       40051.6        367888        368491       47438.9
          257       21075.2         40096        367834        368528       47422.9
          258       21070.9       40139.7        367782        368564       47407.8
          259       21066.9       40182.5        367732        368600       47393.5
          260       21063.1       40224.5        367684        368636       47379.9
          261       21059.7       40265.8        367638        368670       47367.1
          262       21056.5       40306.3        367594        368704       47355.1
          263       21053.6         40346        367552        368738       47343.8
          264         21051         40385        367511        368771       47333.2
          265       21048.7       40423.2        367473        368803       47323.3
          266       21046.5       40460.7        367436        368835       47314.1
          267       21044.7       40497.5        367401        368866       47305.5
          268         21043       40533.6        367367        368897       47297.7
          269       21041.6         40569        367335        368927       47290.4
          270       21040.4       40603.7        367305        368956       47283.8
          271       21039.4       40637.6        367277        368985       47277.8
          272       21038.6       40670.9        367249        369013       47272.4
          273       21038.1       40703.6        367224        369041       47267.5
          274       21037.7       40735.5        367200        369068       47263.1
          275       21037.5       40766.8        367177        369094       47259.3
          276       21037.4       40797.4        367156        369120       47255.9
          277       21037.6       40827.4        367136        369145         47253
          278       21037.9       40856.7        367117        369170       47250.6
          279       21038.4       40885.4        367100        369194       47248.7
          280       21039.1       40913.4        367084        369217       47247.2
          281       21039.9       40940.8        367069        369240       47246.3
          282       21040.9       40967.5        367055        369262       47245.7
          283         21042       40993.7        367043        369284       47245.7
          284       21043.3       41019.2        367032        369305         47246
          285       21044.6       41044.1        367022        369326       47246.8
          286       21046.2       41068.3        367013        369346         47248
          287       21047.8         41092        367005        369366       47249.6
          288       21049.6       41115.1        366998        369385       47251.6
          289       21051.4       41137.5        366992        369404       47253.9
          290       21053.4       41159.4        366987        369422       47256.6
          291       21055.5       41180.6        366983        369440       47259.7
          292       21057.7       41201.3        366981        369458       47263.1
          293         21060       41221.4        366979        369474       47266.8
          294       21062.4       41240.9        366978        369491       47270.8
          295       21064.8       41259.8        366978        369507       47275.1
          296       21067.4       41278.2        366978        369522       47279.7
          297         21070         41296        366980        369538       47284.6
          298       21072.7       41313.2        366982        369552       47289.8
          299       21075.4       41329.8        366986        369567       47295.2
          300       21078.2       41345.9        366990        369581       47300.8
          301       21081.1       41361.4        366995        369594       47306.7
          302         21084       41376.4        367000        369607       47312.8
          303         21087       41390.8        367006        369620         47319
          304         21090       41404.7        367014        369633       47325.5
          305       21093.1         41418        367021        369645       47332.2
          306       21096.2       41430.7        367030        369656       47339.1
          307       21099.3         41443        367039        369668       47346.1
          308       21102.5       41454.7        367049        369679       47353.3
          309       21105.7       41465.8        367059        369690       47360.6
          310       21108.9       41476.5        367070        369700       47368.1
          311       21112.1       41486.6        367082        369710       47375.7
          312       21115.3       41496.2        367094        369720       47383.4
          313       21118.6       41505.3        367107        369730       47391.2
          314       21121.9       41513.8        367121        369739       47399.2
          315       21125.2       41521.8        367135        369748       47407.2
          316       21128.4       41529.4        367150        369757       47415.3
          317       21131.7       41536.4        367165        369765       47423.5
          318         21135       41542.9        367180        369773       47431.7
          319       21138.3       41548.9        367197        369781       47439.9
          320       21141.6       41554.4        367213        369789       47448.2
          321       21144.8       41559.5        367230        369796       47456.5
          322       21148.1         41564        367248        369803       47464.9
          323       21151.4         41568        367266        369810       47473.3
          324       21154.6       41571.6        367285        369817       47481.8
          325       21157.8       41574.7        367304        369824       47490.3
          326         21161       41577.3        367323        369830       47498.8
          327       21164.2       41579.4        367343        369836       47507.4
          328       21167.4       41581.1        367364        369842         47516
          329       21170.5       41582.2        367384        369848       47524.7
          330       21173.6         41583        367406        369853       47533.3
          331       21176.7       41583.2        367427        369859         47542
          332       21179.8         41583        367449        369864       47550.7
          333       21182.8       41582.4        367471        369869       47559.3
          334       21185.8       41581.3        367494        369874         47568
          335       21188.8       41579.7        367517        369879       47576.7
          336       21191.8       41577.7        367540        369884       47585.3
          337       21194.7       41575.2        367564        369888         47594
          338       21197.6       41572.4        367588        369892       47602.6
          339       21200.4         41569        367612        369897       47611.2
          340       21203.2       41565.3        367637        369901       47619.8
          341         21206       41561.1        367662        369905       47628.3
          342       21208.7       41556.4        367687        369909       47636.8
          343       21211.4       41551.4        367713        369912       47645.3
          344       21214.1       41545.9        367739        369916       47653.7
          345       21216.7       41540.1        367765        369919         47662
          346       21219.3       41533.8        367791        369923       47670.3
          347       21221.9         41527        367818        369926       47678.6
          348       21224.4       41519.9        367845        369930       47686.8
          349       21226.9       41512.4        367872        369933       47694.9
          350       21229.3       41504.5        367900        369936         47703
          351       21231.7       41496.1        367927        369939         47711
          352         21234       41487.4        367955        369942         47719
          353       21236.4       41478.3        367984        369945       47726.8