# Probe 0 (0.0005 0.0001 0.00144)
# Probe 1 (0.0005 0.0001 0.01296)
# Probe 2 (0.0005 0.0009 0.01296)
# Probe 3 (0.0005 0.0009 0.00144)
# Probe 4 (0.0005 0.0005 0.0072)
#       Probe             0             1             2             3             4
#        Time
            1   9.61502e-13   1.17534e-12   1.13557e-12   1.01432e-12   2.15045e-12
            2  -2.91386e-13  -7.43571e-13  -6.22375e-13  -5.12755e-13  -2.23707e-13
            3   3.96899e-13   6.93149e-13    3.1565e-13   7.56931e-13   4.97507e-16
            4  -2.41579e-14  -4.09526e-13  -1.24996e-13    -3.108e-13  -4.60691e-13
            5  -2.83707e-13  -1.56824e-13  -2.32203e-13  -1.80711e-13   9.87284e-14
            6   2.75328e-13   5.04273e-13   3.73392e-13   3.33409e-13   5.88929e-13
            7   1.14723e-13  -2.23188e-13   2.93811e-14  -9.58053e-15    2.2361e-13
            8  -9.82084e-14   3.48785e-13   4.39944e-14  -3.40563e-14  -1.23791e-13
            9   -4.2811e-14  -1.34447e-13    8.3616e-14  -4.81475e-14   -3.0814e-13
           10   9.53367e-14   2.90575e-13   1.82319e-13   8.95782e-14  -9.70723e-15
           11  -3.59012e-14  -2.40994e-13  -1.70063e-13  -2.72292e-14   2.97719e-15
           12  -1.84172e-14  -3.68412e-13  -3.54172e-13   -3.9313e-14   9.15333e-14
           13   9.16377e-14   1.70131e-15  -1.40993e-13   1.05828e-13   1.30692e-13
           14  -3.63272e-14    1.4464e-13    2.6441e-13  -3.72682e-14  -1.38691e-13
           15  -4.70503e-14   2.89883e-13   2.60682e-13   -4.4971e-14   -9.6808e-14
           16   3.62368e-14  -2.19981e-14  -5.53368e-14   3.60967e-14   1.71123e-13
           17   9.44434e-14  -4.33338e-14   1.86911e-14   8.50669e-14    2.1433e-13
           18    -3.163e-14   4.82996e-14   -1.7388e-14  -2.74056e-14   -1.6447e-13
           19  -3.97578e-14   -8.6755e-14  -5.22912e-14  -3.24606e-14  -1.69736e-13
           20   3.81577e-14  -1.03403e-13  -1.03947e-13   2.76954e-14   9.46337e-14
           21   5.66831e-14   1.25728e-13   1.05261e-13   5.55943e-14   1.59585e-13
           22  -2.21193e-15   1.41306e-13   1.71315e-13   2.17854e-15  -2.00854e-14
           23  -8.25786e-14  -1.29671e-14  -5.78683e-14  -8.12522e-14   -1.2348e-13
           24   8.07346e-14  -1.32154e-13  -8.30415e-14   7.63309e-14   1.06227e-13
           25   3.63292e-14   -2.3874e-14  -4.77239e-14   3.56403e-14   1.78073e-15
           26  -1.08521e-13  -9.86642e-14  -1.09077e-13  -1.03398e-13   -2.0615e-13
           27    6.3283e-14    1.8337e-13   2.08159e-13   6.62498e-14   1.32903e-13
           28   3.20702e-14   1.43608e-13   1.39481e-13   2.07093e-14    1.4609e-13
           29  -5.30485e-14  -1.19254e-13  -1.36214e-13  -4.78664e-14  -6.03948e-14
           30   6.03128e-14  -3.83408e-14  -2.92587e-14    6.4023e-14   1.00256e-16
           31  -3.78154e-14   -9.3634e-14  -9.38223e-14  -4.33952e-14   -9.8776e-14
           32  -1.23377e-14  -4.88195e-14  -4.70479e-14  -1.03683e-14  -5.52188e-14
           33   4.40951e-14   1.57248e-13   1.50684e-13    4.6065e-14   1.18092e-13
           34  -9.08988e-15   4.81114e-14   5.72715e-14  -1.52406e-14   6.37009e-14
           35  -4.30316e-14  -1.30078e-14  -2.05015e-14  -4.04374e-14   -6.4461e-14
           36   8.75038e-14    1.1068e-13   1.13483e-13    9.3282e-14    9.8603e-14
           37   -1.7469e-14  -1.62517e-14  -1.61533e-14  -2.78974e-14  -4.41898e-15
           38  -1.69502e-14  -7.72507e-14  -8.36166e-14   -1.2522e-14  -4.10064e-14
           39   1.45031e-14  -9.62322e-14  -8.69232e-14   1.86585e-14  -5.52272e-14
           40   2.30033e-14    2.6862e-14   1.79764e-14   1.73888e-14   1.31747e-14
           41  -4.93621e-15   1.02426e-14   1.54508e-14  -4.06686e-15   5.64509e-15
           42  -1.13354e-14   1.57713e-14   1.97651e-14  -7.86061e-15    1.3001e-14
           43   4.76022e-15   5.63834e-14   3.98992e-14   2.22218e-15   2.54131e-14
           44    2.7123e-14   3.19965e-14   4.97568e-14   2.43184e-14   3.70437e-14
           45  -7.13996e-15  -5.02643e-14  -5.16351e-14  -5.15699e-15  -1.89853e-14
           46   3.75259e-14   3.64311e-14   2.46566e-14   4.11976e-14   3.92148e-14
           47   3.16065e-14   5.04658e-14   5.93261e-14   2.77814e-14   5.13573e-14
           48  -3.97271e-14  -2.51604e-14  -2.59781e-14   -4.3085e-14  -4.02165e-14
           49   3.07207e-14   1.13898e-14   4.97607e-15   3.59157e-14  -1.51149e-14
           50   2.90038e-14   5.75426e-14   6.62229e-14   3.37359e-14   4.28819e-14
           51   3.06263e-15   2.37415e-14    2.5363e-14  -9.64832e-15   5.14452e-14
           52   4.24922e-14   9.40662e-14   7.53269e-14   4.70727e-14   6.52672e-14
           53   6.91657e-14   6.69663e-14   8.64924e-14    7.4819e-14   8.64512e-14
           54  -3.91853e-14  -1.20151e-13  -1.23552e-13  -4.85478e-14  -9.83007e-14
           55    1.2757e-14  -4.93617e-14  -5.93144e-14   1.86512e-14   -4.3365e-14
           56   1.38178e-14  -2.96333e-14  -2.13967e-14   1.89998e-14  -5.69489e-15
           57  -3.08997e-14  -6.81474e-14  -7.11366e-14  -4.25706e-14  -5.74863e-14
           58   2.72186e-14   8.87042e-14   8.44816e-14   3.36558e-14   2.20061e-14
           59   8.95073e-14   2.68634e-13   2.77358e-13   9.22865e-14   3.00357e-13
           60  -5.18631e-14  -5.12939e-14  -5.66188e-14  -6.47715e-14  -5.86267e-14
           61   5.73417e-15  -1.12839e-13  -1.11809e-13   2.03258e-14  -1.27786e-13
           62   3.82255e-14  -5.71959e-14  -5.94084e-14   3.79301e-14  -3.82223e-14
           63   8.16871e-14   2.24682e-13   2.26995e-13   6.91385e-14   2.72973e-13
           64   1.30353e-13   3.44324e-13   3.42769e-13   1.40661e-13     2.629e-13
           65  -1.60743e-13  -5.31686e-13  -5.31132e-13  -1.67035e-13  -5.53187e-13
           66    4.3938e-14  -7.80682e-14   -7.9482e-14   5.48787e-14   1.01204e-14
           67    5.8102e-14   1.93524e-13   1.91156e-13   4.80611e-14   2.34557e-13
           68    6.8415e-14   2.84298e-13   2.85732e-13   6.88198e-14   2.38595e-13
           69   -9.3269e-14  -1.28715e-13  -1.23541e-13  -9.06044e-14  -2.40849e-13
           70  -8.40629e-15  -2.15713e-13  -2.17932e-13  -3.38435e-15  -1.40783e-13
           71   8.21477e-14   6.85852e-14   6.01115e-14   7.94404e-14   1.46006e-13
           72   9.37971e-14   3.71626e-13   3.83455e-13    8.9733e-14   3.45942e-13
           73   9.58081e-14   3.45852e-13   3.41115e-13   9.75403e-14   2.03452e-13
           74  -5.56563e-14  -3.43057e-13  -3.47987e-13  -5.27495e-14  -3.67284e-13
           75  -9.62266e-15  -3.17999e-13  -3.09677e-13  -5.07604e-15  -1.28045e-13
           76   1.78045e-13   4.60381e-13   4.55199e-13   1.73007e-13    4.6201e-13
           77   5.12673e-15   2.50378e-13   2.45749e-13  -7.69831e-16   7.34198e-14
           78  -2.72733e-14   -4.0104e-13  -3.85783e-13  -1.58463e-14   -2.7076e-13
           79  -4.67214e-14  -3.29422e-13  -3.48691e-13  -5.03535e-14  -2.59348e-13
           80   1.34611e-13   3.72767e-13   3.82736e-13   1.27424e-13   3.14132e-13
           81   7.79763e-14   1.85898e-13   1.95085e-13    8.1219e-14   2.31951e-13
           82    8.1732e-14    2.9982e-13   2.79776e-13   9.07571e-14   1.73042e-13
           83   8.43975e-14   2.28477e-13    2.4232e-13   7.13998e-14    1.3934e-13
           84  -3.98716e-14  -1.55186e-13  -1.56698e-13  -3.66464e-14  -1.73083e-13
           85  -6.95263e-14  -3.73512e-13  -3.78627e-13  -6.53754e-14  -3.27842e-13
           86    7.6182e-14  -1.01289e-13  -9.55334e-14    7.9312e-14   1.02712e-13
           87  -2.85584e-14  -6.77991e-14  -7.26474e-14  -3.45359e-14   6.38923e-14
           88  -5.55331e-14   1.46255e-13   1.42394e-13  -5.50772e-14    -1.085e-13
           89   1.06529e-13   3.58803e-13   3.73117e-13   1.14101e-13   2.67585e-13
           90  -2.41777e-14   2.52823e-14   1.39451e-14  -3.80126e-14   8.33221e-14
           91  -8.91377e-14  -5.88137e-13  -5.91728e-13  -7.88505e-14  -4.78648e-13
           92   8.95572e-14   1.72123e-14   2.78646e-14   1.05029e-13   8.42863e-14
           93   1.37101e-13   6.64332e-13   6.48146e-13    1.0663e-13   4.58287e-13
           94  -1.13331e-13  -7.40589e-14  -5.01785e-14  -1.05367e-13   -1.1873e-13
           95   3.92174e-14   8.99338e-14    7.0848e-14   6.49024e-14   4.49658e-14
           96  -1.27206e-14  -3.31963e-13  -3.29185e-13  -5.19269e-14  -1.37918e-13
           97  -7.62978e-15  -2.96662e-13  -2.90422e-13   1.60671e-14  -7.93092e-14
           98   8.00706e-14   5.80967e-13   5.72783e-13    8.6186e-14   3.04658e-13
           99  -3.06467e-14  -5.42119e-14  -4.78432e-14  -6.00383e-14  -1.24334e-13
          100   2.99136e-14  -2.24576e-13  -2.22998e-13   6.29095e-14  -6.71929e-14
          101  -1.34907e-13  -2.12097e-13   -2.2705e-13  -1.52422e-13   -2.0044e-13
          102   -3.8544e-15        -2e-15   1.46604e-14  -3.03404e-15  -2.34814e-14
          103   2.66913e-13   4.19043e-13   4.08871e-13   2.81837e-13   4.63679e-13
          104  -3.77161e-14   2.01614e-13    2.0206e-13  -6.22482e-14   1.15802e-13
          105   1.25912e-13   2.35341e-13   2.55508e-13   1.41254e-13   2.13663e-13
          106  -7.94242e-14  -2.20651e-13  -2.56267e-13  -6.87107e-14  -3.60359e-13
          107  -2.25032e-13  -5.75375e-13  -5.38854e-13  -2.43461e-13  -5.02234e-13
          108   -2.1308e-14  -1.77606e-13  -2.02423e-13  -5.39929e-15   9.13385e-15
          109  -1.41053e-13  -2.29835e-13  -2.34992e-13  -1.42909e-13  -9.02263e-14
          110   -1.7793e-14   3.55942e-13   3.82113e-13  -2.15771e-14   2.58484e-13
          111   2.00115e-14   2.86061e-13   2.61901e-13   8.67242e-15   8.31688e-14
          112  -1.06848e-13  -3.52646e-13  -3.40784e-13  -8.85948e-14   -4.1568e-13
          113  -2.65621e-13   -8.3918e-13  -8.37663e-13   -2.6942e-13  -4.97219e-13
          114   1.26202e-13   1.24934e-12   1.23188e-12   1.27195e-13   1.02728e-12
          115  -2.97939e-13  -5.70975e-13  -5.49027e-13  -3.10853e-13  -6.87808e-13
          116   1.54245e-14   -2.6623e-13  -2.80951e-13   4.19767e-14  -2.65489e-13
          117    4.9808e-14   1.39713e-13   1.42768e-13   2.40187e-14   2.63793e-13
          118  -8.21978e-14  -1.03034e-13  -9.79256e-14  -9.16734e-14  -6.45574e-15
          119   7.15368e-14   9.31439e-14   7.59143e-14   1.06337e-13   -2.6043e-15
          120  -1.61931e-13  -1.84815e-13  -1.58135e-13  -1.81007e-13  -2.26213e-13
          121   7.06192e-15  -4.29807e-14  -6.70286e-14  -6.47399e-15  -1.04354e-13
          122   6.74961e-14    -1.268e-13  -1.10448e-13   1.00288e-13   4.68452e-14
          123  -1.26818e-13   -2.7648e-13  -2.71198e-13  -1.52046e-13  -7.00969e-14
          124   4.88505e-14   1.30592e-13    9.9059e-14    5.5762e-14   1.29526e-13
          125   1.96842e-13    6.2109e-13   6.47659e-13   2.19195e-13   3.92198e-13
          126   2.12765e-13   5.87162e-13     5.894e-13   1.79958e-13   3.55568e-13
          127   1.67892e-13   1.66266e-13   1.46486e-13    1.7426e-13   1.69238e-13
          128  -1.79441e-13   -7.8851e-13  -7.73056e-13  -1.58421e-13  -5.20632e-13
          129   2.47235e-13  -1.62096e-14  -3.10286e-14   2.41741e-13   2.14756e-13
          130   1.17523e-13   6.00165e-13   6.05329e-13   9.44314e-14   2.00413e-13
          131  -1.86125e-13  -8.44684e-14   -7.0318e-14   -1.7279e-13  -2.44477e-13
          132   1.65242e-13   2.78549e-13   2.54777e-13   1.90574e-13   3.74473e-13
          133   2.08625e-13    1.8038e-13   1.99219e-13   1.69408e-13   3.53306e-13
          134  -4.49318e-13  -1.29895e-12  -1.30582e-12  -4.37444e-13  -1.28131e-12
          135   2.14432e-13   1.00611e-12   9.92218e-13   2.44686e-13   9.06106e-13
          136    2.6411e-13   8.81389e-13   9.00026e-13   2.00626e-13   7.47523e-13
          137  -2.60513e-13  -2.09868e-12  -2.08734e-12  -2.08401e-13  -1.56808e-12
          138   1.52963e-13   7.15976e-15  -3.55656e-14   1.57935e-13   1.32495e-13
          139  -5.21596e-14   1.00029e-12   1.02645e-12  -8.40619e-14   5.78259e-13
          140   6.56401e-14   8.77461e-13   8.94919e-13   9.25024e-14   5.62638e-13
          141  -1.53648e-13  -6.65901e-13  -6.89859e-13  -1.63021e-13  -5.26598e-13
          142   7.29873e-14  -4.87201e-13  -4.88517e-13   7.71194e-14  -1.81767e-13
          143  -2.40444e-14  -4.09421e-13  -4.03769e-13  -3.01336e-14  -2.25431e-13
          144   8.64834e-14   7.23404e-13   7.20817e-13   8.85471e-14   4.81426e-13
          145   1.83967e-13    8.0468e-13   8.12162e-13    1.8254e-13   6.18589e-13
          146  -7.12405e-15   -2.8778e-13  -2.97931e-13  -5.55453e-15  -4.24967e-13
          147   1.33386e-13   1.55421e-13   1.56891e-13   1.48561e-13   2.10744e-13
          148  -4.67381e-14  -2.04195e-13  -1.90861e-13  -7.25783e-14   1.81958e-14
          149   3.23718e-14  -2.06312e-13  -2.31911e-13   5.17666e-14  -3.97424e-14
          150   9.45242e-14  -2.76955e-14  -4.30205e-15   9.70639e-14  -3.92459e-14
          151   2.36403e-13   3.85025e-13   3.86258e-13   2.22287e-13   3.21583e-13
          152   1.23848e-13   4.09619e-13   3.73862e-13    1.2967e-13   2.13048e-13
          153  -1.83193e-14  -1.87327e-14   2.51222e-14  -1.08459e-14  -1.20816e-13
          154  -2.11243e-14  -1.99032e-13  -2.04207e-13  -1.55173e-14  -8.76997e-14
          155  -1.67367e-13  -5.20086e-13  -5.46352e-13  -1.67896e-13  -2.22011e-13
          156   1.81623e-13    5.2472e-13   5.34391e-13   1.70571e-13   3.52852e-13
          157   1.67077e-13   5.27326e-13   5.32161e-13   1.48342e-13   3.49714e-13
          158   2.96721e-13   6.16676e-13     6.166e-13   3.22427e-13   4.95525e-13
          159  -1.79679e-13  -7.71706e-13  -7.78609e-13   -1.8307e-13  -5.83874e-13
          160  -1.18076e-13   -8.2058e-13  -8.03043e-13  -1.15622e-13  -4.75994e-13
          161   2.98444e-13   6.04605e-14   2.93122e-14   2.90642e-13   2.16499e-13
          162   2.17981e-13   1.51054e-12   1.51851e-12   2.05547e-13   8.54875e-13
          163   1.54168e-13   9.99161e-13   1.02221e-12   1.74533e-13   6.91818e-13
          164   1.80705e-13  -1.21662e-12  -1.25024e-12   1.66223e-13  -7.00366e-13
          165  -4.05822e-13  -1.88687e-12  -1.85925e-12  -3.99214e-13  -1.27025e-12
          166   4.53224e-14     1.497e-12   1.47423e-12   5.62034e-14   1.14243e-12
          167   2.10667e-13    1.9276e-12   1.92609e-12   1.99013e-13   1.08988e-12
          168   -2.4774e-15  -1.11979e-12  -1.09774e-12   3.09627e-15     -9.78e-13
          169  -3.16074e-13  -1.85779e-12  -1.86308e-12  -3.09586e-13  -1.12377e-12
          170  -3.47144e-14   9.24642e-13   9.04761e-13  -4.46032e-14   8.26204e-13
          171  -3.81497e-13   5.78417e-14   8.89591e-14  -3.91406e-13   -2.0098e-13
          172   2.15065e-15   4.31779e-13   3.88859e-13   3.31817e-14   4.23919e-15
          173   2.62944e-13  -2.84077e-13  -2.37699e-13   2.43155e-13   2.02086e-13
          174  -1.16446e-13  -8.05349e-13  -8.28153e-13  -1.20597e-13  -5.47013e-13
          175   5.63011e-15  -5.23582e-14  -7.51378e-14   3.43664e-14   -1.0268e-13
          176  -2.68463e-13  -2.94277e-13  -2.32416e-13  -2.97853e-13  -2.58277e-13
          177   -1.5143e-13   2.35413e-13   1.65813e-13  -1.31111e-13   1.43665e-14
          178   -2.0854e-13   5.08835e-14   8.13205e-14  -2.15742e-13  -1.14199e-13
          179   5.74887e-14   2.43515e-13   2.60145e-13   6.01684e-14   1.94328e-13
          180  -3.06946e-13  -4.99166e-13  -5.26189e-13  -3.09103e-13  -4.60202e-13
          181  -2.44559e-13  -4.34883e-13  -4.42606e-13  -2.33417e-13  -4.00438e-13
          182  -1.80735e-13  -6.79633e-13  -6.30959e-13  -1.91611e-13  -2.66691e-13
          183      2.04e-13   6.21253e-13   5.57909e-13   2.08138e-13   5.58112e-13
          184  -2.39513e-14   5.76966e-13   6.18428e-13  -3.18581e-14   6.63454e-14
          185  -1.07337e-13  -1.29938e-13  -1.21514e-13  -1.04993e-13  -2.01307e-13
          186   5.57678e-14  -2.18536e-13  -2.69024e-13   8.02151e-14   3.07265e-13
          187   1.93749e-14  -2.46683e-13  -1.98074e-13  -1.60898e-14  -3.48207e-15
          188  -1.73231e-13  -9.03641e-14  -1.16815e-13  -1.41333e-13  -6.63944e-13
          189    2.3503e-14   1.54969e-13   1.53151e-13   2.00402e-14   -3.7761e-14
          190   2.09007e-13   4.15093e-13   4.45258e-13   1.79508e-13   7.72281e-13
          191   4.60099e-13   9.49036e-13   9.05094e-13    4.8582e-13   1.05149e-12
          192    3.4962e-13   6.86507e-13   7.02053e-13    3.4088e-13   1.34167e-13
          193  -1.33637e-13  -1.37503e-12  -1.33743e-12  -1.51211e-13  -9.55237e-13
          194   1.81063e-13  -5.77543e-13   -6.3479e-13    2.2576e-13   5.27014e-14
          195   1.24496e-13   4.28357e-13   4.40552e-13   7.39207e-14    3.9251e-13
          196   2.04398e-13   1.55523e-12   1.55105e-12   2.27184e-13   6.36743e-13
          197  -1.72344e-13  -1.11391e-12  -1.06605e-12  -1.71308e-13  -6.31852e-13
          198   1.84753e-13   2.54278e-13   1.80281e-13   1.96213e-13    3.3207e-13
          199   1.68671e-13   5.29817e-13   5.90036e-13   1.47165e-13   4.48632e-13
          200   2.44774e-13   2.17229e-13   2.10045e-13   2.47543e-13    2.2584e-13
          201   7.92579e-14  -3.94742e-13  -4.25389e-13   9.95067e-14  -3.09245e-13
          202  -2.48088e-13  -7.35589e-13  -7.16033e-13  -2.60574e-13  -6.49523e-13
          203  -2.54895e-13  -2.55102e-13  -2.52035e-13   -2.4087e-13  -2.45149e-13
          204  -8.65978e-15   6.06356e-13   5.79729e-13  -5.21109e-15   4.16713e-13
          205   8.86681e-14   6.43782e-13   6.86949e-13   5.05772e-14   5.61095e-13
          206   -4.1835e-15  -2.73655e-13   -3.2153e-13   1.32286e-14  -2.96087e-13
          207  -8.62788e-14  -2.39829e-13  -2.23875e-13  -6.33052e-14  -3.48275e-13
          208  -1.99168e-13  -4.07617e-13  -3.69235e-13  -2.34878e-13  -3.79347e-13
          209   2.27253e-13   5.26077e-13    4.4376e-13   2.51505e-13   6.31864e-13
          210   1.50254e-14   1.59511e-13   2.40244e-13  -9.70331e-15   1.86746e-13
          211   2.42933e-13   5.43199e-13   4.99811e-13   2.56697e-13   4.53936e-13
          212  -2.05081e-13  -8.60897e-13  -8.60872e-13  -2.00205e-13  -8.71792e-13
          213   -1.7681e-13   -7.3068e-13  -7.04243e-13  -1.67037e-13  -7.07291e-13
          214   6.16481e-14   5.46676e-13   5.20534e-13   4.99899e-14   7.55389e-13
          215  -1.24064e-13    1.9489e-13   1.86495e-13  -1.23475e-13   1.39785e-13
          216   9.75216e-14   3.15338e-14   8.58691e-14   1.09008e-13   3.47686e-14
          217   4.21811e-13   1.04691e-12   9.71789e-13   4.29401e-13   8.30729e-13
          218  -2.63179e-13   -6.8307e-13  -6.35236e-13  -3.02964e-13  -7.63895e-13
          219  -1.91326e-13  -6.13104e-13  -6.21499e-13   -1.5063e-13  -6.60845e-13
          220  -8.29448e-14  -2.46791e-13  -2.63087e-13   -9.7498e-14     2.511e-14
          221  -6.90321e-14    7.1231e-14   8.09861e-14  -8.71373e-14   1.87366e-13
          222  -1.18243e-13   -3.4181e-14  -4.77272e-14  -8.60512e-14  -1.01211e-13
          223  -4.38787e-14   9.63995e-16   2.73695e-14  -5.94867e-14  -3.42377e-14
          224   1.43022e-13   8.42376e-13    8.0005e-13   1.44966e-13   4.40349e-13
          225  -2.58271e-13   -1.1122e-12  -1.06442e-12  -2.69572e-13  -8.54284e-13
          226   5.13155e-14  -7.22079e-13  -7.32054e-13   8.54513e-14  -2.04195e-13
          227   2.53662e-13    7.6854e-13   7.21643e-13   2.25075e-13   8.28396e-13
          228  -2.74146e-13   3.69908e-13   4.30842e-13  -2.85769e-13   -6.0555e-14
          229  -6.83431e-14   3.43969e-13   3.02517e-13  -2.16335e-14  -1.29223e-13
          230   1.10148e-13   4.77308e-14     3.828e-14   5.62773e-14  -4.71731e-14
          231  -1.74027e-13  -6.76135e-13  -6.15586e-13  -1.58292e-13  -1.45906e-13
          232   2.38017e-14  -1.47492e-13  -2.43625e-13   4.33838e-14   1.75749e-14
          233   9.22076e-14  -9.92806e-14  -1.75126e-14   7.76963e-14   4.11573e-14
          234  -4.69501e-14   1.18004e-13   8.36479e-14  -5.22569e-14  -1.26563e-13
          235   7.69562e-14   5.14789e-13   5.00913e-13   9.13892e-14   2.09557e-13
          236   -7.9276e-14   3.49762e-14   7.15732e-14  -8.80745e-14  -2.73118e-14
          237   1.14554e-14  -3.20314e-13   -3.3413e-13   1.52896e-14  -3.63571e-14
          238   2.03451e-13   4.36428e-13   3.76244e-13   2.13488e-13   3.52991e-13
          239   5.02144e-14   3.63625e-14   1.18994e-13    2.4828e-14   7.28155e-14
          240  -9.57943e-14  -1.09444e-13   -1.3753e-13   -8.4282e-14  -1.64626e-13
          241   1.48166e-13   3.28828e-13   2.88094e-13   1.74818e-13    2.7595e-13
          242   2.09354e-13   1.97777e-13   2.52319e-13   1.80823e-13    2.9369e-13
          243  -9.32606e-14  -7.34112e-13  -7.59094e-13  -9.39409e-14  -5.45208e-13
          244  -1.97865e-13  -6.83637e-13  -6.88251e-13  -1.76948e-13  -5.24012e-13
          245   2.52951e-13   1.26132e-12   1.27714e-12   2.53474e-13   9.68497e-13
          246  -4.79945e-14   7.49031e-13   7.40326e-13  -7.99512e-14   2.77087e-13
          247   1.25749e-13  -1.84864e-13  -1.80771e-13   1.69798e-13  -2.94315e-13
          248  -3.99872e-14   -1.2006e-12  -1.20603e-12   -6.5891e-14  -5.28771e-13
          249   5.27831e-14   1.22777e-14   -1.2819e-14   5.86159e-14   1.41683e-13
          250   1.59296e-13    1.0818e-12   1.13337e-12    1.6853e-13   7.55636e-13
          251   2.58158e-13   1.10689e-12   1.07649e-12   2.37075e-13   7.04331e-13
          252   3.97211e-13  -5.85197e-13  -6.11628e-13   4.20547e-13  -5.39651e-14
          253  -4.59194e-14  -9.72324e-13  -9.30437e-13  -5.31097e-14  -6.40772e-13
          254  -5.01996e-14   5.43717e-14   7.19697e-15  -4.61475e-14  -3.67159e-13
          255  -6.44489e-14   3.32651e-13   3.88786e-13  -5.93608e-14   1.95105e-13
          256   5.19736e-14   4.91972e-13   4.54663e-13   3.81305e-14   5.59424e-13
          257   2.02333e-13   3.60588e-13   3.86654e-13   1.98421e-13   5.48235e-13
          258    2.2423e-13   1.22421e-14  -1.99971e-14   2.45401e-13  -1.72889e-13
          259  -1.95244e-14  -3.19853e-13  -2.97437e-13  -3.10329e-14  -2.76011e-13
          260  -6.57438e-15  -1.48507e-13  -1.75044e-13  -1.51018e-15  -1.25313e-13
          261   5.84025e-14  -7.20576e-14  -3.16325e-14   5.61646e-14   6.12748e-14
          262   3.19881e-13   9.85834e-13   9.09317e-13   3.21399e-13   6.77893e-13
          263    9.3704e-14   4.72144e-13   5.65142e-13   8.41017e-14   3.82906e-13
          264   1.71118e-13   4.20707e-15  -5.56758e-14   1.94589e-13   1.54202e-13
          265   2.74779e-14  -5.35343e-13  -5.51096e-13  -2.37116e-15   -2.3928e-13
          266   1.71785e-13  -1.80546e-13   -1.2719e-13   1.89588e-13  -6.82465e-14
          267   4.64853e-13    1.3059e-12   1.26544e-12   4.72121e-13   9.62765e-13
          268   9.76351e-14   6.29068e-13   6.29694e-13   6.74729e-14    2.1508e-13
          269   4.71897e-15  -5.90277e-13  -5.17548e-13   4.26078e-14  -3.60366e-13
          270   4.08613e-14  -3.79714e-13  -4.98807e-13   5.42987e-14  -1.84278e-13
          271    1.5241e-14   -5.3754e-13  -4.74219e-13   -3.8361e-14  -1.51464e-13
          272   1.16118e-13   7.24954e-14   9.24191e-14    1.4898e-13   2.11005e-13
          273   1.60933e-13   1.01177e-12   9.42252e-13   1.65497e-13   5.22698e-13
          274   1.04866e-14   5.99708e-13   6.57296e-13  -1.62962e-14   1.79088e-13
          275   1.07904e-13   -5.2815e-13  -5.26678e-13   1.43359e-13  -1.43968e-13
          276   3.62832e-14  -4.12899e-13  -4.66334e-13   2.94657e-14   -1.2306e-13
          277   -1.6176e-14  -3.51472e-13   -3.1191e-13  -3.73443e-14  -1.56303e-13
          278   1.86215e-13   4.51047e-13   4.44729e-13    2.1613e-13   3.78254e-13
          279   6.13257e-14   4.22016e-13   4.35778e-13   4.47234e-14   2.80248e-13
          280  -2.13185e-13  -8.71717e-14  -1.17334e-13  -2.22351e-13  -4.07629e-13
          281  -2.43186e-14   2.71257e-13   2.80975e-13   1.52482e-14  -1.80199e-14
          282  -1.74493e-13  -1.03587e-13  -8.17513e-14  -2.12617e-13  -1.92872e-13
          283  -2.64214e-13  -1.73679e-12  -1.75244e-12     -2.63e-13  -6.74114e-13
          284   3.11847e-13   1.14911e-12   1.11746e-12   3.54536e-13   8.98287e-13
          285   2.41054e-13   1.44662e-12   1.48604e-12   1.80695e-13   8.15514e-13
          286   1.21555e-14  -8.48812e-13   -8.5874e-13   5.13052e-14  -6.77801e-13
          287   2.21041e-13  -2.58614e-13  -2.73139e-13   2.30458e-13   -5.8349e-14
          288   1.18041e-13  -1.67169e-13  -1.46112e-13    7.9312e-14   2.85118e-13
          289   2.72254e-13   7.72323e-13    7.2779e-13   3.05831e-13   5.00585e-13
          290   2.38364e-13   8.20941e-13   8.64352e-13   2.27296e-13   4.21188e-13
          291   6.54829e-14  -2.61032e-13  -2.57645e-13   5.89224e-14  -7.82022e-14
          292   1.43946e-13  -2.70629e-13    -3.635e-13   1.62792e-13  -1.07779e-13
          293   1.55144e-13   -3.4285e-14   8.59155e-14   1.49311e-13   3.59266e-14
          294   3.53725e-14   5.32181e-13   4.57045e-13    3.1753e-14   2.11222e-13
          295  -3.24768e-15   1.95624e-13   2.27917e-13   6.66775e-15   9.99326e-15
          296   4.46326e-14   5.92161e-14   6.17564e-14   4.46124e-14   5.99425e-14
          297  -2.03274e-13  -5.30123e-13   -5.9279e-13  -2.20111e-13  -5.27464e-13
          298   1.27266e-13  -2.98881e-13  -2.01538e-13   1.58184e-13   1.07449e-13
          299   3.50758e-13   6.52362e-13   5.83809e-13   3.41314e-13   9.21478e-13
          300   3.43397e-13    1.0194e-12   9.82955e-13   3.16521e-13    8.6762e-13
          301  -1.71094e-13  -7.22996e-13  -6.18203e-13  -1.44978e-13  -1.64767e-12
          302   3.33366e-14   -6.9052e-13   -7.4135e-13   2.51462e-14   4.49454e-13
          303   3.79358e-13   1.38113e-12   1.30734e-12   3.71861e-13   1.30158e-12
          304  -1.49813e-13  -2.73019e-14   1.19225e-13  -1.54407e-13  -8.21235e-13
          305   7.27355e-14   1.55259e-13   3.40672e-14    1.0741e-13  -1.81079e-13
          306   2.87371e-13  -1.31484e-13  -7.90926e-14   2.53222e-13   1.03083e-12
          307   1.34986e-13   8.69746e-14   5.79142e-14   1.38456e-13   1.44127e-13
          308   1.98565e-13   4.09898e-13   4.16722e-13   2.20801e-13  -1.86149e-13
          309  -1.04173e-13   2.57557e-13   2.66499e-13  -1.15844e-13  -1.68264e-13
          310  -2.94884e-14   -4.3324e-13  -4.31718e-13  -3.29118e-14     -1.62e-13
          311   1.32876e-13  -4.94661e-13   -5.0338e-13   1.35127e-13   1.95318e-13
          312    2.3443e-13    8.2661e-13   7.98214e-13   2.14332e-13    6.7877e-13
          313  -1.59249e-13  -2.56409e-13  -1.92604e-13  -1.38091e-13  -5.11284e-13
          314   1.47664e-14  -2.01482e-13  -2.76428e-13   3.04664e-14  -2.66889e-13
          315   9.88319e-15   4.32768e-13   4.40881e-13  -1.43657e-14   2.58759e-13
          316   8.17634e-14  -5.69535e-14   3.54429e-14   7.66881e-14    2.9947e-13
          317   4.58428e-13   5.83912e-13   4.52256e-13   4.87976e-13   7.31146e-13
          318   1.13917e-13   2.48588e-13   3.58455e-13   7.62144e-14  -1.40289e-13
          319    1.8259e-13   3.29314e-13   2.90304e-13   2.17855e-13  -4.88261e-14
          320   1.95873e-15  -4.51092e-13  -5.01442e-13  -4.23054e-15  -3.88674e-14
          321   1.93148e-14  -4.13685e-13  -3.35058e-13   5.74722e-15  -2.01374e-14
          322   2.31109e-13   4.32629e-13   3.45774e-13   2.49954e-13    3.2994e-13
          323   1.42799e-13   4.23709e-13   4.75964e-13   1.18847e-13   2.80317e-13
          324  -3.07098e-15   1.97603e-13   2.12654e-13   8.51693e-15   7.40132e-14
          325  -7.37343e-14  -1.16499e-13  -1.68737e-13  -5.05116e-14   -2.3144e-13
          326   1.57351e-14  -3.16732e-13  -2.39192e-13  -1.85937e-14  -1.75509e-13
          327   2.18096e-13   7.30217e-14  -1.51354e-14   2.29411e-13   2.52397e-13
          328  -6.86648e-14   1.27689e-13   1.65093e-13  -6.04838e-14   1.50709e-13
          329   2.38648e-13     8.182e-13    8.3948e-13   2.39211e-13    5.7496e-13
          330   1.76176e-13   6.84067e-13   6.11958e-13   1.66083e-13   3.27277e-13
          331  -3.62703e-13  -2.63425e-12  -2.53624e-12  -3.55469e-13  -1.62805e-12
          332  -1.20252e-13  -1.09698e-13  -1.82147e-13  -1.02964e-13  -2.56926e-13
          333   5.47784e-13   3.17924e-12   3.18434e-12    5.2631e-13   2.23168e-12
          334  -3.39849e-14   1.65216e-13   2.32375e-13  -5.96884e-14   6.50471e-14
          335   1.51269e-14   -1.4663e-12  -1.57707e-12   8.02652e-14  -9.02977e-13
          336   1.58239e-13  -9.43033e-13  -8.84208e-13   1.10449e-13  -3.16645e-13
          337   7.00809e-14   1.48162e-12   1.50168e-12    7.1391e-14   7.35296e-13
          338   2.57908e-13    1.5583e-12   1.45848e-12   2.77642e-13   8.23121e-13
          339    5.2507e-13   -2.7729e-13   -1.3961e-13   5.16221e-13    3.3358e-13
          340  -2.51821e-14  -1.30292e-12  -1.39379e-12  -3.49358e-14  -7.34436e-13
          341  -3.03704e-13  -1.59175e-12  -1.58346e-12  -2.85415e-13  -1.21234e-12
          342   1.06583e-13   2.08679e-12   2.10863e-12   1.17757e-13   1.15806e-12
          343   9.32704e-14   1.67668e-12   1.70151e-12   5.25013e-14   1.00958e-12
          344   -7.6021e-14  -3.00925e-12  -3.07847e-12  -4.06391e-14  -1.17617e-12
          345   1.62975e-13   1.87229e-13   1.76896e-13   1.75911e-13  -1.52008e-13
          346   9.60256e-14   1.20657e-12   1.28917e-12   5.08041e-14   4.82889e-13
          347   4.84665e-14   7.47664e-13   6.79945e-13   7.30285e-14   4.32296e-13
          348   2.52455e-13   4.80312e-13   5.05846e-13   2.61798e-13   6.60856e-13
          349    -5.942e-14   -5.1983e-13  -5.49224e-13   -8.4928e-14  -2.99543e-13
          350  -4.12933e-14  -1.09105e-12  -1.02977e-12  -1.36485e-14  -9.32586e-13
          351   3.53712e-13   5.21271e-13   4.49704e-13   3.59171e-13   8.32384e-13
          352  -3.60678e-14   5.14778e-13   5.14093e-13   -8.4532e-14    8.4412e-14
          353  -2.61957e-13  -1.87887e-13  -1.65206e-13  -2.13517e-13  -7.40003e-13