# Probe 0 (0.0005 0.0001 0.0005)
# Probe 1 (0.0005 0.0001 0.0045)
# Probe 2 (0.0005 0.0009 0.0045)
# Probe 3 (0.0005 0.0009 0.0005)
# Probe 4 (0.0005 0.0005 0.0025)
#       Probe             0             1             2             3             4
#        Time
            1       10.0034            10       21.5165       814.415       10.0005
            2       10.1408            10       35.1089       1978.86       10.0163
            3       10.3948        10.001       114.101       5412.22       10.0704
            4       10.6637       10.0063       443.424       10925.2       10.1404
            5       10.8748       10.0188       1258.69       19193.5       10.2296
            6       10.9542       10.0387       2445.01       29928.4       10.3386
            7       11.0727       10.0682       4768.66       42697.9       10.4646
            8       11.2069       10.1133       8567.58       57105.6        10.608
            9       11.3803       10.1787       13909.9       72940.7       10.7721
           10       11.7353       10.2958       25102.1         96585        11.136
           11        12.068       10.4385       39338.6        120422       11.6224
           12       12.2961       10.6059       56232.6        144080       12.3488
           13       12.4245       10.7998       75363.6        167301         13.58
           14       12.7609       11.0227       96151.8        189752       15.8902
           15       13.1138       11.2778        118095        211207       20.5672
           16       13.6371       11.5684        140639        231426       30.2102
           17       14.2319       11.8985        163326        250266       51.1999
           18       14.7877       12.2723        185739        267631       96.5474
           19       15.1473       12.7046        208299        283399       212.147
           20       15.7185       13.1914        229643        297691       409.145
           21       16.7965        13.739        249671        310569       720.378
           22       18.6262       14.3532        268333        322142       1164.28
           23       21.4378       15.0412        285630        332512       1715.47
           24       25.5783       15.8115        301592        341766          2392
           25       32.1236       16.6734        316267        349969       3236.38
           26       52.9182       17.6386        329722        357222       4260.91
           27       72.4123       18.7205        342029        363610       5467.83
           28        92.472       19.9345        353263        369213       6851.82
           29       130.101       21.2984        363498        374107       8400.74
           30       174.954       22.8327        372808        378362       10095.2
           31       232.147       24.5615        381265        382051         11912
           32       303.052       26.5133        388935        385239         13830
           33       378.998        28.721        395881        387990       15834.8
           34       460.676       31.2235        402157        390360       17920.1
           35       550.412       34.0662        407817        392405       20086.9
           36       650.221        37.303        412909        394179         22336
           37       762.196       40.9981        417481        395737       24669.8
           38       888.588       45.2279        421575        397134         27091
           39       1031.52       50.0836        425232        398425       29594.5
           40       1193.72       55.6747        428489        399666       32160.5
           41       1404.15       62.1405        431400        400938       34893.3
           42       1646.26       69.6385        433969        402265       37513.3
           43       1926.62       78.3643        436228        403718       39969.8
           44       2250.45       88.5573        438205        405366       42294.6
           45       2630.14       100.511        439927        407272       44490.8
           46       3076.81       114.586        441419        409496       46611.9
           47       3606.29       131.231        442702        412086         48661
           48       4247.12       151.001        443797        415082       50622.2
           49       5030.58       174.592        444723        418508       52484.2
           50       5997.84       202.875        445495        422366       54237.9
           51       7184.53       237.012        446085        426638       55873.4
           52       8606.37       278.407        446527        431258       57384.4
           53       10218.9       328.793        446849        436125       58765.4
           54         11994       390.217        447071        441081       60011.6
           55       13892.3       464.878        447210        445925       61064.3
           56       15854.4       554.715        447279        450432       61880.3
           57       17796.5       660.719        447288        454410       62547.6
           58       19634.6       784.173        447247        457700         63152
           59         21314       929.185        447164        460231       63750.5
           60       22803.5       1102.11        447046        461971       64364.7
           61       24087.8       1310.68        446900        462957       64988.2
           62       25169.3       1563.65        446732        463272       65606.2
           63       26066.2       1870.54        446547        462978       66208.1
           64         26803       2241.05        446352        462181       66787.8
           65       27406.8       2683.69        446151        460996       67338.4
           66       27858.6       3204.02        445949        459506       67844.6
           67       28243.1       3799.52        445752        457757       68318.5
           68       28575.3       4456.19        445566        455841         68760
           69         28867       5141.09        445394        453830       69169.2
           70         29127       5845.97        445240        451773       69545.5
           71       29361.2       6570.54        445109        449700       69888.6
           72       29573.4       7314.58        445005        447627       70199.3
           73       29766.2       8077.84        444931        445547       70478.6
           74       29941.2       8859.96        444890        443477       70727.7
           75       30099.3       9660.53        444885        441433       70948.1
           76       30241.2       10479.1        444919        439426       71141.3
           77       30367.1         11315        444994        437457       71308.5
           78       30477.5       12167.6        445112        435529         71451
           79       30572.5       13036.2        445273        433637       71570.1
           80       30652.3       13919.7        445477        431781       71666.8
           81         30717       14817.1        445724        429956       71742.1
           82       30767.1         15727        446014        428163       71797.1
           83       30802.6         16648        446344        426403       71832.8
           84       30823.8       17578.1        446711        424677       71850.2
           85       30830.9       18515.5        447112        422982       71850.3
           86       30824.2       19457.9        447544        421317       71834.1
           87       30804.1       20402.9        448001        419680       71802.5
           88         30771       21348.1        448479        418070       71756.4
           89       30725.5       22291.1        448971        416485       71696.5
           90       30667.8       23229.4        449473        414925       71623.6
           91       30598.5       24160.8        449976        413391       71538.5
           92       30517.7       25083.8        450474        411881       71441.8
           93       30427.9       25995.6        450960        410401       71334.5
           94       30328.9         26896        451427        408952         71217
           95       30219.7       27782.3        451867        407532       71089.9
           96       30100.9       28653.8        452274        406139       70953.6
           97       29974.3       29511.1        452640        404772       70808.7
           98       29841.5       30341.1        452958        403430       70655.6
           99       29703.7       31157.2        453222        402114       70494.8
          100       29561.8       31893.6        453424        400824       70326.7
          101       29416.3       32582.4        453561        399561       70151.6
          102       29268.1       33212.2        453625        398324       69970.1
          103       29117.7       33789.6        453613        397115       69782.3
          104       28966.4       34318.2        453522        395933       69588.7
          105       28818.4       34800.7        453347        394779       69389.6
          106       28671.7         35242        453087        393654       69185.4
          107       28526.1       35648.4        452740        392556       68976.4
          108       28381.2       36023.1        452306        391487         68763
          109       28236.5       36370.5        451783        390438       68546.8
          110       28092.6       36692.6        451175        389415       68327.5
          111       27949.3       36990.8        450482        388421       68105.1
          112       27807.1         37266        449709        387456       67879.3
          113       27666.8       37518.3        448858        386521       67649.9
          114       27528.7       37748.7        447934        385616         67417
          115       27393.3       37957.2        446943        384740       67180.6
          116       27260.6       38144.8        445888        383892         66941
          117       27130.9       38311.8        444775        383072       66698.4
          118       27004.2       38459.3        443611        382278         66453
          119       26880.5       38588.1        442401        381511       66205.2
          120         26760       38699.1        441152        380769       65955.2
          121       26642.5       38793.2        439869        380051       65703.3
          122       26528.3       38871.4        438559        379358       65449.8
          123       26416.9       38934.8        437228        378689       65194.9
          124       26308.2       38984.2        435882        378042       64938.8
          125       26202.2       39020.7        434527        377417       64681.8
          126       26098.9       39045.2        433168        376815         64424
          127       25998.5       39058.7        431809        376233       64165.6
          128       25901.1       39062.1        430455        375672       63906.9
          129       25806.6       39056.2        429108        375131       63647.8
          130       25715.1         39042        427771        374609       63388.4
          131       25626.4       39020.2        426447        374107       63128.8
          132       25540.5       38991.6        425138        373623       62868.9
          133       25457.3       38957.1        423845        373157         62609
          134       25376.7       38917.2        422570        372708       62349.2
          135       25298.3       38872.6        421313        372276       62089.7
          136       25222.1       38824.1        420074        371861       61830.8
          137       25147.7       38772.1        418856        371461       61572.7
          138         25075       38717.3        417659        371077       61315.5
          139         25004       38660.2        416483        370708       61059.3
          140       24934.6       38601.3        415329        370354       60804.4
          141       24866.6       38540.9        414198        370014       60550.9
          142         24800       38479.6        413090        369687         60299
          143       24734.7       38417.7        412004        369374       60048.9
          144       24670.6       38355.5        410942        369074       59800.8
          145       24607.6       38293.4        409903        368786       59554.8
          146       24545.6       38231.5        408886        368511       59311.2
          147       24484.5       38170.3        407892        368247         59070
          148       24424.2       38109.8        406920        367995       58831.2
          149       24364.6       38050.2        405970        367753       58594.9
          150       24305.6       37991.8        405041        367523         58361
          151       24247.2       37934.8        404134        367302       58129.7
          152       24189.5       37879.3        403247        367092       57900.9
          153       24132.3       37825.4        402380        366891       57674.7
          154       24075.8       37773.1        401533        366700       57451.3
          155       24019.7       37722.4        400706        366518         57231
          156       23964.2       37673.7        399897        366345       57014.1
          157       23909.2       37627.1        399107        366180         56802
          158       23854.6       37582.7        398335        366024       56593.8
          159       23800.5         37540        397581        365875       56389.2
          160       23746.8       37499.2        396843        365734         56188
          161       23693.5       37460.2        396123        365601       55990.1
          162       23640.6       37423.6        395419        365475       55795.2
          163       23588.2       37389.3        394731        365356       55603.5
          164       23536.2       37357.4        394058        365244       55414.8
          165       23484.7       37326.9        393401        365138       55229.1
          166       23433.5       37298.2        392759        365039       55046.6
          167       23382.9       37271.2        392131        364946       54867.4
          168       23332.6       37246.2        391517        364859       54691.6
          169       23282.8       37223.9        390916        364777       54519.1
          170       23233.4         37204        390329        364702       54349.9
          171       23184.5       37185.3        389755        364631       54183.8
          172         23136       37167.7        389194        364566       54020.7
          173       23087.9       37151.7        388645        364506       53860.5
          174       23040.3       37137.6        388108        364451       53703.3
          175       22993.2       37125.4        387583        364401       53548.9
          176       22946.6       37114.9        387068        364355       53397.2
          177       22900.4       37106.2        386565        364314         53248
          178       22854.8       37099.1        386073        364278       53100.7
          179       22809.7       37093.1        385591        364245       52955.9
          180         22765       37088.5        385120        364217       52813.7
          181       22720.9       37085.3        384658        364192       52674.2
          182       22677.3       37083.4        384206        364172       52537.4
          183       22634.3       37082.8        383764        364155       52403.1
          184       22591.7       37083.4        383331        364142       52271.5
          185       22549.7       37085.2        382907        364132       52142.5
          186       22508.2       37088.1        382491        364126       52015.9
          187       22467.3       37092.1        382085        364123       51891.6
          188         22427       37097.2        381686        364123       51769.5
          189       22387.2       37103.1        381296        364126       51649.6
          190         22348         37110        380914        364133         51532
          191       22309.3       37117.7        380540        364142       51416.8
          192       22271.2       37126.3        380173        364154       51303.8
          193       22233.7       37135.7        379814        364169       51193.1
          194       22196.8       37145.9        379462        364187       51084.7
          195       22160.5       37156.7        379117        364207       50978.6
          196       22124.8       37168.1        378779        364229       50874.7
          197       22089.6       37180.2        378448        364254       50772.9
          198       22055.1       37192.8        378123        364282       50673.3
          199       22021.1         37206        377805        364311       50575.8
          200       21987.8       37219.7        377493        364343       50480.3
          201         21955       37233.8        377187        364376       50386.7
          202       21922.8       37248.3        376888        364412       50295.1
          203       21891.3       37263.2        376594        364449       50205.5
          204       21860.3       37278.6        376306        364489       50117.8
          205       21829.9       37294.2        376024        364530       50032.1
          206       21800.2       37310.1        375747        364572       49948.3
          207         21771       37326.3        375475        364616       49866.4
          208       21742.4       37342.7        375209        364662       49786.5
          209       21714.4       37359.3        374948        364709       49708.3
          210         21687       37376.2        374692        364757         49632
          211       21660.2       37393.3        374440        364806       49557.5
          212         21634       37410.6        374194        364857       49484.8
          213       21608.3         37428        373952        364908       49413.8
          214       21583.2       37445.4        373714        364961       49344.5
          215       21558.7       37462.9        373481        365014         49277
          216       21534.8       37480.4        373252        365069       49211.1
          217       21511.5       37498.2        373028        365124       49146.8
          218       21488.7       37516.2        372807        365180       49084.2
          219       21466.4       37534.2        372591        365236       49023.1
          220       21444.8       37552.2        372378        365293       48963.7
          221       21423.7       37570.1        372170        365350       48905.7
          222       21403.1         37588        371964        365408       48849.3
          223       21383.1       37605.7        371763        365467       48794.4
          224       21363.6       37623.4        371565        365526         48741
          225       21344.7       37641.1        371371        365585         48689
          226       21326.3       37658.7        371180        365644       48638.4
          227       21308.4       37676.2        370992        365703       48589.2
          228       21291.1       37693.5        370808        365763       48541.4
          229       21274.2       37710.7        370627        365823         48495
          230       21257.9       37727.8        370448        365882       48449.9
          231       21242.1       37744.7        370273        365942       48406.1
          232       21226.8       37761.4        370101        366002       48363.7
          233       21211.9       37777.7        369932        366061       48322.5
          234       21197.5       37793.7        369765        366121       48282.5
          235       21183.6       37809.6        369601        366180       48243.8
          236       21170.2       37825.3        369440        366239       48206.3
          237       21157.2       37840.8        369281        366298         48170
          238       21144.7       37856.2        369125        366356       48134.8
          239       21132.7       37871.5        368972        366414       48100.8
          240       21121.1       37886.6        368821        366472       48067.9
          241       21109.9       37901.3        368672        366529       48036.2
          242       21099.2       37915.8        368525        366586       48005.5
          243       21088.9       37930.1        368381        366643       47975.9
          244         21079       37944.3        368239        366699       47947.4
          245       21069.5       37958.4        368099        366754       47919.8
          246       21060.5       37972.3        367961        366810       47893.3
          247       21051.8       37986.2        367825        366864       47867.8
          248       21043.6       37999.9        367692        366919       47843.3
          249       21035.7       38013.4        367560        366972       47819.7
          250       21028.3       38026.8        367430        367026       47797.1
          251       21021.2         38040        367302        367079       47775.4
          252       21014.5         38053        367175        367131       47754.6
          253       21008.1         38066        367051        367182       47734.6
          254       21002.2         38079        366928        367234       47715.6
          255       20996.5       38091.9        366807        367284       47697.3
          256       20991.3       38104.7        366687        367334       47679.9
          257       20986.3       38117.4        366569        367384       47663.4
          258       20981.7       38129.9        366453        367433       47647.6
          259       20977.5       38142.4        366338        367481       47632.6
          260       20973.5       38154.7        366225        367529       47618.3
          261       20969.9         38167        366113        367576       47604.8
          262       20966.6       38179.3        366003        367623         47592
          263       20963.5       38191.4        365894        367669       47579.9
          264       20960.8       38203.5        365786        367715       47568.4
          265       20958.3       38215.5        365679        367760       47557.6
          266       20956.1       38227.4        365574        367804       47547.5
          267       20954.2       38239.2        365470        367848         47538
          268       20952.5       38250.9        365368        367891       47529.1
          269       20951.1       38262.5        365266        367934       47520.8
          270       20949.9         38274        365166        367976       47513.1
          271       20948.9       38285.5        365067        368017         47506
          272       20948.2       38296.8        364969        368058       47499.5
          273       20947.7       38308.1        364872        368098       47493.5
          274       20947.4       38319.3        364776        368137         47488
          275       20947.3       38330.5        364681        368176       47483.1
          276       20947.4       38341.5        364587        368215       47478.7
          277       20947.7       38352.5        364494        368253       47474.8
          278       20948.2       38363.4        364402        368290       47471.4
          279       20948.9       38374.2        364311        368326       47468.5
          280       20949.8         38385        364220        368362       47466.1
          281       20950.9       38395.7        364131        368398         47464
          282       20952.1       38406.4        364043        368433       47462.5
          283       20953.5         38417        363955        368467       47461.3
          284         20955       38427.5        363868        368501       47460.6
          285       20956.7       38438.1        363783        368534       47460.2
          286       20958.5       38448.5        363697        368567       47460.3
          287       20960.5       38458.9        363613        368599       47460.7
          288       20962.6       38469.3        363529        368631       47461.5
          289       20964.9       38479.7        363446        368663       47462.6
          290       20967.3         38490        363364        368693         47464
          291       20969.8       38500.2        363283        368724       47465.8
          292       20972.4       38510.5        363202        368753       47467.9
          293       20975.1       38520.7        363122        368783       47470.3
          294       20977.9       38530.9        363042        368812         47473
          295       20980.9       38541.1        362963        368840         47476
          296       20983.9       38551.2        362885        368868       47479.3
          297         20987       38561.4        362807        368896       47482.8
          298       20990.2       38571.5        362730        368923       47486.6
          299       20993.5       38581.6        362653        368950       47490.6
          300       20996.8       38591.8        362577        368976       47494.8
          301       21000.3       38601.9        362502        369002       47499.3
          302       21003.8         38612        362427        369028       47503.9
          303       21007.3       38622.1        362352        369053       47508.8
          304         21011       38632.2        362278        369078       47513.9
          305       21014.6       38642.4        362205        369102       47519.2
          306       21018.4       38652.5        362132        369126       47524.6
          307       21022.1       38662.7        362059        369150       47530.2
          308         21026       38672.8        361987        369173         47536
          309       21029.8         38683        361916        369196       47541.9
          310       21033.7       38693.2        361844        369219         47548
          311       21037.6       38703.4        361774        369242       47554.2
          312       21041.6       38713.7        361703        369264       47560.5
          313       21045.6       38723.9        361633        369285         47567
          314       21049.6       38734.2        361563        369307       47573.5
          315       21053.6       38744.4        361494        369328       47580.2
          316       21057.7       38754.7        361425        369349         47587
          317       21061.7       38765.1        361357        369370       47593.8
          318       21065.8       38775.4        361288        369390       47600.7
          319       21069.9       38785.7        361221        369410       47607.7
          320       21073.9       38796.1        361153        369430       47614.7
          321       21077.3       38806.6        361088        369450       47621.1
          322       21080.7       38817.2        361022        369469       47627.6
          323       21084.1       38827.7        360957        369488       47634.2
          324       21087.6       38838.2        360891        369507       47640.9
          325       21091.2       38848.8        360826        369526       47647.7
          326       21094.8       38859.4        360761        369544       47654.6
          327       21098.4         38870        360696        369562       47661.6
          328         21102       38880.5        360631        369581       47668.6
          329       21105.7       38891.1        360567        369598       47675.8
          330       21109.3       38901.7        360502        369616         47683
          331         21113       38912.3        360438        369634       47690.2
          332       21116.7       38922.9        360374        369651       47697.6
          333       21120.5       38933.6        360310        369668       47704.9
          334       21124.2       38944.2        360247        369685       47712.3
          335       21127.9       38954.8        360183        369702       47719.8
          336       21131.6       38965.4        360120        369719       47727.2
          337       21135.3       38976.1        360057        369735       47734.7
          338         21139       38986.7        359994        369752       47742.2
          339       21142.7       38997.3        359931        369768       47749.7
          340       21146.4         39008        359869        369784       47757.2
          341         21150       39018.7        359806        369800       47764.7
          342       21153.7       39029.3        359744        369816       47772.2
          343       21157.3         39040        359682        369832       47779.7
          344       21160.9       39050.7        359620        369848       47787.2
          345       21164.5       39061.4        359558        369863       47794.6
          346       21168.1       39072.1        359497        369879       47802.1
          347       21171.6       39082.8        359435        369894       47809.5
          348       21175.1       39093.6        359374        369909       47816.9
          349       21178.6       39104.3        359313        369924       47824.3
          350         21182       39115.1        359252        369939       47831.6
          351       21185.4       39125.9        359191        369954       47838.9
          352       21188.8       39136.7        359130        369969       47846.2
          353       21192.2       39147.5        359069        369984       47853.5
          354       21195.5       39158.4        359009        369999       47860.7