# Probe 0 (0.0005 0.0001 0.0005)
# Probe 1 (0.0005 0.0001 0.0045)
# Probe 2 (0.0005 0.0009 0.0045)
# Probe 3 (0.0005 0.0009 0.0005)
# Probe 4 (0.0005 0.0005 0.0025)
#       Probe             0             1             2             3             4
#        Time
            1    2.2626e-13   7.95082e-13   6.17566e-13   2.04021e-13   4.61662e-13
            2   8.35171e-14   3.71847e-13    3.6314e-13   8.37065e-14   1.77427e-13
            3   4.22298e-14  -1.18525e-13    5.5563e-14   4.95398e-14   3.07627e-14
            4   4.32952e-14   6.70912e-14  -1.13518e-13   3.13431e-14  -9.01018e-14
            5   1.32028e-14  -2.11782e-13  -1.37072e-13   2.56335e-15  -3.46564e-14
            6   1.71394e-14   4.37342e-14    8.1938e-15   3.73081e-14   5.86271e-14
            7   4.82822e-14   2.41898e-13   2.51894e-13   4.50353e-14   1.14721e-13
            8   1.10431e-14   1.99142e-15   1.86052e-14  -1.63571e-15   2.73683e-14
            9   2.18315e-15  -6.47503e-14  -6.57317e-14   9.99837e-15  -3.73278e-14
           10   1.34792e-14  -4.13738e-14   -6.4335e-14   1.21071e-14  -2.61157e-14
           11   2.17271e-14   5.43598e-14   6.05667e-14   2.71207e-14   4.37979e-14
           12  -2.25871e-14     1.367e-14   3.66233e-14  -3.28362e-14  -1.86357e-15
           13   1.60917e-14   2.72238e-14   5.82987e-15   2.30545e-14   2.20242e-14
           14    3.2462e-14   9.44747e-15   2.28151e-14   3.85668e-14   2.45683e-14
           15  -1.93716e-14  -5.83804e-14  -6.62252e-14  -4.02802e-14  -4.49737e-14
           16  -3.98545e-15   1.05909e-14   1.14517e-15   1.54309e-14  -3.99479e-15
           17   2.14431e-14   6.54566e-14   8.40918e-14   2.05649e-14   5.64641e-14
           18  -9.26814e-15  -4.05192e-14  -5.10177e-14  -2.65444e-14  -2.37238e-14
           19  -8.93792e-15  -3.39791e-14  -3.72781e-14   5.39068e-15  -3.87483e-14
           20   8.34869e-15   2.71025e-14    4.0897e-14   1.28646e-14   3.10918e-14
           21  -4.57566e-15   1.10779e-14   2.57349e-15   -1.9329e-14   7.45785e-15
           22  -1.67797e-14  -3.93448e-14  -3.99511e-14   -9.0153e-15  -4.07461e-14
           23  -8.93905e-15  -1.96156e-14   -1.8765e-14  -5.38287e-15  -1.62339e-14
           24   4.56223e-16   3.07805e-14   3.26688e-14  -7.55098e-15   3.18862e-14
           25  -6.59492e-15   2.21715e-15  -1.65534e-15  -3.42306e-15  -1.15117e-14
           26    1.9057e-15  -1.13809e-14  -8.52232e-15   4.99705e-15  -7.67218e-15
           27   5.29665e-15   7.57687e-16   3.55814e-15   3.11022e-15   9.79047e-15
           28   -2.0719e-14  -2.05138e-14   -2.5709e-14  -2.53538e-14  -2.59695e-14
           29  -1.18083e-14  -1.67231e-14  -1.45538e-14  -8.01245e-15   -1.5397e-14
           30  -1.26873e-15  -6.07862e-17  -3.12588e-15   2.80812e-16   1.18603e-15
           31   1.52833e-14   2.47519e-14   2.57326e-14    1.3664e-14   2.62809e-14
           32  -9.36638e-15  -2.22691e-14  -1.58314e-14  -1.33869e-14  -2.12662e-14
           33  -2.29369e-14  -3.34235e-14  -3.76821e-14   -2.0748e-14  -3.18938e-14
           34   7.32362e-15    1.9071e-14   1.38529e-14   1.23112e-14   1.43873e-14
           35   6.70492e-17   9.48435e-15   1.76683e-14  -9.70606e-15   5.91353e-15
           36  -8.61033e-15   4.80571e-17   1.24773e-16  -2.38701e-15   3.23828e-15
           37  -5.85892e-15  -1.41871e-14  -2.24904e-14  -6.60673e-15  -1.39163e-14
           38   5.40771e-15   5.67719e-15    8.6242e-15   5.35024e-15  -1.76697e-15
           39   2.61107e-15   9.57881e-15   1.74261e-14   1.91732e-15   1.39708e-14
           40    1.2149e-15  -4.42665e-16  -4.45497e-15   1.96873e-17   3.28277e-15
           41    1.1634e-14   1.11714e-14   8.30375e-15   1.48919e-14   8.10255e-15
           42   7.10811e-15  -7.62129e-15  -3.69158e-15   5.19485e-15  -2.93157e-15
           43   1.61377e-14   4.22147e-14   3.42159e-14   1.84139e-14   3.53016e-14
           44   1.03714e-14   1.08635e-14    1.8455e-14   4.54388e-15   9.67908e-15
           45   2.20398e-14   1.98014e-14   1.63786e-14    2.7088e-14   1.43413e-14
           46   4.17958e-15  -4.04999e-14  -3.31343e-14   5.77137e-16  -1.41919e-14
           47  -5.66693e-15  -1.62428e-14  -2.42212e-14  -3.39431e-15  -1.33393e-14
           48  -1.05547e-14    4.5086e-15   2.43214e-15  -1.15493e-14  -1.14869e-14
           49    1.6964e-14   4.57051e-14   5.67352e-14   1.93774e-14   4.41644e-14
           50   9.32299e-15   2.33431e-14   1.87369e-14    4.3877e-15   2.16267e-14
           51   1.04209e-14   1.45178e-14   7.61644e-15   1.59741e-14   7.62659e-15
           52  -2.93773e-15  -4.45651e-14   -3.3593e-14  -8.16441e-15  -2.90385e-14
           53   1.90925e-14   3.19438e-14   2.49404e-14   2.46348e-14   2.81513e-14
           54  -2.09683e-15   4.05683e-15  -7.52163e-16  -7.48931e-15  -3.48166e-15
           55  -1.09834e-14  -3.61598e-14  -2.07957e-14  -1.36301e-14  -1.90576e-14
           56   4.74848e-16   1.09494e-14   1.23387e-15   7.28078e-15   4.37878e-15
           57  -8.55404e-15  -2.06179e-15  -5.03516e-15  -1.20594e-14  -1.68921e-14
           58  -1.09704e-14  -1.92593e-14  -9.77269e-15  -9.93334e-15  -1.07684e-14
           59   -1.3504e-14   2.12645e-15  -4.90225e-15  -1.36832e-14  -3.83097e-15
           60  -9.77726e-15  -6.51709e-15   -7.8476e-15  -1.22065e-14  -8.19141e-15
           61  -1.59587e-14  -3.49235e-14  -2.78298e-14  -1.50175e-14   -2.8831e-14
           62   1.79573e-15   1.10496e-14   6.69078e-15   5.03038e-15   1.53927e-14
           63   2.19847e-14     6.422e-14    6.2313e-14   2.16426e-14   5.44018e-14
           64  -1.69425e-14  -8.34736e-14  -7.85262e-14  -2.27331e-14   -7.2539e-14
           65   8.01176e-15  -1.78086e-14  -2.04645e-14   1.70816e-14  -7.54132e-16
           66  -5.15554e-15   3.91126e-14   3.25033e-14   -1.0666e-14   1.89291e-14
           67  -5.67371e-14   -5.1051e-14  -3.93496e-14  -6.93385e-14  -6.66319e-14
           68  -3.05972e-14  -5.29586e-14  -5.10459e-14  -1.81421e-14  -4.18248e-14
           69  -3.51285e-14  -5.10212e-14  -6.52606e-14  -3.08488e-14  -3.37599e-14
           70   2.56617e-14   1.22751e-13   1.33772e-13   2.14214e-14   1.01556e-13
           71   3.01924e-14   6.63757e-14    6.6131e-14   2.33753e-14   3.36697e-14
           72   1.67273e-14  -7.90654e-14  -8.62504e-14   2.62849e-14  -3.11358e-14
           73     7.682e-15  -6.79656e-14   -6.4887e-14   7.81657e-15  -3.36023e-14
           74   -2.8879e-14   3.80093e-14   4.25826e-14  -4.44714e-14  -1.87787e-14
           75  -2.47529e-14     1.686e-14   1.40566e-14  -1.27387e-14    2.5548e-14
           76  -1.01496e-14  -3.60723e-14  -3.85754e-14  -1.25104e-14  -1.77828e-14
           77   3.62683e-15  -3.38394e-14  -3.04742e-14   2.68262e-15  -4.64831e-14
           78   4.18682e-15    5.4474e-14   4.98694e-14   1.81652e-14   3.37888e-14
           79  -2.89415e-14  -6.74572e-14  -6.01329e-14  -5.76963e-14  -3.80091e-14
           80  -6.31308e-15  -3.45013e-15  -7.42964e-15   1.47174e-14   5.76577e-15
           81  -5.40434e-15   2.03616e-14   1.56989e-14  -5.38097e-15   -3.9917e-15
           82  -1.97236e-14  -7.09159e-14  -6.25865e-14  -4.02812e-14  -5.56709e-14
           83  -5.98434e-14   -7.2667e-14  -7.90198e-14  -3.53588e-14   -6.2773e-14
           84  -3.61039e-14  -6.30455e-15  -1.00656e-14  -4.21268e-14  -9.97445e-15
           85   5.97716e-15   6.79745e-14   7.77337e-14  -4.33574e-15   5.23723e-14
           86   2.24889e-15   1.83134e-14   2.33898e-14   6.56426e-15    6.8262e-15
           87   1.68641e-14   3.03859e-14   1.87197e-14   2.90107e-14   1.75523e-14
           88   4.94988e-14   5.54793e-14   5.62238e-14   3.83084e-14   4.84593e-14
           89   4.00644e-14  -3.08737e-14  -1.66798e-14   3.49462e-14     6.686e-15
           90    1.6715e-14  -9.39202e-14  -1.09128e-13   1.55796e-14  -6.26438e-14
           91  -1.86259e-14   1.25217e-13   1.22794e-13   -9.9665e-15   5.27569e-14
           92  -1.17041e-14   4.06243e-15   2.27464e-14  -1.63308e-14    3.5623e-14
           93  -2.29467e-14  -1.48387e-13  -1.67765e-13  -3.15907e-14  -1.26386e-13
           94  -4.41164e-14  -7.67344e-14  -7.21774e-14  -3.03806e-14  -7.11649e-14
           95  -3.01859e-14   1.16006e-13   1.23951e-13  -4.13366e-14   7.89744e-14
           96    5.1717e-14   1.02796e-13   9.60181e-14   6.12389e-14   9.09194e-14
           97   6.44579e-14   4.99379e-14   5.50621e-14   5.79692e-14   5.58083e-14
           98   2.53619e-14  -7.30456e-14  -7.70726e-14   1.51768e-14  -6.54085e-14
           99  -2.41783e-14  -5.83659e-14  -5.95337e-14   2.04616e-15  -3.93695e-14
          100  -3.47778e-14  -2.46768e-14  -2.03627e-14  -5.46515e-14  -1.36562e-14
          101   -5.3951e-15   3.87796e-14   3.17358e-14  -9.46325e-15   2.84622e-14
          102  -5.22405e-14   -1.5501e-13  -1.40527e-13  -4.28402e-14  -1.33961e-13
          103   1.69692e-14   1.72376e-13   1.57887e-13   2.15943e-14   1.16808e-13
          104   5.76561e-14   1.58736e-13    1.6503e-13    3.4405e-14   1.24577e-13
          105    4.7688e-14  -3.00861e-14  -2.55845e-14   6.45778e-14   9.67302e-15
          106  -2.29589e-14  -2.28298e-13   -2.3847e-13  -3.28717e-14  -1.82819e-13
          107   4.92568e-14   2.86298e-13   2.88024e-13   6.13832e-14   2.25498e-13
          108  -5.34995e-14  -1.46042e-13  -1.36572e-13  -7.06722e-14  -1.42158e-13
          109  -6.93674e-14  -2.06955e-13  -2.09618e-13  -7.11336e-14  -1.66443e-13
          110  -8.43727e-14   5.08926e-16  -1.53652e-14  -6.02472e-14   1.91481e-14
          111  -9.94592e-14  -7.17911e-14  -5.99181e-14  -1.31545e-13  -1.12144e-13
          112  -4.54999e-14   8.64257e-15   1.50466e-14  -2.52857e-14  -1.89866e-14
          113   7.61723e-14   1.51811e-13   1.43117e-13   9.58884e-14   1.53523e-13
          114   -1.3924e-14  -1.17776e-13  -1.07757e-13    -6.523e-14  -8.22012e-14
          115   2.73049e-15  -6.87876e-14   -7.5356e-14   3.87572e-14  -5.06026e-14
          116   6.10168e-14   1.46643e-13   1.34259e-13   8.50792e-14   1.13393e-13
          117   9.90755e-14   1.21712e-13   1.41614e-13    5.1108e-14   1.22179e-13
          118  -8.00263e-16  -8.17542e-14  -8.46778e-14   1.31602e-14  -6.13334e-14
          119  -9.54718e-14  -1.66419e-13  -1.73332e-13  -8.96736e-14  -1.56466e-13
          120  -1.08499e-13  -9.41739e-14  -9.11328e-14  -1.06285e-13  -7.58026e-14
          121   1.29139e-14     1.925e-13   1.92522e-13   1.15582e-14   1.41039e-13
          122   1.00112e-13   1.27265e-13   1.28282e-13   9.24463e-14   7.59097e-14
          123  -3.84718e-14  -1.58149e-13   -1.5708e-13   -4.2738e-14  -1.21599e-13
          124  -8.78169e-14  -3.00237e-13  -2.95945e-13  -9.00017e-14  -1.90148e-13
          125  -8.44714e-14   9.73278e-14   7.91199e-14  -6.57018e-14   7.81388e-15
          126  -2.22269e-14   9.67039e-14   1.08493e-13  -3.55072e-14   5.39414e-14
          127  -4.43509e-14  -2.88608e-13  -2.75241e-13  -6.04472e-14  -1.51392e-13
          128  -2.28143e-14   2.21709e-13   1.87373e-13   1.46351e-14   8.12362e-14
          129  -6.42575e-14  -4.70329e-14  -4.59433e-15   -9.5719e-14  -5.85485e-14
          130  -3.44953e-14  -2.54334e-13  -2.78566e-13  -2.14694e-14  -1.12788e-13
          131  -6.49824e-15   6.74277e-15  -2.94388e-15  -1.24665e-14  -4.33115e-14
          132   1.82142e-14   1.40361e-13   1.64571e-13   2.72828e-14   9.30979e-14
          133  -8.66116e-14  -1.41327e-13  -1.58175e-13  -1.15423e-13  -1.48226e-13
          134   -1.4014e-13  -1.95818e-13  -1.86799e-13  -1.25499e-13  -1.63662e-13
          135  -6.42479e-14   6.96031e-14    6.1655e-14  -2.61115e-14   6.38753e-14
          136   8.30592e-14   1.91327e-13   1.97101e-13   4.19639e-14   1.56218e-13
          137   1.19848e-13   1.52746e-13   1.47925e-13   1.18342e-13   1.00412e-13
          138   8.56068e-14   -3.7846e-14  -1.93252e-14   1.04786e-13  -4.69811e-16
          139   -2.2824e-15  -1.65283e-13  -1.70101e-13  -7.43991e-15  -7.94498e-14
          140   -9.0042e-14  -1.31402e-13  -1.67292e-13  -9.87252e-14  -1.15973e-13
          141   -6.0549e-14   4.10006e-14    8.3768e-14  -5.83937e-14    5.4454e-15
          142  -1.89385e-14   7.30245e-14   6.76761e-14  -2.33888e-14   2.35766e-14
          143    6.9107e-14     7.343e-15  -1.42067e-14   7.65667e-14    2.8232e-14
          144  -2.79701e-14  -6.38465e-14  -5.45367e-14  -2.44731e-14  -4.27476e-14
          145    -1.739e-13  -2.53151e-13  -2.32279e-13  -2.05564e-13  -2.40045e-13
          146  -1.92837e-13  -2.03901e-13  -2.36689e-13   -1.7262e-13  -2.09267e-13
          147   1.28359e-13   4.34068e-13   4.46607e-13   1.67133e-13   4.22669e-13
          148   1.07108e-13     6.048e-14   8.61763e-14   5.00687e-14   1.15584e-15
          149   8.91367e-14   5.35416e-14   1.28951e-14   1.11228e-13    1.5536e-14
          150  -3.65764e-14  -1.95251e-13  -1.71591e-13  -3.67205e-14   -8.6399e-14
          151  -8.91376e-14  -2.09092e-13  -2.10127e-13  -9.27435e-14  -1.38612e-13
          152   8.46218e-16   1.73538e-13    1.5574e-13   1.32579e-14   7.30158e-14
          153   5.44049e-15   6.18327e-14   9.70135e-14   -2.3756e-14   3.74892e-14
          154  -8.11196e-14  -2.70866e-13  -3.03521e-13  -6.98082e-14  -1.58748e-13
          155  -5.95562e-15     1.906e-13   1.90514e-13   1.67447e-14   8.43653e-14
          156   1.42197e-14   7.25512e-14   1.11743e-13  -1.71784e-14   4.96413e-14
          157  -1.19311e-14  -2.40114e-13  -2.91303e-13  -1.42568e-14  -1.52884e-13
          158  -3.11819e-14   8.81095e-14   1.10281e-13   4.39807e-15   4.19285e-14
          159  -3.26915e-14  -1.86674e-14   -5.7264e-15   -7.1409e-14  -4.41739e-14
          160   4.23102e-14  -6.76947e-15  -2.46001e-14   6.71898e-14   3.94045e-14
          161   8.76431e-14   9.06633e-14   9.06716e-14   8.59108e-14   1.11537e-13
          162  -7.28638e-14  -1.56971e-13  -1.44673e-13  -9.79895e-14  -1.68401e-13
          163  -6.75156e-16   1.36548e-13   1.26934e-13   4.84184e-14   1.01455e-13
          164  -2.71849e-14   8.83555e-14   8.44126e-14  -7.02663e-14   3.27622e-14
          165  -1.71464e-14    -3.495e-13  -3.26487e-13  -1.51925e-14  -1.77996e-13
          166   1.96953e-14   6.87695e-14   3.88826e-14   5.07946e-14    4.0471e-14
          167   1.26631e-13   4.23103e-13   4.38386e-13    1.0574e-13   2.66957e-13
          168   6.99752e-14   1.18581e-13    1.2592e-13   3.84064e-14   9.54643e-14
          169   1.88922e-14  -2.60371e-13  -2.57177e-13    4.9325e-14  -1.03624e-13
          170    1.8004e-14  -7.77575e-15  -3.67253e-14   3.74032e-14  -6.02294e-15
          171  -3.58938e-14  -6.24651e-14  -4.69466e-14   -8.1358e-14  -8.95553e-14
          172  -6.34673e-15   6.08379e-14    7.5137e-14   1.45801e-14   5.46192e-14
          173   1.09182e-13    3.4475e-13   3.26848e-13   1.40579e-13   2.93963e-13
          174   8.09561e-14   4.19696e-15   1.45362e-14   2.51494e-14  -2.46322e-14
          175     7.643e-14  -7.26798e-14  -7.15073e-14   1.07268e-13  -2.16896e-14
          176   5.95134e-14  -1.13022e-14  -2.11309e-14   6.58096e-14   5.31835e-14
          177  -2.49142e-14  -9.26705e-14  -7.32175e-14   -7.3648e-14  -4.27635e-14
          178     7.608e-14     2.855e-13   2.63029e-13   1.25977e-13   1.83315e-13
          179   5.38129e-14   1.75788e-13   1.74957e-13   2.79808e-14   8.57774e-14
          180   1.09408e-13  -8.36025e-14  -5.04457e-14   1.07831e-13   4.71855e-14
          181  -4.65411e-14  -2.17644e-13  -2.67407e-13  -5.64001e-14  -1.89331e-13
          182  -1.37745e-13  -2.61861e-13  -2.11719e-13   -1.2205e-13  -1.76003e-13
          183  -4.53878e-14   4.84009e-13   4.42914e-13  -4.44053e-14   2.15005e-13
          184  -1.05006e-13  -3.52266e-13  -3.28133e-13  -1.17685e-13  -2.50535e-13
          185   4.63668e-15  -1.12706e-13  -1.26363e-13   2.53205e-14  -2.53861e-14
          186   1.85797e-14   1.20631e-13   1.03122e-13   1.07345e-14   5.21055e-14
          187    8.6136e-14    2.0164e-13   2.46059e-13   8.33614e-14   1.75635e-13
          188   6.86096e-14   1.20228e-13    1.1139e-13   5.43686e-14   6.50999e-14
          189  -1.53374e-13  -4.18296e-13  -4.28427e-13  -1.71572e-13  -3.41391e-13
          190  -1.57624e-13  -2.48501e-13  -2.41782e-13  -1.10984e-13  -1.51197e-13
          191   2.08149e-14   4.17562e-13   4.17661e-13   1.90721e-14   3.19464e-13
          192    7.9847e-14   3.46971e-13   3.23366e-13     4.281e-14    1.2313e-13
          193  -2.94564e-14  -7.40969e-13  -6.92268e-13   1.41753e-15  -3.89657e-13
          194   5.08847e-16   1.66011e-13   1.05064e-13  -1.83023e-14   9.82138e-14
          195  -8.20326e-14    1.4793e-13   1.87844e-13  -9.44969e-14  -5.20603e-15
          196  -3.17658e-14  -1.34455e-13  -1.17114e-13   3.08075e-15  -3.21416e-14
          197   7.94813e-14  -5.47166e-14  -9.35846e-14   7.14779e-14   3.49056e-14
          198   9.08149e-14   1.68363e-13   1.80841e-13   8.42628e-14   1.06454e-13
          199    4.5352e-14   2.21082e-13   2.09835e-13    4.7479e-14   1.08619e-13
          200   -9.4196e-14  -3.60988e-13  -3.39351e-13  -1.29326e-13  -2.87587e-13
          201  -1.28605e-13  -2.86136e-13   -2.7951e-13  -9.95815e-14  -2.05624e-13
          202   7.29827e-14   7.64745e-13   7.11273e-13   9.71397e-14   5.05063e-13
          203   2.81279e-14  -3.66617e-13  -2.68638e-13  -2.85372e-14   -1.6713e-13
          204   3.76693e-14  -1.88966e-13  -2.74941e-13   8.83464e-14  -1.11801e-13
          205   1.13644e-14   2.46738e-13   2.52234e-13  -1.16808e-14   1.00437e-13
          206   1.64564e-14   1.13822e-13   1.69506e-13  -1.61008e-15   9.66823e-14
          207   -2.6722e-15  -1.18656e-13  -1.69189e-13    2.1592e-14  -3.39146e-14
          208  -5.35351e-14  -1.95667e-13  -1.70533e-13  -6.32054e-14  -1.40721e-13
          209  -3.41891e-14   -3.3802e-14  -3.10265e-14  -3.57171e-14  -3.74268e-14
          210  -5.68892e-14   1.14871e-13   8.57036e-14  -6.50845e-14  -1.79627e-14
          211   6.43862e-14   1.88992e-13   2.29849e-13   7.43872e-14    1.8182e-13
          212    1.2999e-13   1.07589e-13   8.51349e-14   1.24263e-13   1.44115e-13
          213  -1.76666e-14  -3.43443e-13  -3.42152e-13  -4.18034e-14  -2.62072e-13
          214  -8.93542e-14  -2.67973e-13   -2.5914e-13  -5.53921e-14   -1.9258e-13
          215  -4.89057e-14   4.28627e-13   3.91954e-13   -5.6942e-14   2.26519e-13
          216    6.3264e-14   1.55084e-13   2.14508e-13   4.91332e-14   2.09481e-13
          217   7.52667e-14  -1.98602e-13  -2.33706e-13   9.31348e-14  -9.40932e-14
          218  -1.24732e-13  -3.60757e-13  -3.61637e-13  -1.49815e-13  -3.31719e-13
          219   -2.4307e-14   3.75377e-13   3.87436e-13  -2.93803e-15   2.18753e-13
          220   2.87218e-14   1.47746e-13   1.51347e-13   2.10616e-14    1.2454e-13
          221   1.42587e-13  -5.67597e-15  -1.00215e-14   1.58074e-13    9.2157e-14
          222   9.02698e-14   2.72962e-14   8.89916e-15   6.95463e-14   1.07278e-15
          223   1.37492e-13   1.66973e-13    1.7904e-13   1.52417e-13   1.54605e-13
          224   1.27007e-14  -2.61775e-14  -1.79374e-14  -1.63946e-14  -2.00003e-14
          225   1.45957e-13   2.95409e-13   2.75615e-13   1.88207e-13   2.63483e-13
          226  -9.94665e-16  -2.13812e-13  -1.86184e-13   -5.7356e-14  -1.66617e-13
          227  -2.15044e-14  -1.02888e-13  -1.10031e-13   2.26247e-14   -4.7973e-14
          228   1.63679e-13   5.91387e-13   5.64281e-13   1.69815e-13   4.63397e-13
          229   1.77854e-13   2.17474e-14   6.85674e-14   1.44131e-13   5.10413e-14
          230   1.26105e-13  -5.01026e-14  -7.74659e-14   1.43516e-13  -3.23722e-14
          231   9.30168e-14   2.22721e-13   2.01705e-13   1.01496e-13   2.36967e-13
          232    8.7541e-15   3.41769e-14   7.06093e-14   -2.8829e-14  -1.32967e-14
          233  -3.35437e-14   -1.1458e-13  -1.32301e-13  -6.82072e-15  -1.13491e-13
          234   4.54336e-14  -7.03776e-14  -6.26154e-14   5.87687e-14   6.26797e-14
          235   3.58293e-14   5.65622e-15   7.67115e-15  -1.25592e-15  -1.68404e-15
          236    1.0492e-14   1.62402e-13   1.55397e-13   3.58719e-14   4.24069e-14
          237    1.4722e-14   8.51758e-14   9.84853e-14   7.94428e-15   3.13502e-14
          238    1.2861e-14  -2.30325e-13   -2.1535e-13   1.22282e-14  -4.31567e-14
          239   8.48341e-14   8.28477e-14   3.83819e-14   9.27695e-14   7.98165e-14
          240   5.25355e-14   2.59342e-13   2.92169e-13   3.78462e-14   1.35463e-13
          241   9.84584e-14     2.657e-13   2.74506e-13      1.02e-13   1.93612e-13
          242   1.07648e-13  -8.25856e-14  -1.22944e-13   1.11367e-13  -1.05028e-15
          243   1.55263e-13  -5.84483e-14  -3.03277e-14   1.56122e-13   7.80008e-14
          244   8.68913e-14   1.80867e-13   1.57863e-13   6.76261e-14   8.97077e-14
          245  -2.58279e-15   1.25662e-13   1.28033e-13    9.7797e-15   4.40554e-14
          246   5.57249e-14   1.09003e-13   1.50995e-13   6.85841e-14   1.28129e-13
          247   8.80018e-14  -7.89801e-14  -9.32314e-14    6.2831e-14   5.09841e-15
          248   8.17215e-15  -2.04789e-14  -7.13118e-14   1.63688e-15  -9.66198e-14
          249  -5.23793e-14  -2.62922e-14   2.76396e-14  -2.00879e-14    4.1741e-14
          250  -5.97951e-16   1.70292e-13    1.3746e-13  -1.95944e-14   1.01738e-13
          251   5.21006e-15  -2.37411e-14   1.23804e-14  -1.31935e-14  -5.10853e-14
          252   1.63895e-14  -1.99652e-13  -1.91167e-13   4.46284e-14  -6.20131e-14
          253  -1.50874e-14   2.18774e-14  -3.88988e-14  -2.78776e-14  -4.08969e-15
          254   7.92616e-15   1.04872e-13   1.54005e-13  -1.02767e-15   4.13494e-14
          255   8.67021e-14   1.72991e-13    1.7251e-13    9.9156e-14    1.1882e-13
          256    5.1457e-14  -6.01897e-14  -7.80503e-14   2.59186e-14   6.35305e-15
          257  -4.05603e-14  -1.52394e-13  -1.46563e-13   -2.4052e-14  -7.57242e-14
          258  -7.75042e-14  -7.19116e-14  -8.50118e-14  -6.30259e-14  -7.24623e-14
          259  -9.63412e-14   -1.2162e-14   6.06971e-15   -1.1865e-13   -8.6977e-14
          260   2.24652e-15   6.74687e-14   6.85976e-14  -2.22714e-15   1.19397e-14
          261  -1.96171e-15   8.57844e-15  -6.75639e-15   2.04968e-14    3.0408e-14
          262  -7.01853e-14  -1.23858e-13  -9.76823e-14  -9.44155e-14  -8.34655e-14
          263  -1.34621e-13  -2.24056e-13  -2.39526e-13  -1.40545e-13  -2.09079e-13
          264  -5.04746e-14  -1.16236e-13  -1.00734e-13  -1.22629e-14  -4.43755e-14
          265   6.27725e-14   3.11623e-13   2.90302e-13   3.60591e-14   2.01661e-13
          266  -5.20244e-14  -1.04274e-13  -8.06488e-14  -6.78544e-14   -1.0784e-13
          267   3.21411e-14  -3.44308e-15  -3.09619e-14   6.80973e-14   1.49304e-14
          268   4.69165e-14   1.66889e-14    1.5809e-14   4.11651e-14   4.42319e-14
          269   1.44132e-14   2.79345e-14   3.16625e-14  -4.47845e-15   3.89748e-15
          270   9.52866e-14    1.5453e-13   1.64516e-13   1.06591e-13   1.38845e-13
          271  -2.60972e-14  -1.49688e-13  -1.37744e-13  -5.90348e-14  -1.31977e-13
          272   -7.0333e-14  -1.09538e-13  -1.16075e-13  -4.11407e-14  -6.45969e-14
          273   1.26541e-13   5.10121e-13   4.62482e-13   1.53966e-13   3.98814e-13
          274   1.53263e-13   5.67335e-14   1.42796e-13   1.08655e-13    8.1221e-14
          275   1.33892e-13   1.72048e-14  -4.20161e-14   1.36178e-13   -1.2456e-14
          276  -1.12835e-14    -1.988e-13  -1.77978e-13   1.21476e-15  -9.75257e-14
          277  -3.97198e-15     8.675e-14    5.4252e-14   3.47832e-15   7.51671e-14
          278   4.02527e-14   1.07999e-13   1.34774e-13   2.06177e-14   7.92006e-14
          279   1.18937e-13   1.87452e-13   2.03752e-13   1.19616e-13   1.56391e-13
          280   7.53861e-14   6.96068e-14   5.23808e-14   7.91593e-14   4.28585e-14
          281   1.24798e-13   6.89051e-14   8.24453e-14   1.32968e-13     1.209e-13
          282   1.58299e-13   1.32094e-13   1.13018e-13   1.45021e-13   1.56564e-13
          283   6.65377e-14   3.06706e-15   3.44774e-14   5.46487e-14    4.0945e-14
          284  -5.38016e-15  -3.94857e-15  -3.56951e-14   3.77481e-15  -5.56766e-14
          285   6.80831e-14   1.53351e-13   1.48851e-13   9.90202e-14   1.46967e-13
          286   1.57307e-14  -1.05324e-13  -5.28163e-14  -4.36159e-14   -3.8872e-14
          287  -1.24327e-14  -1.92137e-14  -5.93491e-14    2.1461e-14  -2.99383e-14
          288  -4.64052e-14   2.61165e-14   1.14959e-14  -4.81428e-14  -4.26732e-14
          289   6.53591e-14   4.48557e-14   1.20867e-13   5.22761e-14   1.40338e-13
          290   8.92604e-14   1.92291e-13   1.18513e-13   1.04086e-13   1.21786e-13
          291   5.60861e-14   1.61427e-14   4.50261e-14   3.95406e-14   1.38886e-15
          292  -8.03718e-14  -2.25539e-13   -2.5098e-13  -8.93811e-14  -1.94117e-13
          293  -2.90251e-14  -5.29444e-14  -3.86882e-14   2.70027e-15  -1.47187e-15
          294   5.41808e-14   2.63026e-13    2.6731e-13   3.53658e-14   1.82927e-13
          295  -5.46984e-14  -1.89266e-13  -2.08756e-13  -7.28946e-14  -1.82781e-13
          296   2.98471e-14  -1.19119e-14   1.47541e-14   6.91887e-14   8.34982e-14
          297  -2.01357e-14   9.62673e-15   3.67789e-15  -5.79416e-14  -4.09089e-14
          298   3.62895e-14   1.33224e-13   1.13185e-13   4.52423e-14   6.00306e-14
          299   1.39605e-13   1.46992e-13   1.80905e-13   1.50958e-13   1.65229e-13
          300  -4.19792e-14   -1.3233e-13  -1.23313e-13    -7.152e-14  -8.49594e-14
          301   -9.2376e-14  -1.58514e-13  -1.98323e-13   -8.2441e-14  -1.46658e-13
          302   1.52226e-14   5.98111e-14   5.63804e-14   5.47431e-14   5.42719e-14
          303   4.79664e-14   1.72292e-13   2.18652e-13   7.41334e-15   1.22236e-13
          304   1.28803e-13   2.85846e-13   2.57459e-13   1.26518e-13   2.12689e-13
          305   1.60371e-14  -2.51779e-13  -2.56594e-13   2.44817e-14  -1.58414e-13
          306  -5.91901e-14  -2.62349e-13  -2.38354e-13  -5.63315e-14  -1.80029e-13
          307   6.67323e-14   4.39626e-13   4.24729e-13   6.79079e-14   3.38153e-13
          308   1.19664e-13   1.82711e-13   1.82651e-13   1.09962e-13    1.0833e-13
          309   8.27532e-14  -1.40924e-13  -1.26615e-13    8.8271e-14  -5.00975e-14
          310    9.5028e-14  -1.94484e-14  -4.20592e-14    1.1067e-13   7.34212e-14
          311   3.87625e-14   9.32573e-14   7.91747e-14   5.97078e-15   4.22392e-14
          312    4.6764e-14   9.99095e-14   1.75907e-13   4.74704e-14    7.0626e-14
          313  -1.37146e-15   4.65629e-14  -1.14443e-14   2.17032e-14   2.08347e-14
          314  -4.21865e-15   2.24241e-15  -2.91055e-14  -2.08001e-14  -1.77219e-14
          315  -6.91197e-14  -1.67716e-13  -1.05662e-13  -8.95457e-14  -1.00837e-13
          316  -9.91823e-14  -1.11107e-13   -1.3716e-13  -8.77948e-14  -1.14115e-13
          317  -7.45788e-14   -1.0718e-13  -1.18086e-13   -8.4018e-14  -1.12982e-13
          318   5.67267e-14   2.65527e-13   3.00219e-13   9.66862e-14   2.19718e-13
          319   2.49736e-14   7.12988e-14   5.06688e-14  -2.87451e-14   1.08139e-14
          320  -7.25439e-14  -2.21377e-13   -2.0398e-13  -4.15973e-14  -1.61497e-13
          321  -1.28907e-13  -3.15321e-13  -3.27487e-13  -1.38255e-13  -2.25765e-13
          322  -1.14916e-13  -1.40138e-13  -1.56221e-13  -1.11573e-13  -1.14458e-13
          323   3.25089e-14    3.0681e-13   3.34459e-13   5.57933e-14   2.30873e-13
          324   9.67618e-14   2.93886e-13   2.74456e-13   6.47321e-14   1.60197e-13
          325   1.08943e-14  -3.89482e-13  -3.58726e-13   1.59402e-14  -2.01914e-13
          326   4.57053e-14   1.94278e-14   -2.1946e-14   6.08014e-14    4.6088e-14
          327   5.10634e-14   1.65268e-13   1.87426e-13   2.99733e-14   1.07222e-13
          328   3.55281e-14   1.53585e-13   1.63817e-13   4.85335e-14   8.90124e-14
          329  -5.58553e-14  -3.34277e-13  -3.26237e-13  -7.32906e-14  -2.17937e-13
          330  -4.66382e-14  -7.82315e-14  -1.19555e-13   -3.6529e-14  -5.17067e-14
          331    7.8236e-15   4.56415e-13   4.49257e-13   1.57035e-14   2.35916e-13
          332  -5.73102e-15  -8.82016e-14  -2.71599e-14  -2.49635e-14  -6.19185e-14
          333   -1.3338e-14  -2.28226e-13   -2.8116e-13  -3.60186e-15  -1.51796e-13
          334   2.69538e-14  -3.61772e-14   1.23795e-14   3.84577e-14    1.0096e-13
          335   4.08503e-14   2.63677e-13   2.23581e-13   1.52387e-14    1.0306e-13
          336   8.53207e-14   2.48228e-13   2.54504e-13     1.037e-13   9.45274e-14
          337   8.45609e-14  -1.91551e-13  -1.43319e-13   8.28364e-14   7.38939e-14
          338   1.10842e-13   1.40419e-13   2.82358e-14   1.03066e-13   1.06828e-13
          339    1.8981e-13    4.4931e-13    5.1846e-13   2.04916e-13   2.76486e-13
          340   6.53385e-14  -3.28528e-13  -2.88394e-13   3.41344e-14  -1.55048e-13
          341  -1.54597e-14  -1.45127e-13  -2.03683e-13   8.98594e-15  -8.81995e-14
          342   3.95266e-14   4.09034e-13   4.36733e-13   3.60806e-14   2.36564e-13
          343  -5.47412e-14  -1.77757e-13    -1.368e-13  -8.40039e-14  -1.16267e-13
          344   3.30891e-14  -9.07719e-14  -1.32848e-13   6.13649e-14  -7.71337e-16
          345   8.03111e-14   1.48787e-13   1.42949e-13   8.47031e-14   1.47496e-13
          346   2.12352e-14   1.82038e-13   1.75052e-13  -1.50711e-14   1.34843e-14
          347  -2.07921e-14  -1.63494e-13  -8.44489e-14   4.85197e-15  -7.32965e-14
          348   -5.5891e-14  -1.68041e-13  -2.42347e-13  -4.85481e-14   -9.1645e-14
          349   2.54935e-14   2.92426e-14   3.22205e-14   1.93991e-14   7.53414e-14
          350   1.36435e-13   3.52425e-13   3.49534e-13   1.47559e-13   2.43271e-13
          351   5.19161e-15   5.67236e-14    7.7565e-14  -4.55757e-14  -4.66357e-14
          352  -7.90355e-14  -2.81434e-13  -2.48505e-13  -4.96653e-14  -1.69185e-13
          353   6.77263e-14   1.77321e-13   8.83646e-14   1.03489e-13   1.72737e-13
          354   5.82474e-15  -7.67633e-14  -9.58454e-16  -5.74582e-14  -5.63433e-14