# Probe 0 (0.0005 0.0001 0.0005)
# Probe 1 (0.0005 0.0001 0.0045)
# Probe 2 (0.0005 0.0009 0.0045)
# Probe 3 (0.0005 0.0009 0.0005)
# Probe 4 (0.0005 0.0005 0.0025)
#       Probe             0             1             2             3             4
#        Time
            1             (38.9075 -2.7071e-17 -1.33641e-16)             (38.8809 -6.9139e-18 3.61726e-17)             (38.8805 5.57769e-18 -1.12574e-17)             (38.8808 1.35392e-18 1.75909e-18)             (38.8895 -8.81924e-18 -4.25935e-17)
            2             (39.4332 2.04164e-16 -5.99029e-15)             (38.8836 -8.06866e-17 3.79848e-16)             (38.8832 5.49521e-17 -1.70197e-16)             (38.977 -3.20469e-16 -3.0329e-16)             (39.0143 -7.83632e-16 -2.65047e-15)
            3             (39.4725 -8.17864e-16 -3.51779e-15)             (38.8892 -3.65448e-16 -3.90853e-16)             (38.89 -4.24554e-16 -8.55687e-17)             (39.0386 -1.71306e-15 -3.26427e-15)             (39.2301 -4.56473e-15 -2.64373e-15)
            4             (39.6509 -7.50283e-16 -3.22985e-15)             (38.8972 2.03847e-15 1.95318e-15)             (38.9009 6.32423e-17 3.3196e-16)             (39.0605 4.82026e-16 -2.35298e-15)             (39.3442 4.85697e-15 -5.91958e-15)
            5             (39.8149 -2.24263e-16 -2.72082e-15)             (38.9105 -4.10609e-15 -3.41774e-15)             (38.9066 -1.72925e-16 -9.41485e-16)             (39.0553 1.13052e-15 -5.24046e-17)             (39.459 -3.91426e-15 -1.55963e-16)
            6             (39.9579 2.71299e-16 2.33434e-15)             (38.9283 3.41328e-15 3.60955e-15)             (38.9025 5.8084e-16 -8.12725e-17)             (39.0094 1.2657e-15 8.97671e-16)             (39.5801 5.09274e-16 3.66665e-15)
            7             (40.0993 2.16914e-16 3.64014e-15)             (38.9474 -1.29699e-15 -1.30554e-15)             (38.8713 1.97792e-16 7.56031e-16)             (38.9035 -1.2313e-15 3.52765e-17)             (39.7102 1.54473e-15 4.31768e-16)
            8             (40.2576 -2.34508e-17 -4.35517e-15)             (38.9704 -4.46352e-16 6.54409e-17)             (38.8007 3.10505e-16 -2.18423e-16)             (38.7402 -1.03967e-15 -9.63185e-16)             (39.8468 -3.25277e-15 -1.99937e-15)
            9             (40.4207 1.82918e-16 -4.49379e-15)             (38.9976 1.57698e-15 1.62156e-15)             (38.69 -7.26542e-17 -9.10099e-16)             (38.5153 9.6788e-16 -3.51902e-16)             (39.9866 1.64567e-15 -1.85641e-15)
           10             (40.5923 -1.19905e-16 5.0536e-16)             (39.0289 -1.38104e-15 -2.02809e-15)             (38.54 1.05542e-16 -4.12549e-16)             (38.2293 3.45067e-16 2.68283e-16)             (40.1317 -8.40718e-16 -5.50681e-16)
           11             (40.7652 -3.06464e-16 7.67848e-16)             (39.0607 2.27971e-16 1.77719e-15)             (38.3467 4.72536e-16 2.14201e-17)             (37.8847 2.55237e-16 1.93044e-16)             (40.2862 -1.36166e-15 8.62565e-16)
           12             (40.9256 1.57936e-16 -1.43162e-15)             (39.0943 3.21805e-16 3.71642e-16)             (38.1165 9.42508e-17 4.30371e-16)             (37.4855 -3.58868e-16 -5.04182e-16)             (40.4437 1.10856e-15 3.5428e-16)
           13             (41.0737 3.27168e-16 1.18993e-15)             (39.1297 -1.07147e-15 -6.90209e-16)             (37.8518 1.67312e-16 -4.95707e-16)             (37.0394 -1.16412e-16 -6.47732e-16)             (40.6057 -8.22355e-16 -1.58508e-15)
           14             (41.2514 -5.32644e-16 -2.28851e-15)             (39.1672 6.40312e-16 9.17193e-16)             (37.5553 5.7884e-17 -7.40197e-16)             (36.5542 -1.02261e-16 1.37961e-16)             (40.7729 -6.18927e-16 -1.46723e-15)
           15             (41.4331 -6.31384e-16 -2.42024e-15)             (39.2066 -2.07102e-16 -2.42757e-16)             (37.2303 1.31989e-16 1.05633e-16)             (36.0369 1.70828e-16 2.57643e-16)             (40.9445 5.20544e-16 3.95415e-16)
           16             (41.6248 6.48549e-16 3.61445e-15)             (39.2477 -4.94274e-16 3.4401e-16)             (36.8805 2.64223e-16 1.04476e-16)             (35.4944 7.78051e-16 -1.17237e-16)             (41.1195 -8.14478e-16 -1.44941e-17)
           17             (41.827 -5.98776e-16 -7.54631e-16)             (39.2905 5.76626e-16 4.72198e-16)             (36.5094 1.17458e-16 -3.63529e-16)             (34.9328 -6.18592e-16 -1.49539e-16)             (41.2966 -3.91417e-16 -1.78618e-16)
           18             (42.028 -5.76353e-16 -3.3511e-15)             (39.3346 -3.83942e-16 -6.58546e-16)             (36.1207 1.00905e-16 -2.86107e-16)             (34.3575 -2.06904e-16 -1.47155e-16)             (41.4745 4.58626e-16 -2.38543e-16)
           19             (42.2064 8.99945e-16 1.50292e-15)             (39.3804 -2.41276e-18 5.67909e-16)             (35.7182 1.289e-16 -8.12033e-17)             (33.7739 7.94925e-16 -1.71504e-16)             (41.6532 -1.1074e-15 -9.33279e-16)
           20             (42.3905 2.21954e-16 9.12622e-16)             (39.4276 2.33685e-16 9.35344e-17)             (35.3048 1.64494e-16 -9.88173e-17)             (33.1861 -2.51846e-16 1.31459e-16)             (41.8307 -4.96063e-17 7.48873e-16)
           21             (42.597 -9.02402e-16 -1.9968e-15)             (39.4764 -3.66531e-16 -2.69431e-16)             (34.8837 1.18482e-16 -3.28318e-16)             (32.598 -2.50355e-16 -4.56636e-17)             (42.0046 1.01473e-16 3.75956e-16)
           22             (42.8113 3.17318e-16 1.04239e-15)             (39.5259 -1.28254e-16 8.84015e-16)             (34.4613 9.95649e-17 -2.07324e-16)             (32.0135 4.462e-16 -2.14755e-16)             (42.1729 -1.89883e-16 -8.36994e-16)
           23             (43.0311 1.73015e-16 1.67084e-15)             (39.5758 2.20387e-16 -1.82791e-16)             (34.0352 8.29328e-17 -1.80896e-16)             (31.4328 -2.24251e-16 1.7805e-16)             (42.3304 -1.90166e-16 1.67477e-16)
           24             (43.2589 -4.6887e-16 2.03546e-16)             (39.6267 -7.78066e-17 1.17999e-16)             (33.6079 1.0698e-16 -1.93312e-16)             (30.8586 -1.29783e-16 2.40146e-16)             (42.4852 -2.2489e-16 3.90455e-16)
           25             (43.4832 3.5554e-16 -6.2901e-16)             (39.6778 -2.59279e-16 3.62339e-16)             (33.1806 1.2918e-16 -2.51945e-16)             (30.292 3.42651e-16 -1.2301e-16)             (42.6358 2.25718e-17 -8.68918e-16)
           26             (43.6826 3.61671e-16 -5.33574e-16)             (39.7301 2.00859e-16 -4.25142e-16)             (32.7557 9.49478e-17 -1.18647e-16)             (29.7356 -1.06985e-16 -1.8192e-16)             (42.7866 -2.90025e-16 -7.09266e-16)
           27             (43.884 -2.59452e-16 -8.45427e-16)             (39.7834 -8.22205e-17 6.7658e-16)             (32.3341 6.12719e-17 -2.01941e-16)             (29.1905 -1.71432e-16 5.70658e-17)             (42.9367 -8.11558e-17 -1.39784e-16)
           28             (44.0997 -1.31338e-16 -9.18019e-16)             (39.8374 -2.41023e-16 2.37343e-17)             (31.9168 1.19398e-16 -1.91361e-16)             (28.6574 2.23968e-16 1.87693e-16)             (43.0843 -6.87086e-17 -2.66836e-16)
           29             (44.3135 7.17565e-16 1.17214e-15)             (39.892 1.37725e-16 -2.47276e-16)             (31.5045 8.74368e-17 -1.82672e-16)             (28.1371 1.8656e-16 2.21851e-17)             (43.2277 -3.40181e-16 -3.44621e-16)
           30             (44.5331 9.5541e-18 3.87853e-16)             (39.9472 2.16288e-18 5.64203e-16)             (31.0979 6.62628e-17 -1.0575e-16)             (27.6299 -1.93021e-16 3.35103e-17)             (43.365 -2.7365e-16 -4.5996e-16)
           31             (44.7552 -2.74024e-16 -1.06598e-15)             (40.0028 3.1454e-17 -2.30698e-16)             (30.6977 7.34056e-17 -1.84554e-16)             (27.1364 -7.95254e-17 8.38759e-17)             (43.4956 -1.42742e-16 1.2334e-17)
           32             (44.9774 -3.29754e-18 -1.30912e-15)             (40.0589 -1.02709e-16 3.17746e-16)             (30.3042 8.12548e-17 -2.57462e-16)             (26.657 1.52126e-16 -3.72603e-17)             (43.6191 -7.09454e-17 -5.77469e-17)
           33             (45.2031 6.17349e-16 6.13341e-16)             (40.1153 1.28133e-16 2.42863e-16)             (29.9179 2.75118e-17 -1.67409e-16)             (26.1919 2.84655e-16 3.29447e-17)             (43.735 -5.46542e-16 9.14286e-17)
           34             (45.432 3.49353e-16 8.10607e-16)             (40.1721 -1.69175e-17 -3.18278e-17)             (29.539 6.47201e-17 -1.19625e-16)             (25.7414 -1.88336e-16 1.58316e-16)             (43.8432 1.44677e-16 2.26778e-16)
           35             (45.6631 -1.10859e-15 -6.79859e-16)             (40.2292 -3.52507e-18 2.08326e-16)             (29.1676 1.5002e-16 -6.91048e-17)             (25.3056 -4.47278e-17 1.70791e-16)             (43.9434 1.86637e-16 1.12997e-16)
           36             (45.8953 7.22136e-16 3.27386e-17)             (40.2866 9.30334e-17 3.59562e-16)             (28.8041 7.47118e-19 -2.76173e-16)             (24.8848 2.16601e-16 -1.55543e-16)             (44.0352 -5.5384e-16 -1.61348e-16)
           37             (46.1278 1.66636e-16 -1.6879e-16)             (40.3444 1.12035e-17 1.67536e-16)             (28.4485 1.91098e-17 -2.73327e-16)             (24.4793 -9.60599e-17 -6.01912e-17)             (44.1177 -5.44969e-17 -8.26203e-16)
           38             (46.3599 -6.1923e-16 -6.00822e-17)             (40.4026 1.50206e-17 1.74243e-16)             (28.1009 8.70663e-17 -8.27858e-17)             (24.0894 8.38062e-17 1.4739e-16)             (44.1901 -2.77222e-17 -3.26062e-16)
           39             (46.5911 -2.96596e-17 -8.53036e-16)             (40.4613 1.08697e-16 -2.91963e-18)             (27.7613 1.03902e-16 -1.0469e-16)             (23.7156 4.43851e-17 1.22318e-16)             (44.2511 -4.76327e-16 -2.43861e-16)
           40             (46.8208 1.11608e-16 -4.31582e-16)             (40.5205 9.40978e-18 5.98881e-16)             (27.4299 -3.77332e-17 -2.23907e-16)             (23.3582 8.83848e-17 -1.24752e-16)             (44.2995 3.7249e-16 -9.36857e-16)
           41             (47.0485 1.95675e-17 -4.15767e-16)             (40.5803 -1.1894e-16 1.18376e-16)             (27.1065 1.68258e-17 -2.06209e-16)             (23.0178 8.89804e-18 -1.75305e-16)             (44.3353 -6.45173e-16 -2.06737e-16)
           42             (47.2737 -3.15146e-16 -1.33433e-15)             (40.6407 -4.01011e-17 2.11183e-16)             (26.7912 5.69506e-17 -1.00567e-16)             (22.6951 -9.77846e-17 1.35004e-17)             (44.3611 -2.48292e-16 -7.45406e-16)
           43             (47.4955 1.74257e-16 -2.86592e-16)             (40.7017 3.11966e-17 3.70209e-16)             (26.4839 1.17483e-17 -1.18111e-16)             (22.3909 9.33342e-17 1.57401e-16)             (44.3792 -6.91191e-18 -6.17921e-16)
           44             (47.7132 -1.36547e-16 -8.64173e-16)             (40.7635 2.53456e-16 -6.86339e-17)             (26.1847 8.24154e-17 -5.94233e-17)             (22.1061 -9.09842e-17 -2.35195e-17)             (44.3903 -2.40069e-16 -6.84778e-16)
           45             (47.9251 -6.09107e-17 -7.58757e-16)             (40.8262 -3.18115e-18 2.78589e-16)             (25.8934 -7.96647e-19 -1.49515e-16)             (21.842 2.8542e-16 -1.87263e-16)             (44.3953 -8.05236e-17 -1.04444e-15)
           46             (48.1332 -3.6324e-16 -1.42616e-15)             (40.8897 1.54028e-16 -1.51902e-16)             (25.61 -3.09049e-18 -1.64951e-16)             (21.5996 -1.06509e-16 -1.13662e-16)             (44.3884 1.09801e-16 -5.76611e-16)
           47             (48.3384 2.73505e-16 2.20856e-16)             (40.9543 2.12683e-17 5.13816e-16)             (25.3345 8.20695e-17 -1.22659e-16)             (21.3803 1.68337e-17 8.81033e-18)             (44.3717 -3.33327e-16 7.19687e-16)
           48             (48.5372 2.21523e-16 1.41209e-15)             (41.0201 -1.77614e-16 3.72352e-16)             (25.0668 8.7804e-17 -2.19985e-17)             (21.1853 -6.55967e-17 2.50279e-16)             (44.3448 -2.82398e-16 8.06886e-16)
           49             (48.7265 3.14862e-17 9.40885e-16)             (41.0871 1.71569e-16 4.62031e-17)             (24.8068 4.27982e-17 -1.03221e-16)             (21.0158 2.05902e-17 3.50077e-16)             (44.3083 -1.76966e-16 2.86051e-16)
           50             (48.9062 -5.47312e-17 -1.78823e-15)             (41.1555 -1.81414e-16 8.48084e-16)             (24.5543 -9.68236e-18 -1.34498e-16)             (20.8728 -6.19731e-17 -3.75718e-18)             (44.2631 -2.33023e-17 -5.69338e-16)
           51             (49.0707 -2.88304e-17 -8.99048e-16)             (41.2269 5.84918e-17 -1.64582e-16)             (24.3035 1.52257e-18 -1.79736e-16)             (20.7571 1.75911e-16 -2.53298e-16)             (44.2112 -1.26691e-16 -7.4686e-16)
           52             (49.2222 -3.36452e-16 -1.27577e-15)             (41.2999 3.51257e-17 -2.17525e-16)             (24.0607 3.43157e-17 -1.53193e-16)             (20.6694 -6.64125e-17 -1.53273e-16)             (44.1515 -2.1259e-16 -4.43391e-16)
           53             (49.3615 4.50442e-16 2.67997e-16)             (41.3744 -7.26867e-17 1.01494e-15)             (23.8256 5.4625e-18 -1.03108e-16)             (20.6091 8.16496e-17 5.60914e-17)             (44.0851 -1.9495e-16 1.10274e-16)
           54             (49.4857 -3.71532e-16 -8.473e-16)             (41.4504 2.23844e-16 -1.68707e-16)             (23.5982 9.47019e-17 -7.73065e-17)             (20.5749 6.75514e-18 1.93563e-16)             (44.0131 -6.37914e-17 -2.36166e-16)
           55             (49.593 2.11131e-16 7.5039e-16)             (41.528 4.11652e-17 -2.0875e-16)             (23.3781 3.80051e-17 -1.12931e-16)             (20.5645 4.45698e-17 1.27633e-16)             (43.9407 -2.57366e-16 -1.54438e-16)
           56             (49.6827 4.76318e-16 8.61552e-16)             (41.6073 -2.07215e-16 4.83296e-16)             (23.1652 -4.17865e-17 -1.7981e-16)             (20.5749 2.36253e-18 -1.09333e-17)             (43.8791 -1.58081e-16 2.75988e-16)
           57             (49.7549 3.07189e-17 -1.40518e-16)             (41.6881 1.77154e-17 1.1585e-16)             (22.9593 5.35237e-17 -1.84618e-16)             (20.6025 -1.07379e-16 -4.59904e-17)             (43.8302 -7.77656e-17 -2.60763e-16)
           58             (49.8108 -3.67767e-16 1.11453e-15)             (41.7707 9.11121e-19 4.31982e-16)             (22.7604 8.53973e-18 -1.94443e-17)             (20.6435 2.21609e-16 1.51118e-16)             (43.79 -3.57853e-16 -9.62651e-17)
           59             (49.8521 -6.51245e-17 1.56863e-15)             (41.8549 1.38428e-16 1.19104e-16)             (22.5682 -2.78484e-18 -1.08224e-16)             (20.6945 -1.21538e-16 3.26274e-16)             (43.7527 9.32064e-17 5.53681e-17)
           60             (49.8807 1.13518e-16 8.23215e-17)             (41.9407 -2.67879e-17 2.64354e-17)             (22.3827 8.33247e-17 -2.54453e-16)             (20.7524 8.60113e-18 1.85597e-16)             (43.7161 -1.3052e-16 -1.49399e-16)
           61             (49.8987 3.09464e-17 -1.22071e-16)             (42.0282 1.3653e-19 1.6662e-16)             (22.2036 -2.74553e-18 -6.25034e-17)             (20.8147 1.45793e-16 5.13908e-18)             (43.6803 -3.91415e-16 -6.95206e-16)
           62             (49.9079 7.68853e-17 7.15977e-16)             (42.1175 -1.44007e-17 1.83203e-16)             (22.0309 7.22203e-17 -3.00869e-17)             (20.8796 -1.3654e-16 4.67002e-17)             (43.6446 -8.81213e-19 -5.47582e-16)
           63             (49.9094 -1.17094e-16 -6.9071e-16)             (42.2083 9.91309e-17 4.34221e-16)             (21.8644 2.71162e-17 -9.96097e-17)             (20.9456 -1.17845e-16 1.49908e-16)             (43.6091 1.43737e-16 1.51898e-16)
           64             (49.9046 -1.78943e-16 -1.66599e-15)             (42.3009 -1.78033e-16 1.07207e-16)             (21.704 4.32657e-17 -1.40042e-16)             (21.0119 1.45647e-16 3.55778e-17)             (43.5743 8.61317e-17 -3.87301e-16)
           65             (49.8946 -4.0723e-18 2.05425e-15)             (42.3951 8.05585e-17 1.60184e-16)             (21.5497 -3.0502e-17 -2.28793e-16)             (21.0783 1.41996e-16 2.04742e-16)             (43.5402 1.42413e-17 -2.33583e-17)
           66             (49.8801 -1.56544e-16 1.47064e-16)             (42.4908 1.64893e-16 5.26851e-16)             (21.4014 7.63954e-17 1.26927e-16)             (21.144 -3.83697e-16 2.58414e-16)             (43.507 4.56595e-17 4.82802e-16)
           67             (49.861 1.20868e-16 4.46275e-16)             (42.5882 6.19999e-17 -1.43174e-16)             (21.259 9.10599e-17 -3.84972e-17)             (21.2091 9.38605e-17 9.54664e-17)             (43.4749 -3.12114e-16 2.0543e-16)
           68             (49.8374 7.99211e-16 2.66384e-15)             (42.6872 -2.13849e-16 7.63523e-17)             (21.1225 -7.78631e-17 -3.08115e-16)             (21.2739 3.45481e-16 2.11905e-16)             (43.444 -4.33333e-16 -1.82497e-16)
           69             (49.8095 2.78695e-17 1.30991e-15)             (42.7876 7.66222e-17 1.80291e-16)             (20.9918 -3.22705e-17 -1.57389e-16)             (21.3389 -2.71081e-16 3.61539e-16)             (43.4145 -2.08851e-16 1.16293e-16)
           70             (49.7774 -1.5531e-16 3.38385e-16)             (42.8896 1.30533e-16 -1.27081e-18)             (20.8669 1.03003e-16 4.68543e-17)             (21.4046 -1.47251e-16 3.09544e-16)             (43.3861 -5.19712e-17 3.77897e-16)
           71             (49.7413 -1.16483e-16 -2.60646e-15)             (42.9931 -5.49662e-17 5.40634e-16)             (20.7477 6.38849e-18 -8.91866e-17)             (21.4711 2.02865e-16 -2.12104e-16)             (43.3591 -1.51381e-16 -1.09322e-15)
           72             (49.7016 -1.41223e-17 -1.80865e-15)             (43.098 -3.73938e-17 -4.65418e-16)             (20.6343 -4.7065e-18 -2.92131e-16)             (21.5387 2.6477e-16 -5.32795e-16)             (43.3333 -1.52431e-16 -1.57223e-15)
           73             (49.6586 -1.91336e-16 2.53798e-17)             (43.2044 2.33805e-16 9.6622e-17)             (20.5265 -3.75071e-17 1.74816e-17)             (21.6068 -3.10809e-16 -9.19679e-17)             (43.3088 1.03752e-17 -3.32174e-16)
           74             (49.6125 -6.76149e-17 9.48222e-16)             (43.3122 -8.73025e-17 7.6577e-16)             (20.4245 1.48626e-16 4.85002e-17)             (21.6756 -1.14111e-16 3.93803e-16)             (43.2855 -2.56325e-16 7.48526e-16)
           75             (49.5637 2.46064e-16 1.54316e-15)             (43.4214 -1.33757e-16 1.32375e-16)             (20.3281 -7.03854e-17 -6.66815e-17)             (21.7454 2.34989e-16 3.93105e-16)             (43.2634 -3.33546e-16 -4.22157e-16)
           76             (49.5125 1.73756e-16 -2.0502e-16)             (43.532 -8.74604e-17 8.58968e-17)             (20.2375 -1.0015e-17 -1.78418e-16)             (21.8163 -2.18138e-16 2.67372e-17)             (43.2424 -6.88256e-17 -5.18246e-16)
           77             (49.4592 -1.03011e-16 -3.766e-16)             (43.6438 1.69247e-16 2.60782e-16)             (20.1525 4.406e-17 9.93894e-18)             (21.8883 1.66459e-16 -2.08306e-16)             (43.2224 -1.88005e-16 -2.14992e-16)
           78             (49.404 -7.68424e-17 4.15649e-16)             (43.757 4.76654e-17 1.61894e-16)             (20.0733 3.59688e-17 -4.81448e-17)             (21.9615 -2.60545e-17 1.40151e-16)             (43.2034 4.73647e-17 2.52678e-16)
           79             (49.3472 1.66561e-16 2.72082e-16)             (43.8714 9.68758e-17 -8.43083e-17)             (19.9998 1.23665e-17 -1.11685e-16)             (22.0359 -4.1967e-16 3.71347e-16)             (43.1853 1.74128e-16 -3.88604e-16)
           80             (49.289 2.06417e-16 1.28921e-15)             (43.987 4.39786e-17 1.0588e-16)             (19.9319 -1.3698e-17 -1.84087e-16)             (22.1113 6.37063e-16 1.71244e-16)             (43.168 -4.65617e-16 6.10364e-17)
           81             (49.2295 -2.22176e-16 -4.12656e-16)             (44.1037 1.93413e-16 6.86271e-16)             (19.8698 5.81759e-17 6.59575e-17)             (22.1876 -2.91871e-16 -4.35469e-19)             (43.1515 -4.11395e-16 8.90589e-17)
           82             (49.169 -7.20449e-17 -6.76752e-16)             (44.2215 2.02992e-16 1.61179e-16)             (19.8133 6.63718e-17 -5.67352e-17)             (22.2645 -1.28741e-16 -3.85576e-17)             (43.1358 -2.56451e-16 -7.01274e-17)
           83             (49.1077 4.48435e-16 9.90648e-16)             (44.3404 1.00854e-16 1.77568e-16)             (19.7624 -1.08464e-16 -2.17748e-16)             (22.3419 3.53675e-16 1.45977e-16)             (43.1206 -3.61834e-17 1.76774e-16)
           84             (49.0457 1.20187e-16 1.85154e-15)             (44.4603 9.61531e-17 7.03867e-17)             (19.7172 9.25223e-17 4.24427e-17)             (22.42 -4.1882e-16 4.79684e-16)             (43.1061 -1.71348e-16 1.40683e-16)
           85             (48.983 7.32432e-17 -2.69237e-16)             (44.5811 2.13585e-16 3.31831e-16)             (19.6775 3.96438e-17 6.72853e-17)             (22.4986 1.29796e-17 3.25751e-16)             (43.0921 -2.13119e-17 -7.23635e-17)
           86             (48.92 -5.63901e-17 -1.68908e-15)             (44.7027 -3.23583e-17 2.56166e-16)             (19.6433 7.60011e-18 -1.85625e-16)             (22.5778 1.481e-16 -1.86286e-16)             (43.0786 1.05826e-16 -5.79871e-16)
           87             (48.8566 -1.74905e-16 2.06138e-16)             (44.8251 -1.90891e-16 3.85109e-16)             (19.6145 -1.29171e-17 -1.465e-16)             (22.6574 6.43763e-17 -2.67423e-16)             (43.0656 -3.26311e-17 -1.12493e-15)
           88             (48.793 -5.32756e-17 -1.49843e-16)             (44.9481 1.34598e-16 2.75579e-16)             (19.591 2.85812e-17 6.50577e-17)             (22.7374 -3.06171e-16 -2.40991e-17)             (43.053 -1.47157e-17 -1.47537e-15)
           89             (48.7292 4.83408e-17 -1.488e-15)             (45.0717 -7.64608e-17 3.14443e-16)             (19.5727 4.38345e-17 -1.17182e-16)             (22.8176 1.45497e-16 1.34896e-16)             (43.0407 9.72932e-17 -6.36249e-16)
           90             (48.6654 -4.42457e-17 -4.93937e-16)             (45.1958 -1.60412e-16 -1.39322e-16)             (19.5594 -1.07936e-16 -2.53302e-16)             (22.898 3.12692e-16 2.07695e-17)             (43.0289 -3.04445e-17 2.87866e-16)
           91             (48.6016 1.90092e-16 1.29987e-15)             (45.3202 -1.32605e-16 3.05741e-16)             (19.5512 9.69392e-17 1.37385e-16)             (22.9785 -2.55307e-16 7.67571e-17)             (43.0173 -3.60725e-18 6.75133e-16)
           92             (48.538 3.39273e-17 9.41296e-16)             (45.4449 3.19803e-17 1.12243e-16)             (19.5477 4.03524e-17 -2.25374e-16)             (23.059 -1.4124e-16 3.23285e-16)             (43.0061 -1.28437e-16 -6.08604e-16)
           93             (48.4746 -2.60126e-16 -2.45913e-16)             (45.5697 8.79265e-18 8.05987e-17)             (19.5489 -1.22086e-16 -1.04386e-16)             (23.1392 3.41196e-16 1.68877e-16)             (42.9951 -2.3282e-16 -7.23338e-16)
           94             (48.4114 3.5706e-16 7.29746e-16)             (45.6944 5.88587e-17 6.89236e-16)             (19.5545 1.63745e-16 6.80501e-17)             (23.219 3.11201e-17 -6.12507e-17)             (42.9844 -2.26321e-16 6.06085e-16)
           95             (48.349 3.46617e-16 1.0313e-15)             (45.8189 5.41448e-17 1.8723e-16)             (19.5644 -4.10755e-17 2.55523e-17)             (23.2985 -3.43669e-16 1.87363e-16)             (42.9739 5.73115e-17 7.83347e-16)
           96             (48.2873 7.65669e-17 -1.59233e-16)             (45.943 2.60363e-17 -4.04962e-17)             (19.5783 5.22768e-19 -1.60663e-16)             (23.3777 1.38049e-16 3.08519e-16)             (42.9636 -3.38305e-16 -7.274e-16)
           97             (48.2262 -4.49155e-16 -2.407e-15)             (46.0667 1.99017e-16 2.20113e-16)             (19.5961 1.12316e-17 -1.04533e-16)             (23.4566 1.15594e-16 -2.77317e-16)             (42.9536 -1.78654e-16 -1.14634e-15)
           98             (48.1656 -2.34119e-16 -1.56984e-15)             (46.1896 -2.92146e-17 2.63595e-16)             (19.6174 -4.12272e-17 8.04316e-17)             (23.5351 1.51923e-16 -6.48566e-16)             (42.9437 6.68868e-17 -1.1368e-15)
           99             (48.1057 2.33817e-16 1.4238e-15)             (46.3117 8.54811e-17 -2.30931e-16)             (19.642 2.59411e-17 -2.72134e-16)             (23.6132 -4.59237e-17 7.35977e-17)             (42.9341 -2.01167e-16 -2.14654e-16)
          100             (48.0463 -1.03742e-16 1.51801e-15)             (46.4327 1.02652e-16 3.50384e-17)             (19.6697 3.38124e-17 -1.13571e-16)             (23.691 -4.72166e-16 6.52088e-16)             (42.9247 -3.64714e-18 3.26975e-16)
          101             (47.9874 -2.22508e-17 1.71869e-16)             (46.5525 -1.31909e-16 3.69558e-16)             (19.7002 2.06414e-17 6.04792e-18)             (23.7683 3.70086e-16 3.26207e-16)             (42.9156 -1.37725e-16 6.60612e-17)
          102             (47.9291 8.2377e-17 -2.86456e-16)             (46.6709 -2.37224e-16 2.04973e-16)             (19.7332 4.56877e-17 -5.41819e-17)             (23.8451 1.71905e-16 -1.88309e-16)             (42.9066 -2.14792e-16 2.2629e-16)
          103             (47.8714 9.40264e-17 1.41273e-15)             (46.7878 3.87559e-17 1.32019e-16)             (19.7684 -5.71941e-17 -1.63419e-16)             (23.9214 -2.50426e-16 2.01824e-16)             (42.8979 -8.20141e-17 4.75181e-16)
          104             (47.8143 4.43602e-17 -1.52519e-15)             (46.9031 3.21908e-17 2.02753e-16)             (19.8056 1.18646e-16 -8.89845e-17)             (23.9971 -4.56437e-17 1.74121e-16)             (42.8894 -1.54795e-16 -6.2905e-16)
          105             (47.7577 -1.09133e-16 -2.0319e-15)             (47.0166 -1.91987e-17 -3.32501e-17)             (19.8445 -1.22011e-16 -9.57941e-17)             (24.0723 4.76703e-16 -1.20605e-16)             (42.8812 -1.53876e-16 -1.76009e-15)
          106             (47.7016 -1.43818e-16 -5.27456e-17)             (47.1282 -2.67615e-16 4.71278e-16)             (19.8849 3.14605e-17 -1.66047e-16)             (24.1469 -2.14752e-16 -2.49161e-16)             (42.8731 -1.4877e-16 -8.78573e-16)
          107             (47.6461 3.22284e-16 1.79646e-15)             (47.2378 2.28433e-16 1.02574e-16)             (19.9265 5.10482e-17 -3.0246e-17)             (24.2209 -1.00832e-16 2.80859e-16)             (42.8653 7.75075e-17 6.51977e-16)
          108             (47.5912 -2.32359e-16 -1.41409e-15)             (47.3455 1.02186e-16 3.60393e-16)             (19.9691 -9.09295e-18 1.73538e-17)             (24.2942 8.56293e-17 5.05933e-17)             (42.8576 -6.02871e-17 -9.01441e-16)
          109             (47.5375 -5.52445e-17 1.85951e-15)             (47.4511 -2.18664e-16 -3.463e-17)             (20.0121 -4.1126e-17 -3.48474e-16)             (24.3669 3.31506e-16 8.0224e-17)             (42.8502 -3.63645e-16 -5.10144e-16)
          110             (47.4843 4.93525e-16 2.51304e-15)             (47.555 -6.87386e-17 -1.04428e-17)             (20.0557 1.62057e-17 -1.53606e-16)             (24.4388 -3.4605e-16 3.58484e-16)             (42.8429 -1.2883e-16 1.12062e-17)
          111             (47.4319 2.1411e-16 3.50515e-16)             (47.6575 1.57634e-16 7.25833e-16)             (20.0997 6.78156e-17 1.92577e-16)             (24.5101 -3.24648e-16 5.08353e-16)             (42.8359 -1.49461e-16 2.91008e-16)
          112             (47.3801 -8.28548e-17 9.3306e-16)             (47.7585 -8.84663e-17 -2.2604e-16)             (20.1439 2.30496e-17 -1.30206e-16)             (24.5806 7.82984e-16 3.0081e-16)             (42.829 -2.92899e-16 -1.11003e-16)
          113             (47.3291 3.50248e-17 -5.60343e-16)             (47.8581 -8.75697e-17 5.76608e-17)             (20.1881 -2.35045e-17 -3.01216e-16)             (24.6503 -4.67193e-16 -1.02441e-16)             (42.8223 2.17582e-16 -1.05896e-15)
          114             (47.2788 -2.92558e-16 -2.6101e-15)             (47.956 1.95396e-16 4.85242e-16)             (20.2322 2.57451e-17 7.55155e-18)             (24.7193 -3.22352e-16 -2.67759e-16)             (42.8158 -2.1551e-16 -8.3556e-16)
          115             (47.2291 4.44102e-16 5.6893e-16)             (48.0525 -1.04e-16 -5.36515e-17)             (20.2761 4.07301e-18 -9.80853e-17)             (24.7875 7.74324e-16 -9.42113e-17)             (42.8095 -3.04087e-16 -3.92548e-16)
          116             (47.1801 -2.01785e-16 4.68104e-16)             (48.1473 1.58537e-17 5.20809e-16)             (20.3197 7.9262e-18 -4.84291e-17)             (24.8549 -4.3223e-16 2.29134e-16)             (42.8033 6.83782e-17 -1.90526e-16)
          117             (47.1317 -6.56262e-16 -1.43642e-15)             (48.2405 2.55054e-16 2.39656e-16)             (20.3629 9.13338e-17 -8.16142e-17)             (24.9215 -2.54932e-16 1.49104e-16)             (42.7974 -1.22809e-16 -4.2026e-16)
          118             (47.084 1.13794e-16 -1.49709e-15)             (48.332 5.21178e-17 -1.95195e-16)             (20.4057 -8.07108e-17 -1.46664e-16)             (24.9872 5.49727e-16 -3.53789e-16)             (42.7916 -3.91609e-16 -2.61059e-16)
          119             (47.037 2.92904e-16 2.03094e-15)             (48.4219 -3.60794e-18 6.85036e-16)             (20.448 2.76792e-17 1.01685e-17)             (25.0522 -1.29136e-16 -7.35483e-17)             (42.786 -2.2574e-16 -1.61715e-16)
          120             (46.9906 3.11198e-16 2.65515e-15)             (48.5101 2.54326e-18 3.45183e-16)             (20.4898 7.60524e-17 7.97654e-17)             (25.1164 -2.79508e-16 5.01606e-16)             (42.7806 -1.80688e-16 2.35001e-17)