/*--------------------------------*- C++ -*----------------------------------*\
  =========                 |
  \\      /  F ield         | OpenFOAM: The Open Source CFD Toolbox
   \\    /   O peration     | Website:  https://openfoam.org
    \\  /    A nd           | Version:  7
     \\/     M anipulation  |
\*---------------------------------------------------------------------------*/
FoamFile
{
    version     2.0;
    format      ascii;
    class       volScalarField;
    location    "1540";
    object      k;
}
// * * * * * * * * * * * * * * * * * * * * * * * * * * * * * * * * * * * * * //

dimensions      [0 2 -2 0 0 0 0];

internalField   nonuniform List<scalar> 
8748
(
30.0477
31.4007
33.7357
36.7451
40.1787
43.8381
47.572
51.2694
54.8524
58.2689
61.486
64.4853
67.258
69.7976
72.0903
74.1296
75.9168
77.4582
78.7608
79.83
80.6685
81.2753
81.6452
81.7681
81.6289
81.2065
80.4729
79.3929
77.9231
76.0118
73.6003
70.6251
67.0232
62.7413
57.7494
52.0588
45.7366
38.8863
31.7423
24.6967
18.2235
12.7362
8.44861
5.33779
3.21802
1.8479
1.0038
0.508948
0.235425
0.0956008
0.0318109
0.0075657
0.000942676
2.82744e-05
30.0622
31.4117
33.7408
36.7433
40.1697
43.8222
47.5499
51.2418
54.8201
58.2326
61.4464
64.4428
67.213
69.7508
72.0423
74.0807
75.8675
77.4085
78.7109
79.78
80.6184
81.2252
81.5951
81.7181
81.5791
81.1568
80.4234
79.3437
77.8741
75.9632
73.5521
70.5775
66.9765
62.6956
57.7052
52.0165
45.6969
38.8499
31.71
24.6695
18.2019
12.7202
8.43754
5.33061
3.21362
1.84536
1.00241
0.508242
0.235099
0.0954681
0.0317667
0.0075552
0.000941368
2.82352e-05
30.0912
31.4338
33.7517
36.7408
40.1533
43.7926
47.5082
51.1896
54.7588
58.1636
61.3709
64.3618
67.1272
69.6615
71.9505
73.9873
75.773
77.3133
78.6152
79.684
80.5223
81.129
81.4989
81.6219
81.483
81.061
80.328
79.2486
77.7795
75.8692
73.459
70.4856
66.886
62.6072
57.6196
51.9347
45.6201
38.7794
31.6476
24.6168
18.1601
12.6892
8.41611
5.3167
3.2051
1.84043
0.999724
0.506876
0.234466
0.0952113
0.0316812
0.00753487
0.000938835
2.81592e-05
30.1352
31.4679
33.7695
36.7391
40.1315
43.7515
47.4495
51.1155
54.6716
58.0652
61.2631
64.2458
67.0043
69.5333
71.8186
73.853
75.637
77.1763
78.4774
79.5457
80.3837
80.9903
81.3601
81.4833
81.3446
80.9229
80.1903
79.1114
77.6431
75.7337
73.3247
70.3528
66.7554
62.4796
57.496
51.8166
45.5093
38.6777
31.5575
24.5408
18.0998
12.6445
8.38522
5.29666
3.19283
1.83332
0.995849
0.504908
0.233555
0.0948411
0.0315581
0.00750557
0.000935185
2.80498e-05
30.1956
31.5154
33.7959
36.7403
40.1064
43.7013
47.3765
51.0225
54.5614
57.9405
61.126
64.0983
66.8477
69.3697
71.6502
73.6812
75.463
77.0008
78.3009
79.3686
80.2062
80.8126
81.1824
81.3057
81.1672
80.7459
80.0138
78.9357
77.4682
75.56
73.1526
70.1828
66.5881
62.316
57.3376
51.6653
45.3673
38.5474
31.4421
24.4435
18.0226
12.5874
8.34572
5.27104
3.17715
1.82424
0.990896
0.502391
0.23239
0.0943679
0.0314006
0.00746812
0.000930519
2.79098e-05
30.2739
31.578
33.8328
36.7465
40.0806
43.6447
47.292
50.9133
54.431
57.7922
60.9626
63.9222
66.6609
69.1741
71.4482
73.4749
75.254
76.79
78.089
79.1559
79.993
80.5991
80.9688
81.0923
80.9541
80.5333
79.8018
78.7245
77.2582
75.3514
72.9458
69.9784
66.3871
62.1196
57.1475
51.4836
45.1968
38.391
31.3036
24.3267
17.9301
12.5189
8.29838
5.24034
3.15836
1.81336
0.984963
0.499378
0.230995
0.0938013
0.031212
0.00742327
0.000924931
2.77422e-05
30.3719
31.6578
33.8825
36.7601
40.0565
43.5844
47.1987
50.7909
54.2836
57.6235
60.7761
63.7207
66.4468
68.9493
71.2157
73.2373
75.0131
76.5469
77.8445
78.9105
79.747
80.3529
80.7226
80.8461
80.7083
80.288
79.5573
78.481
77.0159
75.1107
72.7073
69.7427
66.1553
61.893
56.9281
51.2741
45.0003
38.2108
31.144
24.1923
17.8235
12.4401
8.24395
5.20505
3.13676
1.80086
0.978145
0.495914
0.229392
0.0931501
0.0309953
0.00737173
0.000918509
2.75496e-05
30.4916
31.7567
33.9471
36.7835
40.0368
43.5232
47.0995
50.6583
54.1221
57.4375
60.5696
63.4969
66.2083
68.6985
70.9559
72.9714
74.7432
76.2745
77.5705
78.6354
79.4713
80.0767
80.4463
80.57
80.4326
80.0129
79.283
78.2078
76.7441
74.8407
72.4397
69.4783
65.8952
61.6389
56.6821
51.0391
44.78
38.0087
30.9653
24.0418
17.7044
12.3519
8.18311
5.16562
3.11263
1.7869
0.970529
0.492046
0.227601
0.0924226
0.0307533
0.00731416
0.000911336
2.73345e-05
30.6348
31.8767
34.0289
36.8192
40.0242
43.4639
46.9974
50.5183
53.9495
57.2372
60.3459
63.2536
65.9484
68.4244
70.6714
72.6799
74.4472
75.9755
77.2695
78.3332
79.1683
79.7733
80.1428
80.2666
80.1296
79.7104
78.9815
77.9074
76.4453
74.5439
72.1455
69.1877
65.6093
61.3596
56.4118
50.781
44.538
37.7869
30.7691
23.8767
17.5737
12.2554
8.1165
5.12246
3.08623
1.77162
0.962196
0.487813
0.225642
0.0916268
0.0304884
0.00725118
0.000903488
2.70991e-05
30.8031
32.0196
34.1299
36.8694
40.0211
43.409
46.895
50.3738
53.7686
57.0253
60.1079
62.9936
65.6697
68.1297
70.365
72.3655
74.1275
75.6524
76.9441
78.0063
78.8405
79.445
79.8143
79.9382
79.8015
79.3831
78.655
77.5823
76.1218
74.2226
71.827
68.873
65.2999
61.0572
56.1192
50.5017
44.2762
37.5471
30.5571
23.6984
17.4327
12.1513
8.04469
5.07596
3.05779
1.75516
0.953222
0.483255
0.223532
0.0907697
0.0302032
0.00718335
0.000895037
2.68456e-05
30.9979
32.1871
34.252
36.9365
40.03
43.3613
46.7951
50.2275
53.5821
56.8046
59.8583
62.7196
65.375
67.8172
70.0392
72.0306
73.7865
75.3074
76.5965
77.657
78.49
79.0939
79.463
79.587
79.4507
79.0329
78.3059
77.2344
75.7757
73.8789
71.4863
68.5365
64.9689
60.7339
55.8064
50.2031
43.9965
37.2909
30.3308
23.5081
17.2824
12.0404
7.96825
5.02647
3.02753
1.73765
0.943675
0.478406
0.221287
0.089858
0.0298999
0.00711119
0.000886047
2.6576e-05
31.2203
32.3804
34.3968
37.0223
40.0531
43.3232
46.7002
50.082
53.3927
56.5776
59.5996
62.4341
65.0667
67.4893
69.6965
71.6775
73.4264
74.9427
76.2288
77.2872
78.119
78.7221
79.0908
79.2149
79.079
78.6619
77.9359
76.8659
75.409
73.5146
71.1253
68.1798
64.6182
60.3913
55.475
49.8869
43.7003
37.0198
30.0915
23.3071
17.1237
11.9234
7.88765
4.97432
2.99565
1.71921
0.93362
0.4733
0.218923
0.0888979
0.0295803
0.0070352
0.000876579
2.6292e-05
31.471
32.6004
34.5657
37.1285
40.0925
43.2969
46.6128
49.9398
53.2027
56.3468
59.3341
62.1394
64.7473
67.1487
69.3392
71.3083
73.0491
74.5601
75.8427
76.8988
77.7292
78.3314
78.6997
78.8238
78.6883
78.2719
77.5469
76.4784
75.0235
73.1317
70.7458
67.8049
64.2495
60.0313
55.1268
49.5547
43.3893
36.7352
29.8404
23.0965
16.9575
11.801
7.80338
4.91981
2.96234
1.69994
0.923117
0.467965
0.216454
0.0878949
0.0292466
0.00695582
0.000866688
2.59953e-05
31.7503
32.8479
34.7597
37.2567
40.1502
43.2848
46.5353
49.8035
53.0147
56.1145
59.0641
61.8376
64.4188
66.7978
68.9695
70.9249
72.6565
74.1615
75.4401
76.4937
77.3223
77.9236
78.2914
78.4154
78.2802
77.8646
77.1407
76.0737
74.6208
72.7317
70.3494
67.4133
63.8645
59.6553
54.7632
49.208
43.0648
36.4384
29.5788
22.8771
16.7847
11.6738
7.71586
4.86323
2.92778
1.67995
0.91222
0.462431
0.213892
0.0868544
0.0289003
0.00687347
0.000856428
2.56876e-05
32.0582
33.1228
34.9794
37.4081
40.2277
43.2888
46.47
49.6754
52.8314
55.8834
58.7924
61.5318
64.084
66.4387
68.5898
70.53
72.2511
73.749
75.023
76.0736
76.9003
77.5004
77.8676
77.9915
77.8566
77.4416
76.7189
75.6534
74.2026
72.3162
69.9377
67.0066
63.4647
59.2649
54.3858
48.8482
42.7282
36.1308
29.3077
22.6501
16.6059
11.5423
7.62551
4.80485
2.89212
1.65933
0.900981
0.456724
0.211251
0.0857814
0.0285433
0.00678855
0.000845847
2.53702e-05
32.394
33.4252
35.2252
37.5834
40.3264
43.3107
46.419
49.5579
52.6551
55.6561
58.5216
61.2241
63.7453
66.0738
68.2024
70.1256
71.8347
73.3246
74.5932
75.6403
76.4647
77.0634
77.4299
77.5535
77.4188
77.0045
76.2829
75.219
73.7703
71.8868
69.5121
66.5862
63.0514
58.8615
53.9959
48.4766
42.3807
35.8133
29.0283
22.4162
16.422
11.4072
7.5327
4.74491
2.85552
1.63818
0.88945
0.450868
0.20854
0.0846805
0.0281769
0.00670142
0.000834991
2.50446e-05
32.7568
33.7543
35.497
37.7833
40.4475
43.3521
46.3843
49.4532
52.488
55.4347
58.2536
60.9166
63.4045
65.7049
67.8094
69.7137
71.4093
72.8898
74.1523
75.1952
76.017
76.614
76.9796
77.1029
76.9684
76.5547
75.8341
74.7718
73.3253
71.4448
69.074
66.1535
62.6261
58.4464
53.5948
48.0944
42.0235
35.4872
28.7414
22.1763
16.2335
11.2689
7.43777
4.68363
2.81812
1.61656
0.877668
0.444886
0.205771
0.0835558
0.0278027
0.00661241
0.0008239
2.4712e-05
33.1454
34.1092
35.7944
38.008
40.5919
43.4145
46.3676
49.3632
52.3322
55.2213
57.9905
60.6113
63.0634
65.3336
67.413
69.2963
70.9764
72.4463
73.7016
74.7398
75.5585
76.1536
76.518
76.6409
76.5064
76.0933
75.3738
74.3131
72.8688
70.9913
68.6246
65.7097
62.1899
58.0206
53.1835
47.7026
41.6575
35.1532
28.4479
21.9312
16.0411
11.1278
7.34103
4.62122
2.78004
1.59455
0.865676
0.438797
0.202952
0.082411
0.0274217
0.00652181
0.000812611
2.43734e-05
33.5581
34.4886
36.1166
38.2574
40.76
43.4989
46.3704
49.2899
52.19
55.0182
57.7347
60.3104
62.7244
64.9625
67.015
68.8753
70.5382
71.9958
73.2428
74.2755
75.0906
75.6834
76.0465
76.1687
76.0342
75.6216
74.9031
73.8439
72.4019
70.5275
68.165
65.2557
61.7438
57.5853
52.763
47.3023
41.2836
34.8124
28.1485
21.6814
15.8454
10.9844
7.24277
4.55787
2.7414
1.57222
0.853509
0.432619
0.200093
0.0812497
0.0270353
0.0064299
0.000801159
2.40299e-05
33.993
34.8909
36.4626
38.5311
40.9522
43.6063
46.3943
49.235
52.0632
54.8274
57.4882
60.016
62.3894
64.593
66.6167
68.4527
70.0962
71.5399
72.7773
73.8035
74.6143
75.2044
75.5658
75.6872
75.5526
75.1404
74.4229
73.3653
71.9256
70.0543
67.696
64.7926
61.2887
57.1414
52.3343
46.8943
40.9028
34.4654
27.8441
21.4276
15.6467
10.8391
7.14323
4.49372
2.70229
1.54963
0.841199
0.426369
0.1972
0.0800747
0.0266443
0.00633691
0.000789573
2.36824e-05
34.4478
35.3142
36.831
38.8284
41.1684
43.7372
46.4403
49.2
51.9535
54.6508
57.2528
59.7299
62.0599
64.2269
66.2197
68.0301
69.6523
71.0801
72.3063
73.325
74.1307
74.7175
75.0769
75.1973
75.0623
74.6504
73.9339
72.8779
71.4404
69.5722
67.2183
64.3209
60.8252
56.6893
51.8979
46.4791
40.5154
34.1126
27.5348
21.1702
15.4453
10.6919
7.04255
4.42888
2.66277
1.5268
0.828763
0.420055
0.194278
0.0788878
0.0262493
0.00624297
0.000777869
2.33313e-05
34.9203
35.7564
37.2204
39.1485
41.4085
43.8921
46.5094
49.1864
51.8628
54.4903
57.0306
59.454
61.7381
63.8662
65.8261
67.6091
69.2081
70.6181
71.8314
72.8411
73.6409
74.2237
74.5806
74.6995
74.5639
74.1521
73.4362
72.3816
70.9462
69.0811
66.7315
63.84
60.3526
56.2282
51.4527
46.0553
40.119
33.7516
27.2187
20.9073
15.24
10.5421
6.94016
4.36298
2.62261
1.50361
0.816132
0.413643
0.19131
0.0776824
0.0258482
0.00614757
0.000765983
2.29748e-05
35.4078
36.2155
37.6289
39.4901
41.672
44.0711
46.6023
49.1952
51.7926
54.3477
56.8234
59.1902
61.4256
63.5122
65.437
67.1905
68.7653
70.1553
71.3538
72.3532
73.1459
73.7241
74.078
74.1951
74.0586
73.6467
72.9315
71.8782
70.4449
68.5828
66.2375
63.3521
59.8731
55.7606
51.0014
45.6259
39.7174
33.3862
26.899
20.6419
15.0329
10.3911
6.83706
4.29666
2.58222
1.48029
0.803431
0.407195
0.188326
0.0764704
0.0254449
0.00605165
0.000754031
2.26164e-05
35.9079
36.6889
38.0547
39.8519
41.958
44.2742
46.7195
49.2276
51.7441
54.2245
56.6329
58.9404
61.1242
63.1667
65.0543
66.7765
68.3253
69.6936
70.8754
71.8628
72.6472
73.2198
73.5701
73.6851
73.5475
73.1354
72.4206
71.3686
69.9374
68.0784
65.7375
62.8582
59.3878
55.2873
50.5447
45.1915
39.3114
33.0171
26.5764
20.3743
14.8245
10.2393
6.73349
4.23009
2.54169
1.45689
0.790687
0.400726
0.185332
0.0752544
0.0250403
0.00595541
0.00074204
2.22567e-05
36.4179
37.1743
38.4957
40.2324
42.2657
44.5009
46.8613
49.2842
51.7186
54.1222
56.4607
58.7061
60.8357
62.8315
64.6793
66.368
67.8888
69.2343
70.3974
71.371
72.1458
72.7119
73.058
73.1703
73.0314
72.6188
71.9044
70.8536
69.4244
67.5685
65.232
62.3589
58.8973
54.809
50.0833
44.7529
38.9016
32.6448
26.2514
20.105
14.615
10.0868
6.6296
4.16335
2.50107
1.43345
0.777921
0.394246
0.182333
0.0740364
0.0246349
0.00585902
0.00073003
2.18965e-05
36.9352
37.6693
38.9499
40.6299
42.594
44.7509
47.0276
49.3657
51.717
54.0421
56.3085
58.489
60.5616
62.508
64.3137
65.9668
67.4577
68.7785
69.9215
70.8794
71.6429
72.2014
72.5425
72.6517
72.511
72.0977
71.3836
70.3338
68.9066
67.0537
64.7217
61.8549
58.4022
54.3263
49.6178
44.3105
38.4886
32.2699
25.9244
19.8344
14.4047
9.93405
6.52556
4.09654
2.46043
1.41
0.765152
0.387765
0.179334
0.0728181
0.0242295
0.0057626
0.000718016
2.15362e-05
37.4573
38.1714
39.415
41.0427
42.9416
45.0232
47.2185
49.4723
51.7401
53.9854
56.1775
58.2907
60.3035
62.1979
63.9589
65.5741
67.0331
68.3273
69.4488
70.3891
71.1398
71.6893
72.0244
72.1299
71.987
71.5728
70.8587
69.8098
68.3846
66.5347
64.2071
61.3467
57.903
53.8397
49.1486
43.8649
38.0727
31.8926
25.5957
19.5627
14.1939
9.78108
6.42148
4.02976
2.41981
1.38657
0.752394
0.381289
0.176337
0.0716011
0.0238246
0.00566628
0.000706015
2.11762e-05
37.9817
38.6784
39.8889
41.469
43.307
45.317
47.4332
49.6041
51.7886
53.9529
56.069
58.1125
60.063
61.9026
63.6163
65.1911
66.6162
67.8819
68.9799
69.9014
70.6374
71.1764
71.5045
71.6055
71.46
71.0446
70.3303
69.2822
67.8588
66.0119
63.6887
60.8348
57.4002
53.3497
48.6763
43.4164
37.6544
31.5135
25.2657
19.2904
13.9828
9.62809
6.31748
3.96307
2.37927
1.36318
0.739663
0.374828
0.173347
0.0703867
0.0234205
0.00557017
0.00069404
2.0817e-05
38.5062
39.188
40.3696
41.9068
43.6887
45.6312
47.6714
49.7611
51.8626
53.9455
55.9839
57.9557
59.8413
61.6235
63.2872
64.8193
66.2082
67.4436
68.5163
69.4175
70.137
70.664
70.9839
71.0795
70.9308
70.5137
69.799
68.7515
67.3298
65.4859
63.1671
60.3196
56.8942
52.8567
48.2012
42.9655
37.2342
31.1329
24.9348
19.0176
13.7717
9.47525
6.21369
3.89655
2.33884
1.33987
0.726973
0.368388
0.170367
0.0691763
0.0230177
0.00547437
0.000682104
2.0459e-05
39.0285
39.698
40.855
42.3543
44.085
45.9645
47.932
49.9427
51.9623
53.9635
55.9232
57.8213
59.6396
61.3619
62.973
64.4598
65.8101
67.0131
68.0587
68.9376
69.6395
70.1528
70.463
70.5524
70.3998
69.9806
69.2651
68.2182
66.7981
64.957
62.6426
59.8016
56.3855
52.3611
47.7238
42.5126
36.8123
30.7511
24.6032
18.7446
13.5607
9.3227
6.11019
3.83026
2.29857
1.31665
0.714335
0.361974
0.167399
0.0679709
0.0226166
0.00537898
0.000670218
2.01025e-05
39.5468
40.2065
41.343
42.8095
44.4943
46.3154
48.2142
50.1485
52.0876
54.0072
55.8874
57.7102
59.4592
61.1189
62.6749
64.1139
65.4233
66.5917
67.6084
68.4633
69.1459
69.6439
69.9431
70.025
69.8678
69.4459
68.7295
67.6827
66.264
64.4257
62.1158
59.2813
55.8745
51.8633
47.2445
42.058
36.3891
30.3685
24.2713
18.4718
13.3501
9.17058
6.00707
3.76426
2.25849
1.29355
0.701761
0.355593
0.164446
0.0667717
0.0222175
0.00528407
0.000658393
1.97478e-05
40.0591
40.7115
41.8317
43.2705
44.9147
46.6824
48.5165
50.3776
52.238
54.0768
55.877
57.6232
59.3008
60.8957
62.394
63.7825
65.0486
66.1802
67.166
67.9951
68.6567
69.1381
69.4247
69.498
69.3352
68.9102
68.1923
67.1455
65.7281
63.8925
61.5869
58.7589
55.3616
51.3638
46.7636
41.6021
35.9649
29.9853
23.9393
18.1991
13.14
9.01902
5.90443
3.69861
2.21863
1.27058
0.689261
0.34925
0.161511
0.0655796
0.0218209
0.00518973
0.000646638
1.93953e-05
40.5639
41.2114
42.3195
43.7356
45.3445
47.0638
48.8377
50.629
52.4129
54.172
55.8921
57.5607
59.1653
60.6931
62.1313
63.4669
64.6871
65.7796
66.7325
67.534
68.1728
68.6362
68.9087
68.9721
68.8029
68.374
67.6542
66.6071
65.1908
63.3577
61.0564
58.2349
54.847
50.8628
46.2814
41.1453
35.5401
29.6019
23.6074
17.927
12.9305
8.86813
5.80234
3.63334
2.17902
1.24776
0.676842
0.342949
0.158595
0.0643954
0.0214268
0.00509601
0.00063496
1.9045e-05
41.0598
41.7048
42.8046
44.2029
45.7817
47.458
49.1762
50.9014
52.6116
54.2923
55.9328
57.5231
59.0532
60.512
61.8877
63.1678
64.3397
65.3908
66.3086
67.0808
67.6951
68.1389
68.3959
68.4481
68.2713
67.8378
67.1156
66.0678
64.6523
62.8216
60.5245
57.7095
54.3312
50.3606
45.7981
40.6876
35.1148
29.2184
23.2758
17.6555
12.7219
8.71798
5.70084
3.56849
2.13969
1.22509
0.664513
0.336693
0.1557
0.0632198
0.0210356
0.00500297
0.000623368
1.86973e-05
41.5456
42.1903
43.2855
44.6706
46.2246
47.8629
49.5304
51.1935
52.8329
54.4372
55.9988
57.5106
58.965
60.353
61.6639
62.8862
64.0073
65.0146
65.8951
66.6358
67.2239
67.6461
67.8865
67.9259
67.7405
67.3017
66.5765
65.5277
64.1128
62.2844
59.9914
57.1829
53.8142
49.8573
45.3141
40.2294
34.6892
28.8349
22.9447
17.3848
12.5141
8.56865
5.6
3.5041
2.10064
1.20261
0.652278
0.330485
0.152828
0.0620533
0.0206474
0.00491065
0.000611865
1.83523e-05
42.0204
42.6667
43.7608
45.1372
46.6714
48.2768
49.8984
51.5037
53.0757
54.6059
56.0896
57.523
58.901
60.2165
61.4607
62.6228
63.6907
64.6518
65.4927
66.2001
66.7602
67.1593
67.3814
67.4067
67.2116
66.7664
66.0377
64.9875
63.5729
61.7465
59.4575
56.6555
53.2964
49.3534
44.8295
39.7709
34.2636
28.4518
22.6143
17.115
12.3073
8.42024
5.49987
3.44021
2.06191
1.1803
0.640145
0.324329
0.14998
0.0608965
0.0202625
0.0048191
0.000600458
1.80102e-05
42.4834
43.1332
44.2292
45.6011
47.1202
48.6978
50.2783
51.8302
53.3384
54.7971
56.2046
57.56
58.8611
60.103
61.2786
62.3783
63.3907
64.3032
65.1024
65.7743
66.3047
66.6788
66.8813
66.8911
66.6849
66.2325
65.4995
64.4473
63.0327
61.2082
58.9231
56.1274
52.778
48.8489
44.3445
39.3122
33.8382
28.0692
22.2847
16.8462
12.1016
8.27279
5.40047
3.37682
2.0235
1.15819
0.628116
0.318227
0.147156
0.0597499
0.019881
0.00472835
0.000589151
1.7671e-05
42.9341
43.5889
44.6898
46.0609
47.5693
49.1239
50.6682
52.1712
53.6195
55.0097
56.3429
57.6213
58.8453
60.0126
61.1181
62.1533
63.1079
63.9694
64.7245
65.3587
65.8574
66.2051
66.3859
66.379
66.1604
65.6997
64.9617
63.9071
62.4922
60.6694
58.3881
55.5987
52.259
48.3439
43.8592
38.8535
33.413
27.6871
21.9559
16.5786
11.8971
8.12634
5.30185
3.31397
1.98543
1.13627
0.616196
0.31218
0.144358
0.0586136
0.0195028
0.00463843
0.000577946
1.73349e-05
43.3722
44.0333
45.1415
46.5152
48.0171
49.5532
51.066
52.5247
53.9172
55.2421
56.5034
57.706
58.8532
59.9454
60.9793
61.9482
62.8428
63.6511
64.3598
64.9543
65.4192
65.7387
65.8961
65.8711
65.6387
65.1687
64.425
63.3674
61.9519
60.1305
57.8528
55.0697
51.7396
47.8387
43.3739
38.3949
32.9882
27.3058
21.6282
16.3122
11.6938
7.98095
5.20403
3.25166
1.9477
1.11455
0.604387
0.30619
0.141587
0.057488
0.0191283
0.00454935
0.000566847
1.7002e-05
43.7974
44.466
45.5836
46.9628
48.4619
49.9838
51.4696
52.8886
54.2295
55.4928
56.6849
57.8133
58.8844
59.901
60.8623
61.7634
62.5959
63.3488
64.0089
64.5615
64.9908
65.2804
65.4128
65.3682
65.1207
64.6402
63.8899
62.8287
61.4121
59.5918
57.3175
54.5407
51.2202
47.3335
42.8886
37.9367
32.5639
26.9253
21.3017
16.047
11.4917
7.83666
5.10704
3.18992
1.91033
1.09305
0.592694
0.300258
0.138842
0.0563735
0.0187575
0.00446115
0.000555857
1.66724e-05
44.2098
44.8867
46.0154
47.4027
48.9022
50.4138
51.877
53.2607
54.5544
55.76
56.8858
57.9422
58.9381
59.8793
60.7673
61.599
62.3677
63.063
63.6723
64.1808
64.5726
64.8303
64.9361
64.8704
64.6065
64.1144
63.3565
62.291
60.8728
59.0532
56.7823
54.0115
50.7007
46.8282
42.4035
37.4787
32.1403
26.5457
20.9763
15.7832
11.291
7.6935
5.0109
3.12876
1.87332
1.07176
0.581116
0.294385
0.136125
0.0552701
0.0183903
0.00437382
0.000544977
1.63461e-05
44.6095
45.2953
46.4364
47.8338
49.3365
50.8414
52.286
53.6389
54.8898
56.0416
57.1045
58.0913
59.0135
59.8797
60.6938
61.4551
62.1582
62.794
63.3503
63.8126
64.1646
64.3887
64.4662
64.3775
64.0959
63.5907
62.8243
61.7539
60.3337
58.5147
56.2469
53.4821
50.181
46.3229
41.9184
37.0211
31.7172
26.167
20.6521
15.5208
11.0916
7.55145
4.91559
3.06816
1.83666
1.05067
0.569654
0.288572
0.133436
0.0541778
0.0180268
0.00428738
0.000534206
1.6023e-05
44.9969
45.692
46.8462
48.2553
49.7636
51.2648
52.6947
54.0209
55.2334
56.3357
57.3394
58.2592
59.1095
59.9015
60.6416
61.3315
61.9676
62.542
63.0433
63.4573
63.7675
63.9561
64.0038
63.8902
63.5896
63.0701
62.2941
61.2181
59.7954
57.9766
55.7117
52.9528
49.6614
45.8177
41.4337
36.564
31.2949
25.7893
20.3292
15.2598
10.8936
7.41057
4.82116
3.00816
1.80038
1.02981
0.558311
0.282818
0.130774
0.0530969
0.0176671
0.00420183
0.000523547
1.57033e-05
45.3723
46.0768
47.2447
48.6666
50.1823
51.6824
53.1009
54.4045
55.5829
56.64
57.5884
58.4444
59.2249
59.9437
60.6101
61.228
61.7958
62.3072
62.7517
63.1153
63.3819
63.5331
63.5492
63.4092
63.0881
62.553
61.7664
60.684
59.2582
57.4393
55.177
52.4239
49.1421
45.3128
40.9494
36.1075
30.8734
25.4128
20.0077
15.0003
10.6971
7.2709
4.72761
2.94875
1.76447
1.00916
0.547088
0.277126
0.128141
0.0520275
0.0173113
0.0041172
0.000513002
1.5387e-05
45.7364
46.4501
47.6318
49.067
50.5915
52.0927
53.5027
54.7874
55.936
56.9523
57.8495
58.6451
59.3582
60.0053
60.5985
61.1441
61.6427
62.0897
62.4754
62.7868
63.0077
63.1197
63.1026
62.9347
62.5917
62.0398
61.2415
60.1518
58.7223
56.9027
54.6428
51.8953
48.623
44.8083
40.4655
35.6517
30.4529
25.0375
19.6876
14.7424
10.502
7.13243
4.63496
2.88995
1.72894
0.988733
0.535986
0.271496
0.125536
0.0509697
0.0169593
0.00403348
0.000502571
1.50742e-05
46.0897
46.8123
48.0073
49.4561
50.9902
52.4943
53.8984
55.1675
56.2904
57.2704
58.1205
58.8594
59.5079
60.0851
60.6059
61.0792
61.5079
61.8891
62.2145
62.4718
62.6452
62.7162
62.6641
62.4668
62.1003
61.5303
60.7191
59.6211
58.1872
56.3667
54.1088
51.3669
48.1041
44.3039
39.982
35.1964
30.0331
24.6632
19.3689
14.486
10.3083
6.99515
4.54319
2.83174
1.69378
0.968522
0.525002
0.265926
0.122959
0.0499232
0.0166111
0.00395067
0.000492252
1.47647e-05
46.433
47.1638
48.3716
49.8335
51.3778
52.8858
54.2861
55.5426
56.6436
57.5917
58.3993
59.0852
59.6721
60.1815
60.6311
61.0324
61.3908
61.7052
61.9689
62.1704
62.2943
62.3224
62.2336
62.0054
61.6133
61.024
60.1987
59.0917
57.6529
55.8309
53.575
50.8385
47.5852
43.7997
39.4988
34.7417
29.6142
24.2901
19.0516
14.2311
10.1161
6.85905
4.4523
2.77412
1.65898
0.948527
0.514136
0.260416
0.12041
0.0488881
0.0162667
0.00386875
0.000482045
1.44585e-05
46.7671
47.5053
48.7247
50.1991
51.7534
53.2663
54.6643
55.9108
56.9935
57.914
58.6834
59.3204
59.849
60.2929
60.6727
61.0027
61.2907
61.5376
61.7383
61.8825
61.9554
61.9388
61.8117
61.5511
61.132
60.522
59.6814
58.5643
57.1199
55.2961
53.0418
50.3105
47.0667
43.2959
39.0161
34.2877
29.1963
23.9183
18.7358
13.9777
9.92532
6.72419
4.36231
2.71711
1.62457
0.928753
0.503392
0.254967
0.11789
0.0478646
0.0159261
0.00378775
0.000471953
1.41558e-05
47.0929
47.8373
49.0669
50.5527
52.1166
53.6347
55.0317
56.2703
57.3377
58.2347
58.9704
59.5626
60.0362
60.4175
60.7294
60.9891
61.2068
61.3857
61.5225
61.608
61.6283
61.5655
61.3986
61.1041
60.6565
60.0246
59.1674
58.0394
56.5887
54.7625
52.5095
49.7832
46.5488
42.7927
38.5342
33.8347
28.7795
23.5479
18.4216
13.7261
9.73615
6.59061
4.27325
2.66072
1.59054
0.909205
0.492771
0.249582
0.115398
0.0468529
0.0155894
0.00370768
0.000461977
1.38566e-05
47.4111
48.1606
49.3988
50.8944
52.4671
53.9904
55.3871
56.6194
57.6743
58.5515
59.2577
59.8094
60.2317
60.5531
60.7993
60.99
61.138
61.2488
61.3209
61.3467
61.313
61.2024
60.9942
60.6644
60.1869
59.5318
58.6571
57.5171
56.0593
54.2302
51.978
49.2565
46.0315
42.2901
38.053
33.3825
28.3638
23.1789
18.1091
13.4762
9.54852
6.45828
4.18511
2.60495
1.5569
0.88988
0.482272
0.244258
0.112936
0.0458529
0.0152567
0.00362855
0.000452116
1.35608e-05
47.7228
48.476
49.7206
51.2243
52.8045
54.3327
55.7296
56.9568
58.0014
58.8618
59.5426
60.0578
60.4327
60.6975
60.8805
61.004
61.0833
61.1262
61.1332
61.0982
61.0092
60.8495
60.5983
60.2317
59.7231
59.0435
58.1501
56.997
55.5313
53.6987
51.4471
48.7302
45.5144
41.7878
37.5722
32.9311
27.9492
22.8111
17.7981
13.2279
9.36241
6.32719
4.09788
2.54978
1.52363
0.870773
0.471893
0.238996
0.110501
0.0448644
0.0149278
0.00355031
0.000442369
1.32685e-05
48.0288
48.7841
50.0328
51.5424
53.1288
54.6611
56.0585
57.2816
58.3179
59.1637
59.8218
60.305
60.6366
60.8485
60.9712
61.0295
61.0414
61.0169
60.9586
60.8621
60.7167
60.5064
60.2108
59.806
59.2651
58.5588
57.6456
56.4784
55.0041
53.1676
50.9163
48.204
44.9975
41.2858
37.092
32.4804
27.5355
22.4447
17.4886
12.9813
9.17782
6.19733
4.01154
2.4952
1.49073
0.851884
0.461633
0.233794
0.108095
0.0438873
0.0146026
0.00347299
0.000432733
1.29795e-05
48.3301
49.0857
50.3361
51.8491
53.4398
54.9755
56.3734
57.5933
58.6233
59.4561
60.0933
60.5478
60.8407
61.0036
61.0693
61.065
61.011
60.9199
60.7965
60.6381
60.4354
60.1734
59.8321
59.3878
58.8133
58.079
57.1447
55.9623
54.4786
52.6377
50.3863
47.6784
44.4811
40.7844
36.6124
32.0306
27.1231
22.0797
17.1808
12.7363
8.99481
6.06875
3.92613
2.44125
1.45821
0.833217
0.451495
0.228654
0.105718
0.0429218
0.0142814
0.00339658
0.000423213
1.26939e-05
48.6275
49.3817
50.631
52.1446
53.7376
55.2756
56.6739
57.8919
58.9167
59.7376
60.3554
60.7834
61.0424
61.1604
61.1727
61.1086
60.9909
60.8344
60.6463
60.4258
60.1652
59.8504
59.4623
58.9771
58.3678
57.6042
56.6477
55.4491
53.9552
52.1092
49.8574
47.1536
43.9654
40.2837
36.1337
31.5818
26.7118
21.7163
16.8748
12.4932
8.81341
5.94146
3.84166
2.38791
1.42608
0.814774
0.441478
0.223576
0.103369
0.041968
0.013964
0.0033211
0.000413808
1.24118e-05
48.922
49.6727
50.9181
52.4293
54.0222
55.5612
56.9597
58.1765
59.1965
60.0065
60.6069
61.0106
61.2389
61.3169
61.2795
61.1588
60.9796
60.7593
60.5072
60.2247
59.9057
59.5373
59.1012
58.5741
57.9287
57.1346
56.1547
54.939
53.4339
51.5821
49.3294
46.6294
43.4502
39.7835
35.6555
31.1338
26.3016
21.3541
16.5703
12.2516
8.63345
5.81534
3.75803
2.33514
1.3943
0.796535
0.431574
0.218555
0.101046
0.0410249
0.0136502
0.00324646
0.000404508
1.21329e-05
49.2143
49.9596
51.198
52.7037
54.2939
55.8323
57.2304
58.4463
59.4616
60.2617
60.8462
61.2278
61.4278
61.4706
61.3878
61.2138
60.9757
60.6935
60.3785
60.0343
59.6565
59.2339
58.7488
58.1786
57.496
56.6701
55.6658
54.4318
52.9145
51.0561
48.8018
46.1052
42.9346
39.2828
35.1767
30.684
25.8899
20.9912
16.2656
12.0105
8.45411
5.68984
3.67489
2.28271
1.36273
0.778426
0.421741
0.21357
0.0987408
0.0400887
0.0133387
0.00317237
0.000395277
1.1856e-05
49.5053
50.2432
51.4712
52.968
54.5527
56.0888
57.4859
58.7002
59.7108
60.5016
61.072
61.434
61.6082
61.6194
61.4955
61.2719
60.978
60.6358
60.2593
59.8539
59.4174
58.9399
58.405
57.7905
57.0695
56.2109
55.1805
53.9271
52.3966
50.5309
48.2746
45.581
42.4191
38.7821
34.698
30.234
25.4783
20.6288
15.962
11.7705
8.27594
5.56531
3.59248
2.23077
1.33148
0.760494
0.412005
0.208635
0.0964582
0.0391618
0.0130303
0.00309902
0.000386138
1.15819e-05
49.7957
50.524
51.7386
53.2228
54.7989
56.3307
57.7255
58.9374
59.9429
60.7253
61.2832
61.6276
61.7788
61.7614
61.601
61.3316
60.9849
60.5852
60.1487
59.6831
59.188
58.6554
58.0698
57.4101
56.6496
55.7573
54.6989
53.4251
51.8805
50.0069
47.7482
45.0576
41.9042
38.2821
34.2201
29.785
25.0679
20.2679
15.6601
11.5323
8.09941
5.44209
3.51101
2.17945
1.3006
0.742784
0.402391
0.203762
0.0942042
0.0382466
0.0127257
0.00302659
0.000377112
1.13112e-05
50.0862
50.8029
52.0005
53.4686
55.0328
56.558
57.9489
59.1571
60.1572
60.9318
61.4785
61.8076
61.9382
61.8947
61.7022
61.391
60.9951
60.5405
60.0458
59.5211
58.9679
58.38
57.7433
57.0376
56.2367
55.3098
54.2223
52.9269
51.3674
49.4851
47.2236
44.5356
41.3906
37.7834
33.7437
29.3375
24.6594
19.9091
15.3604
11.2963
7.92473
5.32032
3.43056
2.12881
1.27014
0.725316
0.392908
0.198956
0.0919812
0.0373439
0.0124254
0.00295515
0.000368212
1.10442e-05
50.3774
51.0803
52.2578
53.7059
55.2547
56.7705
58.1557
59.3587
60.3529
61.1201
61.6571
61.9729
62.0855
62.0185
61.7974
61.4487
61.0069
60.5004
59.9497
59.3672
58.7566
58.1135
57.4254
56.673
55.8309
54.8685
53.751
52.4332
50.8578
48.9663
46.7013
44.0156
40.8788
37.2865
33.2691
28.892
24.2529
19.5526
15.063
11.0625
7.75202
5.20007
3.35119
2.07887
1.24011
0.708099
0.383563
0.194219
0.0897905
0.0364544
0.0121294
0.00288476
0.00035944
1.07811e-05
50.6698
51.357
52.511
53.9352
55.4649
56.9683
58.3457
59.5417
60.5294
61.2897
61.8181
62.1224
62.2194
62.1315
61.8845
61.5029
61.019
60.4635
59.8592
59.2205
58.5536
57.8556
57.1159
56.3164
55.4324
54.4336
53.285
51.944
50.3521
48.4505
46.1816
43.4978
40.369
36.7915
32.7964
28.4486
23.8487
19.1985
14.7682
10.8311
7.58131
5.08136
3.27291
2.02964
1.21052
0.691136
0.374356
0.189553
0.0876324
0.0355781
0.0118378
0.00281541
0.000350799
1.05219e-05
50.9639
51.6334
52.7607
54.1571
55.6637
57.1515
58.5186
59.7061
60.6864
61.4398
61.9606
62.2552
62.3388
62.2328
61.9623
61.5517
61.0297
60.4286
59.7733
59.0803
58.358
57.6057
56.8145
55.9674
55.0408
54.0049
52.8246
51.4594
49.85
47.9377
45.6642
42.982
39.861
36.2983
32.3255
28.0071
23.4466
18.8468
14.4758
10.602
7.4126
4.9642
3.19571
1.98112
1.18137
0.674425
0.365287
0.184957
0.0855066
0.0347149
0.0115506
0.0027471
0.000342288
1.02666e-05
51.2601
51.91
53.0074
54.3722
55.8518
57.3203
58.6745
59.8515
60.8236
61.5701
62.0841
62.3705
62.4427
62.3211
62.0298
61.5936
61.0375
60.3943
59.6907
58.9456
58.1693
57.3634
56.5207
55.6258
54.656
53.5822
52.3695
50.9788
49.3511
47.4272
45.1488
42.4679
39.3547
35.8067
31.8565
27.5675
23.0467
18.4974
14.1859
10.3753
7.24589
4.84856
3.11959
1.9333
1.15264
0.657964
0.356354
0.180429
0.0834129
0.0338647
0.0112677
0.00267982
0.000333905
1.00152e-05
51.5587
52.1872
53.2516
54.581
56.0295
57.475
58.8135
59.978
60.9408
61.6802
62.1881
62.4674
62.5303
62.3954
62.0859
61.6267
61.0408
60.359
59.6102
58.8152
57.9867
57.1281
56.2342
55.2914
54.278
53.1656
51.92
50.502
48.8552
46.9191
44.6354
41.9555
38.85
35.3169
31.3893
27.13
22.649
18.1505
13.8985
10.1509
7.08119
4.73448
3.04455
1.88619
1.12435
0.641753
0.347558
0.175972
0.0813513
0.0330276
0.0109891
0.00261357
0.000325651
9.76762e-06
51.8599
52.4653
53.4939
54.7842
56.1975
57.6159
58.9356
60.0858
61.0381
61.77
62.272
62.5455
62.6008
62.4548
62.1296
61.6496
61.0379
60.3213
59.5305
58.6882
57.8091
56.899
55.9546
54.9639
53.9066
52.7553
51.476
50.03
48.3632
46.4143
44.1246
41.4455
38.3475
34.8292
30.9243
26.6948
22.2538
17.8062
13.6137
9.92907
6.91858
4.62198
2.97063
1.8398
1.0965
0.625798
0.338901
0.171585
0.0793225
0.0322038
0.010715
0.00254838
0.000317528
9.52399e-06
52.1638
52.7447
53.7347
54.9823
56.3564
57.7437
59.0413
60.1752
61.1155
61.8392
62.3355
62.6041
62.6532
62.4983
62.1599
61.6616
61.0272
60.2798
59.4502
58.5633
57.6357
56.6755
55.6814
54.643
53.5418
52.3511
51.0377
49.5628
47.8754
45.9129
43.6168
40.9381
37.8474
34.3439
30.4618
26.2621
21.8612
17.4646
13.3318
9.70976
6.75811
4.5111
2.89782
1.79414
1.0691
0.610101
0.330384
0.167269
0.0773268
0.0313935
0.0104454