/*--------------------------------*- C++ -*----------------------------------*\
  =========                 |
  \\      /  F ield         | OpenFOAM: The Open Source CFD Toolbox
   \\    /   O peration     | Website:  https://openfoam.org
    \\  /    A nd           | Version:  7
     \\/     M anipulation  |
\*---------------------------------------------------------------------------*/
FoamFile
{
    version     2.0;
    format      ascii;
    class       volScalarField;
    location    "1540";
    object      omega;
}
// * * * * * * * * * * * * * * * * * * * * * * * * * * * * * * * * * * * * * //

dimensions      [0 0 -1 0 0 0 0];

internalField   nonuniform List<scalar> 
8748
(
40982.1
43588.4
48252.1
54605.2
62398.9
71474
81746.3
93194.8
105854
119808
135182
152152
170959
191846
215029
240777
269443
301476
337417
377912
423722
475740
535024
602827
680634
770214
873667
993491
1.13264e+06
1.2946e+06
1.48344e+06
1.70398e+06
1.96181e+06
2.26366e+06
2.6178e+06
3.03511e+06
3.53096e+06
4.12867e+06
4.86272e+06
5.78537e+06
6.98217e+06
8.5938e+06
1.08455e+07
1.40936e+07
1.89124e+07
2.62717e+07
3.79165e+07
5.72342e+07
9.14403e+07
1.57853e+08
3.0543e+08
7.09646e+08
2.28229e+09
1.40147e+10
40994
43596.4
48253.7
54599.1
62384.7
71452.2
81717.4
93159.6
105813
119762
135131
152096
170896
191778
214957
240702
269366
301396
337333
377824
423628
475640
534917
602711
680508
770076
873515
993323
1.13245e+06
1.29438e+06
1.4832e+06
1.7037e+06
1.96149e+06
2.26328e+06
2.61736e+06
3.03459e+06
3.53035e+06
4.12796e+06
4.86192e+06
5.78448e+06
6.98121e+06
8.59283e+06
1.08446e+07
1.40928e+07
1.89117e+07
2.62712e+07
3.7916e+07
5.7234e+07
9.14401e+07
1.57853e+08
3.0543e+08
7.09646e+08
2.28229e+09
1.40147e+10
41017.8
43612.7
48257.4
54587.9
62358.1
71410.8
81662.4
93092.4
105735
119674
135033
151987
170776
191648
214820
240558
269217
301240
337170
377652
423446
475445
534707
602483
680260
769804
873216
992991
1.13208e+06
1.29397e+06
1.48273e+06
1.70315e+06
1.96086e+06
2.26254e+06
2.61649e+06
3.03357e+06
3.52915e+06
4.12658e+06
4.86035e+06
5.78274e+06
6.97935e+06
8.59094e+06
1.08428e+07
1.40912e+07
1.89104e+07
2.62701e+07
3.79152e+07
5.72334e+07
9.14398e+07
1.57853e+08
3.05429e+08
7.09646e+08
2.28229e+09
1.40147e+10
41054.1
43637.9
48264.5
54573.3
62320.9
71352
81583.7
92995.9
105623
119546
134892
151830
170602
191460
214621
240350
269000
301014
336934
377403
423181
475162
534402
602154
679901
769411
872782
992510
1.13154e+06
1.29336e+06
1.48204e+06
1.70237e+06
1.95995e+06
2.26148e+06
2.61524e+06
3.0321e+06
3.52743e+06
4.12459e+06
4.85809e+06
5.78022e+06
6.97666e+06
8.58821e+06
1.08402e+07
1.40889e+07
1.89084e+07
2.62686e+07
3.79141e+07
5.72326e+07
9.14392e+07
1.57853e+08
3.05429e+08
7.09646e+08
2.28229e+09
1.40147e+10
41103.7
43673.1
48276.2
54556.8
62275.1
71278
81483.8
92872.7
105479
119383
134712
151630
170380
191219
214364
240081
268720
300722
336628
377081
422839
474797
534010
601729
679439
768904
872225
991892
1.13085e+06
1.29258e+06
1.48116e+06
1.70136e+06
1.95878e+06
2.26011e+06
2.61363e+06
3.0302e+06
3.52521e+06
4.12203e+06
4.85518e+06
5.77699e+06
6.97321e+06
8.58472e+06
1.08369e+07
1.40859e+07
1.89059e+07
2.62666e+07
3.79126e+07
5.72315e+07
9.14385e+07
1.57852e+08
3.05429e+08
7.09646e+08
2.28229e+09
1.40147e+10
41167.9
43719.9
48294.2
54540.3
62222.7
71190.9
81364.8
92725
105305
119187
134493
151389
170115
190929
214053
239754
268379
300367
336258
376691
422426
474356
533536
601217
678881
768295
871553
991148
1.13002e+06
1.29165e+06
1.4801e+06
1.70014e+06
1.95737e+06
2.25846e+06
2.6117e+06
3.02792e+06
3.52254e+06
4.11895e+06
4.85168e+06
5.7731e+06
6.96906e+06
8.58052e+06
1.08329e+07
1.40823e+07
1.89029e+07
2.62642e+07
3.79108e+07
5.72303e+07
9.14377e+07
1.57852e+08
3.05429e+08
7.09645e+08
2.28229e+09
1.40147e+10
41248.3
43779.9
48320.4
54526
62165.9
71093.1
81229.1
92555.2
105105
118959
134239
151111
169809
190592
213691
239373
267981
299953
335825
376237
421946
473844
532987
600623
678236
767588
870776
990286
1.12906e+06
1.29057e+06
1.47887e+06
1.69873e+06
1.95573e+06
2.25656e+06
2.60946e+06
3.02529e+06
3.51946e+06
4.11539e+06
4.84764e+06
5.76861e+06
6.96427e+06
8.57567e+06
1.08282e+07
1.40782e+07
1.88995e+07
2.62614e+07
3.79087e+07
5.72288e+07
9.14368e+07
1.57851e+08
3.05428e+08
7.09645e+08
2.28229e+09
1.40147e+10
41346.5
43854.7
48356.7
54515.8
62106.9
70986.8
81079.2
92366
104880
118702
133954
150797
169462
190211
213281
238939
267528
299483
335335
375723
421403
473266
532367
599953
677508
766793
869901
989317
1.12798e+06
1.28935e+06
1.47749e+06
1.69714e+06
1.9539e+06
2.25442e+06
2.60694e+06
3.02233e+06
3.51599e+06
4.11139e+06
4.8431e+06
5.76357e+06
6.95889e+06
8.57023e+06
1.08231e+07
1.40736e+07
1.88956e+07
2.62584e+07
3.79064e+07
5.72272e+07
9.14357e+07
1.57851e+08
3.05428e+08
7.09645e+08
2.28229e+09
1.40147e+10
41464.1
43946.2
48405.1
54512
62048.1
70874.6
80917.5
92159.6
104634
118420
133638
150449
169078
189787
212824
238456
267025
298959
334789
375152
420800
472625
531680
599213
676704
765914
868934
988247
1.12679e+06
1.28801e+06
1.47596e+06
1.6954e+06
1.95188e+06
2.25205e+06
2.60416e+06
3.01906e+06
3.51217e+06
4.10698e+06
4.83809e+06
5.75802e+06
6.95297e+06
8.56424e+06
1.08174e+07
1.40685e+07
1.88913e+07
2.6255e+07
3.79039e+07
5.72254e+07
9.14345e+07
1.5785e+08
3.05428e+08
7.09645e+08
2.28229e+09
1.40147e+10
41602.5
44056.1
48467.5
54516.7
61992
70758.9
80746.6
91938.6
104368
118114
133294
150070
168658
189323
212322
237927
266472
298385
334191
374526
420140
471924
530930
598404
675827
764957
867883
987083
1.12549e+06
1.28655e+06
1.47431e+06
1.6935e+06
1.94968e+06
2.24949e+06
2.60115e+06
3.01551e+06
3.50802e+06
4.10219e+06
4.83266e+06
5.752e+06
6.94655e+06
8.55776e+06
1.08112e+07
1.4063e+07
1.88867e+07
2.62513e+07
3.79012e+07
5.72235e+07
9.14333e+07
1.57849e+08
3.05427e+08
7.09645e+08
2.28229e+09
1.40147e+10
41763.1
44185.9
48545.9
54532.3
61940.8
70642.3
80568.8
91705.5
104086
117786
132926
149662
168206
188821
211780
237352
265872
297761
333542
373847
419425
471166
530120
597533
674883
763927
866752
985832
1.12409e+06
1.28498e+06
1.47253e+06
1.69146e+06
1.94732e+06
2.24673e+06
2.59791e+06
3.0117e+06
3.50356e+06
4.09705e+06
4.82683e+06
5.74554e+06
6.93968e+06
8.55083e+06
1.08046e+07
1.40571e+07
1.88818e+07
2.62475e+07
3.78983e+07
5.72215e+07
9.14319e+07
1.57848e+08
3.05427e+08
7.09645e+08
2.28229e+09
1.40147e+10
41947.4
44337.2
48642.1
54560.9
61897.1
70527.3
80386.9
91462.8
103788
117440
132534
149228
167723
188286
211199
236735
265226
297089
332844
373117
418658
470354
529253
596601
673874
762828
865545
984499
1.12261e+06
1.28331e+06
1.47063e+06
1.68929e+06
1.94481e+06
2.2438e+06
2.59446e+06
3.00765e+06
3.49882e+06
4.09158e+06
4.82064e+06
5.73869e+06
6.93239e+06
8.54348e+06
1.07977e+07
1.40509e+07
1.88766e+07
2.62433e+07
3.78952e+07
5.72193e+07
9.14305e+07
1.57848e+08
3.05426e+08
7.09644e+08
2.28229e+09
1.40147e+10
42156.1
44511.2
48757.9
54604.7
61863.4
70416.6
80203.6
91213
103479
117076
132122
148770
167215
187722
210583
236078
264535
296370
332096
372337
417839
469488
528331
595611
672804
761663
864268
983088
1.12104e+06
1.28155e+06
1.46863e+06
1.687e+06
1.94215e+06
2.2407e+06
2.59082e+06
3.00337e+06
3.49382e+06
4.08582e+06
4.81411e+06
5.73147e+06
6.92471e+06
8.53575e+06
1.07904e+07
1.40444e+07
1.88711e+07
2.6239e+07
3.7892e+07
5.7217e+07
9.1429e+07
1.57847e+08
3.05426e+08
7.09644e+08
2.28229e+09
1.40147e+10
42390.3
44709.2
48894.8
54665.7
61842.1
70312.9
80021.7
90959.1
103160
116698
131690
148287
166684
187135
209937
235382
263802
295604
331300
371507
416970
468571
527355
594566
671676
760436
862925
981606
1.11939e+06
1.27969e+06
1.46653e+06
1.68459e+06
1.93937e+06
2.23745e+06
2.58701e+06
2.99888e+06
3.48857e+06
4.07978e+06
4.80727e+06
5.7239e+06
6.91668e+06
8.52767e+06
1.07827e+07
1.40376e+07
1.88654e+07
2.62345e+07
3.78886e+07
5.72147e+07
9.14275e+07
1.57846e+08
3.05426e+08
7.09644e+08
2.28229e+09
1.40147e+10
42650.5
44932.1
49054.4
54746
61835.8
70219.2
79844.2
90704.1
102834
116309
131243
147787
166131
186523
209260
234651
263027
294795
330458
370630
416052
467603
526329
593467
670492
759150
861518
980054
1.11766e+06
1.27776e+06
1.46434e+06
1.68208e+06
1.93646e+06
2.23405e+06
2.58302e+06
2.9942e+06
3.4831e+06
4.07348e+06
4.80015e+06
5.71603e+06
6.90833e+06
8.51928e+06
1.07748e+07
1.40306e+07
1.88595e+07
2.62299e+07
3.78851e+07
5.72122e+07
9.14259e+07
1.57845e+08
3.05425e+08
7.09644e+08
2.28229e+09
1.40147e+10
42937.2
45180.7
49237.9
54847.6
61846.9
70138.2
79674.3
90451.3
102506
115912
130784
147270
165559
185889
208557
233888
262216
293944
329571
369707
415086
466587
525251
592317
669254
757807
860050
978437
1.11587e+06
1.27574e+06
1.46206e+06
1.67946e+06
1.93344e+06
2.23053e+06
2.57888e+06
2.98933e+06
3.47742e+06
4.06694e+06
4.79276e+06
5.70787e+06
6.89968e+06
8.51059e+06
1.07666e+07
1.40233e+07
1.88535e+07
2.62251e+07
3.78816e+07
5.72097e+07
9.14242e+07
1.57844e+08
3.05424e+08
7.09644e+08
2.28229e+09
1.40147e+10
43250.6
45455.6
49446.6
54972.2
61877.9
70073
79515.2
90203.9
102177
115510
130314
146738
164969
185235
207833
233097
261370
293053
328640
368737
414073
465522
524125
591116
667963
756410
858525
976758
1.114e+06
1.27365e+06
1.45969e+06
1.67676e+06
1.93031e+06
2.22687e+06
2.57459e+06
2.9843e+06
3.47154e+06
4.06018e+06
4.78512e+06
5.69945e+06
6.89077e+06
8.50165e+06
1.07581e+07
1.40158e+07
1.88472e+07
2.62201e+07
3.78779e+07
5.72071e+07
9.14225e+07
1.57843e+08
3.05424e+08
7.09643e+08
2.28229e+09
1.40147e+10
43591
45757.3
49681.6
55121.7
61931.1
70026.2
79369.9
89965.1
101852
115105
129837
146194
164362
184566
207094
232282
260491
292123
327667
367721
413012
464409
522949
589865
666621
754959
856943
975020
1.11207e+06
1.27149e+06
1.45725e+06
1.67396e+06
1.92708e+06
2.2231e+06
2.57017e+06
2.9791e+06
3.46548e+06
4.05321e+06
4.77725e+06
5.69079e+06
6.88161e+06
8.49248e+06
1.07495e+07
1.40081e+07
1.88408e+07
2.62151e+07
3.78741e+07
5.72045e+07
9.14208e+07
1.57842e+08
3.05423e+08
7.09643e+08
2.28229e+09
1.40147e+10
43958.2
46086.2
49943.9
55297.6
62009
70001
79241.9
89738.6
101533
114702
129356
145642
163743
183883
206337
231446
259583
291157
326652
366661
411905
463249
521725
588565
665229
753456
855308
973225
1.11008e+06
1.26927e+06
1.45473e+06
1.67108e+06
1.92375e+06
2.21922e+06
2.56562e+06
2.97376e+06
3.45925e+06
4.04605e+06
4.76918e+06
5.6819e+06
6.87222e+06
8.48309e+06
1.07406e+07
1.40003e+07
1.88343e+07
2.62099e+07
3.78703e+07
5.72018e+07
9.1419e+07
1.57841e+08
3.05423e+08
7.09643e+08
2.28229e+09
1.40147e+10
44352.2
46442.5
50234.2
55501.6
62113.7
70000
79134.4
89527.8
101225
114304
128875
145084
163113
183185
205567
230594
258652
290159
325598
365557
410751
462039
520452
587214
663787
751903
853620
971374
1.10804e+06
1.26698e+06
1.45214e+06
1.66812e+06
1.92033e+06
2.21524e+06
2.56095e+06
2.96828e+06
3.45286e+06
4.03871e+06
4.76091e+06
5.67281e+06
6.86263e+06
8.4735e+06
1.07316e+07
1.39924e+07
1.88276e+07
2.62047e+07
3.78664e+07
5.71991e+07
9.14173e+07
1.5784e+08
3.05422e+08
7.09643e+08
2.28229e+09
1.40147e+10
44773.1
46826.6
50553.4
55735.1
62247.5
70026.2
79050.8
89336.3
100931
113913
128396
144523
162476
182475
204785
229731
257702
289131
324506
364409
409550
460781
519128
585813
662292
750296
851878
969469
1.10593e+06
1.26463e+06
1.44949e+06
1.6651e+06
1.91684e+06
2.21117e+06
2.55618e+06
2.96268e+06
3.44633e+06
4.03122e+06
4.75246e+06
5.66353e+06
6.85285e+06
8.46374e+06
1.07225e+07
1.39843e+07
1.88209e+07
2.61994e+07
3.78624e+07
5.71963e+07
9.14154e+07
1.57839e+08
3.05422e+08
7.09642e+08
2.28229e+09
1.40147e+10
45220.6
47238.6
50902.2
55999.5
62412.3
70082.3
78994.2
89167.8
100654
113535
127923
143962
161833
181756
203992
228856
256735
288079
323381
363221
408302
459473
517752
584358
660743
748634
850078
967503
1.10376e+06
1.26221e+06
1.44677e+06
1.662e+06
1.91327e+06
2.20702e+06
2.55133e+06
2.95703e+06
3.43977e+06
4.02369e+06
4.74392e+06
5.65411e+06
6.84291e+06
8.45381e+06
1.07131e+07
1.3976e+07
1.8814e+07
2.6194e+07
3.78584e+07
5.71935e+07
9.14136e+07
1.57837e+08
3.05421e+08
7.09642e+08
2.28229e+09
1.40147e+10
45694.8
47678.7
51281.3
56296.1
62610.2
70170.8
78967.9
89026
100400
113173
127460
143405
161189
181029
203186
227971
255762
287010
322226
361993
407009
458115
516325
582851
659142
746918
848225
965483
1.10154e+06
1.25974e+06
1.44398e+06
1.65883e+06
1.90962e+06
2.20279e+06
2.54639e+06
2.95126e+06
3.43309e+06
4.01602e+06
4.73523e+06
5.64453e+06
6.83281e+06
8.44374e+06
1.07037e+07
1.39677e+07
1.88071e+07
2.61885e+07
3.78544e+07
5.71906e+07
9.14117e+07
1.57836e+08
3.05421e+08
7.09642e+08
2.28229e+09
1.40147e+10
46195.6
48147.2
51691.4
56626.1
62843
70294.4
78975.2
88914.4
100171
112831
127011
142856
160546
180298
202372
227076
254778
285927
321048
360732
405674
456710
514847
581292
657487
745150
846319
963409
1.09926e+06
1.25721e+06
1.44114e+06
1.65559e+06
1.9059e+06
2.19848e+06
2.54136e+06
2.94538e+06
3.42629e+06
4.00821e+06
4.72639e+06
5.63481e+06
6.82257e+06
8.43354e+06
1.06941e+07
1.39593e+07
1.88001e+07
2.6183e+07
3.78503e+07
5.71877e+07
9.14099e+07
1.57835e+08
3.0542e+08
7.09642e+08
2.28229e+09
1.40147e+10
46723.2
48644.5
52133
56990.6
63112.6
70455.4
79018.9
88836.6
99971.3
112513
126580
142318
159908
179566
201551
226169
253785
284837
319853
359442
404300
455259
513319
579681
655780
743328
844359
961280
1.09692e+06
1.25462e+06
1.43823e+06
1.65229e+06
1.90211e+06
2.19408e+06
2.53622e+06
2.9394e+06
3.41936e+06
4.00027e+06
4.71741e+06
5.62493e+06
6.81219e+06
8.42321e+06
1.06845e+07
1.39508e+07
1.8793e+07
2.61775e+07
3.78461e+07
5.71849e+07
9.1408e+07
1.57834e+08
3.05419e+08
7.09641e+08
2.28229e+09
1.40147e+10
47277.9
49170.8
52607
57390.9
63420.6
70656.3
79102.1
88796.1
99805.3
112223
126171
141796
159279
178837
200726
225253
252780
283737
318647
358129
402891
453764
511742
578016
654017
741450
842343
959095
1.09453e+06
1.25196e+06
1.43526e+06
1.64892e+06
1.89824e+06
2.18959e+06
2.531e+06
2.93331e+06
3.41232e+06
3.9922e+06
4.70829e+06
5.61493e+06
6.80168e+06
8.41278e+06
1.06747e+07
1.39422e+07
1.87859e+07
2.61719e+07
3.7842e+07
5.71819e+07
9.14061e+07
1.57833e+08
3.05419e+08
7.09641e+08
2.28229e+09
1.40147e+10
47860
49726.8
53114.1
57827.9
63768.5
70899.1
79227.5
88796.2
99676.6
111966
125788
141293
158663
178113
199901
224331
251764
282627
317431
356797
401452
452229
510116
576299
652199
739516
840269
956851
1.09208e+06
1.24925e+06
1.43222e+06
1.64548e+06
1.89429e+06
2.18502e+06
2.52568e+06
2.92712e+06
3.40517e+06
3.98402e+06
4.69905e+06
5.6048e+06
6.79106e+06
8.40225e+06
1.06649e+07
1.39335e+07
1.87788e+07
2.61663e+07
3.78378e+07
5.7179e+07
9.14042e+07
1.57832e+08
3.05418e+08
7.09641e+08
2.28229e+09
1.40147e+10
48470.1
50313
53655
58302.8
64158
71185.8
79397.7
88840.2
99588.9
111745
125436
140814
158063
177399
199078
223405
250738
281503
316205
355455
399989
450655
508442
574527
650324
737523
838137
954549
1.08957e+06
1.24648e+06
1.42912e+06
1.64197e+06
1.89028e+06
2.18038e+06
2.52027e+06
2.92083e+06
3.39791e+06
3.97572e+06
4.6897e+06
5.59456e+06
6.78034e+06
8.39163e+06
1.0655e+07
1.39249e+07
1.87716e+07
2.61606e+07
3.78336e+07
5.71761e+07
9.14023e+07
1.57831e+08
3.05418e+08
7.09641e+08
2.28229e+09
1.40147e+10
49108.8
50930.2
54230.6
58816.7
64590.4
71518.5
79615.2
88931
99545.7
111565
125119
140364
157484
176698
198262
222478
249705
280367
314965
354099
398504
449049
506724
572704
648393
735471
835943
952184
1.08699e+06
1.24364e+06
1.42596e+06
1.63839e+06
1.88618e+06
2.17565e+06
2.51478e+06
2.91444e+06
3.39055e+06
3.96731e+06
4.68022e+06
5.5842e+06
6.76951e+06
8.38093e+06
1.0645e+07
1.39161e+07
1.87644e+07
2.6155e+07
3.78294e+07
5.71732e+07
9.14003e+07
1.5783e+08
3.05417e+08
7.0964e+08
2.28229e+09
1.40147e+10
49777.1
51579.2
54841.9
59370.7
65067
71898.8
79882.4
89071.6
99550.5
111429
124841
139945
156930
176014
197454
221553
248667
279219
313708
352730
397008
447416
504965
570828
646402
733357
833687
949757
1.08435e+06
1.24074e+06
1.42272e+06
1.63474e+06
1.88202e+06
2.17084e+06
2.5092e+06
2.90796e+06
3.38308e+06
3.95879e+06
4.67064e+06
5.57375e+06
6.7586e+06
8.37015e+06
1.0635e+07
1.39074e+07
1.87571e+07
2.61493e+07
3.78252e+07
5.71702e+07
9.13984e+07
1.57828e+08
3.05416e+08
7.0964e+08
2.28229e+09
1.40147e+10
50476
52261.1
55489.8
59965.7
65589.3
72328.3
80201.2
89264.6
99606.5
111341
124605
139564
156406
175352
196660
220633
247627
278062
312437
351344
395492
445755
503168
568904
644356
731183
831368
947265
1.08165e+06
1.23777e+06
1.41942e+06
1.63102e+06
1.87777e+06
2.16595e+06
2.50352e+06
2.90138e+06
3.37551e+06
3.95017e+06
4.66096e+06
5.56319e+06
6.7476e+06
8.35931e+06
1.0625e+07
1.38986e+07
1.87498e+07
2.61436e+07
3.7821e+07
5.71673e+07
9.13965e+07
1.57827e+08
3.05416e+08
7.0964e+08
2.28229e+09
1.40147e+10
51206.7
52977.1
56175.4
60603.1
66158.3
72808.6
80573.6
89512.5
99716.7
111304
124418
139223
155915
174715
195883
219723
246588
276899
311153
349937
393957
444077
501337
566933
642252
728945
828982
944705
1.07888e+06
1.23473e+06
1.41605e+06
1.62723e+06
1.87345e+06
2.16098e+06
2.49777e+06
2.89471e+06
3.36785e+06
3.94144e+06
4.65117e+06
5.55254e+06
6.73652e+06
8.34842e+06
1.06149e+07
1.38898e+07
1.87426e+07
2.61379e+07
3.78168e+07
5.71643e+07
9.13946e+07
1.57826e+08
3.05415e+08
7.0964e+08
2.28229e+09
1.40147e+10
51970.6
53728.4
56900.1
61283.8
66775.3
73341.1
81001.4
89817.5
99884
111323
124281
138928
155462
174108
195128
218825
245553
275733
309857
348514
392404
442375
499473
564916
640093
726644
826530
942077
1.07603e+06
1.23162e+06
1.41261e+06
1.62337e+06
1.86906e+06
2.15592e+06
2.49192e+06
2.88795e+06
3.36008e+06
3.93262e+06
4.64129e+06
5.5418e+06
6.72537e+06
8.33746e+06
1.06047e+07
1.38809e+07
1.87353e+07
2.61322e+07
3.78126e+07
5.71614e+07
9.13927e+07
1.57825e+08
3.05414e+08
7.09639e+08
2.28229e+09
1.40147e+10
52769.5
54516.7
57665.2
62009.2
67441.5
73927.1
81486.1
90181.6
100111
111400
124199
138683
155053
173537
194399
217943
244527
274565
308553
347076
390829
440648
497577
562856
637880
724282
824010
939378
1.07312e+06
1.22844e+06
1.40909e+06
1.61942e+06
1.86458e+06
2.15079e+06
2.48598e+06
2.88109e+06
3.35222e+06
3.9237e+06
4.63131e+06
5.53098e+06
6.71415e+06
8.32646e+06
1.05946e+07
1.38721e+07
1.8728e+07
2.61265e+07
3.78084e+07
5.71584e+07
9.13907e+07
1.57824e+08
3.05414e+08
7.09639e+08
2.28229e+09
1.40147e+10
53604.9
55343.6
58472
62780.5
68158.1
74567.8
82029.3
90606.8
100400
111538
124175
138491
154690
173005
193700
217084
243511
273400
307242
345621
389231
438901
495662
560759
635613
721854
821418
936604
1.07013e+06
1.22518e+06
1.40549e+06
1.6154e+06
1.86002e+06
2.14556e+06
2.47996e+06
2.87413e+06
3.34426e+06
3.91468e+06
4.62124e+06
5.52007e+06
6.70286e+06
8.31541e+06
1.05844e+07
1.38632e+07
1.87207e+07
2.61208e+07
3.78042e+07
5.71555e+07
9.13888e+07
1.57823e+08
3.05413e+08
7.09639e+08
2.28229e+09
1.40147e+10
54479
56210.9
59322.3
63599
68926.2
75264.3
82632.2
91094.7
100753
111740
124214
138358
154380
172516
193037
216249
242512
272241
305929
344156
387614
437131
493717
558621
633292
719363
818757
933756
1.06706e+06
1.22185e+06
1.40182e+06
1.6113e+06
1.85538e+06
2.14025e+06
2.47384e+06
2.86708e+06
3.3362e+06
3.90556e+06
4.61107e+06
5.50909e+06
6.69152e+06
8.30432e+06
1.05742e+07
1.38543e+07
1.87134e+07
2.61152e+07
3.77999e+07
5.71526e+07
9.13869e+07
1.57822e+08
3.05413e+08
7.09638e+08
2.28229e+09
1.40147e+10
55394
57120.8
60217.8
64466.2
69747
76017.8
83296
91646.7
101173
112009
124318
138286
154125
172077
192413
215446
241533
271093
304616
342683
385982
435337
491741
556443
630922
716812
816026
930833
1.06392e+06
1.21843e+06
1.39806e+06
1.60711e+06
1.85064e+06
2.13484e+06
2.46762e+06
2.85994e+06
3.32805e+06
3.89634e+06
4.60082e+06
5.49802e+06
6.6801e+06
8.29319e+06
1.05639e+07
1.38455e+07
1.87061e+07
2.61095e+07
3.77957e+07
5.71496e+07
9.1385e+07
1.5782e+08
3.05412e+08
7.09638e+08
2.28229e+09
1.40147e+10
56352.5
58075.4
61160.4
65383.7
70621.8
76829.2
84021.8
92264.3
101661
112347
124490
138279
153931
171691
191835
214677
240579
269959
303307
341203
384332
433517
489741
554241
628507
714197
813220
927828
1.06068e+06
1.21492e+06
1.39421e+06
1.60283e+06
1.84582e+06
2.12935e+06
2.46131e+06
2.85269e+06
3.31979e+06
3.88703e+06
4.59047e+06
5.48687e+06
6.66863e+06
8.28202e+06
1.05537e+07
1.38366e+07
1.86988e+07
2.61038e+07
3.77916e+07
5.71467e+07
9.13831e+07
1.57819e+08
3.05411e+08
7.09638e+08
2.28229e+09
1.40147e+10
57357.2
59077.1
62152
66352.9
71551.7
77699.7
84810.6
92948.5
102218
112757
124733
138341
153801
171363
191307
213950
239655
268844
302006
339720
382671
431676
487715
552007
626045
711520
810340
924741
1.05737e+06
1.21133e+06
1.39027e+06
1.59845e+06
1.8409e+06
2.12375e+06
2.4549e+06
2.84534e+06
3.31142e+06
3.87761e+06
4.58002e+06
5.47564e+06
6.6571e+06
8.27081e+06
1.05434e+07
1.38277e+07
1.86915e+07
2.60981e+07
3.77874e+07
5.71438e+07
9.13812e+07
1.57818e+08
3.05411e+08
7.09638e+08
2.28229e+09
1.40147e+10
58410.8
60128.4
63195
67375.8
72538.3
78630.2
85663.3
93700.4
102846
113239
125050
138475
153741
171099
190834
213268
238766
267753
300718
338240
381001
429817
485664
549737
623534
708782
807389
921575
1.05396e+06
1.20765e+06
1.38624e+06
1.59399e+06
1.83589e+06
2.11805e+06
2.44838e+06
2.83788e+06
3.30295e+06
3.86809e+06
4.56948e+06
5.46434e+06
6.64551e+06
8.25957e+06
1.05331e+07
1.38188e+07
1.86842e+07
2.60925e+07
3.77832e+07
5.71409e+07
9.13793e+07
1.57817e+08
3.0541e+08
7.09637e+08
2.28229e+09
1.40147e+10
59516.4
61232.3
64291.6
68454.1
73582.8
79621.9
86580.8
94520.9
103546
113796
125443
138685
153752
170901
190421
212637
237918
266691
299448
336765
379327
427944
483588
547434
620980
705987
804367
918327
1.05047e+06
1.20387e+06
1.38212e+06
1.58942e+06
1.83077e+06
2.11225e+06
2.44176e+06
2.83031e+06
3.29438e+06
3.85847e+06
4.55885e+06
5.45295e+06
6.63387e+06
8.24829e+06
1.05228e+07
1.38099e+07
1.8677e+07
2.60868e+07
3.7779e+07
5.7138e+07
9.13774e+07
1.57816e+08
3.0541e+08
7.09637e+08
2.28229e+09
1.40147e+10
60677
62391.6
65444.3
69590
74686.9
80675.9
87563.9
95410.9
104320
114430
125914
138973
153840
170776
190073
212062
237116
265664
298199
335300
377649
426054
481485
545107
618401
703143
801272
914991
1.04688e+06
1.19999e+06
1.37789e+06
1.58475e+06
1.82554e+06
2.10634e+06
2.43502e+06
2.82263e+06
3.28569e+06
3.84873e+06
4.54812e+06
5.44148e+06
6.62216e+06
8.23698e+06
1.05125e+07
1.3801e+07
1.86697e+07
2.60812e+07
3.77749e+07
5.71351e+07
9.13755e+07
1.57815e+08
3.05409e+08
7.09637e+08
2.28229e+09
1.40147e+10
61896.2
63609.5
66655.9
70785.5
75852.2
81793.3
88613.5
96371.1
105168
115142
126466
139343
154008
170726
189795
211549
236366
264677
296979
333850
375973
424155
479362
542753
615786
700244
798105
911570
1.0432e+06
1.19601e+06
1.37355e+06
1.57997e+06
1.82021e+06
2.10032e+06
2.42817e+06
2.81483e+06
3.27688e+06
3.83889e+06
4.53729e+06
5.42993e+06
6.61039e+06
8.22563e+06
1.05022e+07
1.37921e+07
1.86624e+07
2.60755e+07
3.77707e+07
5.71322e+07
9.13737e+07
1.57814e+08
3.05409e+08
7.09637e+08
2.28229e+09
1.40147e+10
63177.6
64889.3
67929.2
72043.1
77080.5
82975.5
89730.6
97402.3
106091
115933
127100
139796
154258
170756
189591
211102
235672
263735
295791
332421
374306
422253
477223
540372
613132
697290
794868
908065
1.03942e+06
1.19193e+06
1.36911e+06
1.57508e+06
1.81476e+06
2.09418e+06
2.4212e+06
2.80691e+06
3.26796e+06
3.82894e+06
4.52635e+06
5.4183e+06
6.59857e+06
8.21424e+06
1.04918e+07
1.37832e+07
1.86552e+07
2.60699e+07
3.77666e+07
5.71293e+07
9.13718e+07
1.57812e+08
3.05408e+08
7.09636e+08
2.28229e+09
1.40147e+10
64524.9
66234.6
69267.4
73365.3
78373.7
84223.9
90916.1
98505.2
107089
116804
127818
140335
154596
170870
189466
210727
235040
262845
294643
331018
372651
420350
475071
537968
610442
694285
791564
904479
1.03555e+06
1.18775e+06
1.36456e+06
1.57008e+06
1.80919e+06
2.08791e+06
2.41411e+06
2.79887e+06
3.25891e+06
3.81887e+06
4.51532e+06
5.40658e+06
6.58668e+06
8.20282e+06
1.04814e+07
1.37743e+07
1.86479e+07
2.60643e+07
3.77625e+07
5.71265e+07
9.13699e+07
1.57811e+08
3.05407e+08
7.09636e+08
2.28229e+09
1.40147e+10
65942.3
67649
70673.7
74754.7
79734.2
85540.2
92171.2
99680.6
108165
117756
128622
140963
155022
171072
189425
210429
234477
262011
293539
329645
371014
418449
472909
535540
607722
691241
788200
900812
1.03159e+06
1.18346e+06
1.3599e+06
1.56496e+06
1.80351e+06
2.08153e+06
2.40689e+06
2.7907e+06
3.24974e+06
3.80868e+06
4.50417e+06
5.39477e+06
6.57473e+06
8.19136e+06
1.04711e+07
1.37654e+07
1.86407e+07
2.60587e+07
3.77583e+07
5.71236e+07
9.13681e+07
1.5781e+08
3.05407e+08
7.09636e+08
2.28229e+09
1.40147e+10
67433.9
69136.5
72151.6
76214.4
81164.2
86926.2
93497.1
100929
109318
118792
129513
141682
155540
171365
189471
210212
233986
261240
292485
328309
369397
416555
470738
533088
604980
688175
784782
897062
1.02752e+06
1.17906e+06
1.35511e+06
1.55971e+06
1.79769e+06
2.07501e+06
2.39954e+06
2.7824e+06
3.24044e+06
3.79837e+06
4.49292e+06
5.38288e+06
6.56271e+06
8.17986e+06
1.04607e+07
1.37565e+07
1.86334e+07
2.60531e+07
3.77542e+07
5.71208e+07
9.13662e+07
1.57809e+08
3.05406e+08
7.09636e+08
2.28229e+09
1.40147e+10
69004.1
70701.3
73704.7
77747.5
82666.3
88383.9
94895.3
102252
110549
119910
130493
142494
156153
171751
189608
210081
233573
260536
291486
327015
367809
414675
468566
530622
602214
685068
781304
893232
1.02335e+06
1.17455e+06
1.35021e+06
1.55434e+06
1.79174e+06
2.06836e+06
2.39205e+06
2.77396e+06
3.231e+06
3.78793e+06
4.48155e+06
5.37089e+06
6.55063e+06
8.16832e+06
1.04502e+07
1.37476e+07
1.86262e+07
2.60475e+07
3.77501e+07
5.71179e+07
9.13644e+07
1.57808e+08
3.05406e+08
7.09635e+08
2.28229e+09
1.40147e+10
70657.7
72347.7
75336.9
79357.4
84243.4
89915.7
96367.5
103651
111859
121113
131563
143400
156862
172234
189839
210039
233242
259906
290549
325769
366255
412814
466400
528148
599423
681921
777766
889324
1.01909e+06
1.16993e+06
1.34519e+06
1.54885e+06
1.78567e+06
2.06158e+06
2.38442e+06
2.76538e+06
3.22143e+06
3.77737e+06
4.47008e+06
5.35881e+06
6.53849e+06
8.15675e+06
1.04398e+07
1.37386e+07
1.86189e+07
2.60419e+07
3.7746e+07
5.71151e+07
9.13625e+07
1.57807e+08
3.05405e+08
7.09635e+08
2.28229e+09
1.40147e+10
72399.5
74080.3
77052.3
81047.5
85898.6
91524.2
97915.9
105126
113248
122402
132725
144402
157670
172816
190167
210091
232999
259353
289680
324578
364741
410979
464243
525669
596613
678739
774176
885345
1.01474e+06
1.16521e+06
1.34006e+06
1.54323e+06
1.77946e+06
2.05466e+06
2.37666e+06
2.75666e+06
3.21173e+06
3.76667e+06
4.45848e+06
5.34664e+06
6.52628e+06
8.14513e+06
1.04294e+07
1.37297e+07
1.86117e+07
2.60363e+07
3.77419e+07
5.71122e+07
9.13607e+07
1.57806e+08
3.05404e+08
7.09635e+08
2.28229e+09
1.40147e+10
74234.5
75903.7
78855.3
82821.8
87635.2
93212.3
99542.8
106679
114719
123777
133981
145502
158578
173499
190596
210240
232846
258884
288883
323447
363273
409173
462100
523187
593787
675531
770546
881302
1.01031e+06
1.16038e+06
1.3348e+06
1.53748e+06
1.77311e+06
2.04759e+06
2.36874e+06
2.7478e+06
3.20188e+06
3.75585e+06
4.44677e+06
5.33438e+06
6.514e+06
8.13348e+06
1.04189e+07
1.37208e+07
1.86045e+07
2.60308e+07
3.77379e+07
5.71094e+07
9.13588e+07
1.57805e+08
3.05404e+08
7.09635e+08
2.28229e+09
1.40147e+10
76167.9
77823.1
80750.2
84684.1
89456.8
94983.2
101251
108314
116275
125242
135330
146701
159587
174284
191126
210488
232789
258503
288164
322381
361856
407402
459974
520703
590940
672308
766903
877206
1.00578e+06
1.15543e+06
1.32942e+06
1.53159e+06
1.76663e+06
2.04038e+06
2.36068e+06
2.73879e+06
3.19188e+06
3.74488e+06
4.43495e+06
5.32202e+06
6.50165e+06
8.12179e+06
1.04084e+07
1.37119e+07
1.85973e+07
2.60252e+07
3.77338e+07
5.71066e+07
9.1357e+07
1.57804e+08
3.05403e+08
7.09634e+08
2.28229e+09
1.40147e+10
78205.3
79843.5
82742
86638.9
91367.2
96840.4
103044
110036
117922
126797
136772
147998
160699
175173
191761
210839
232831
258214
287528
321387
360496
405673
457874
518230
588088
669066
763222
873047
1.00117e+06
1.15038e+06
1.32391e+06
1.52557e+06
1.76e+06
2.03302e+06
2.35247e+06
2.72962e+06
3.18174e+06
3.73379e+06
4.423e+06
5.30956e+06
6.48924e+06
8.11005e+06
1.03979e+07
1.3703e+07
1.85901e+07
2.60197e+07
3.77297e+07
5.71038e+07
9.13552e+07
1.57803e+08
3.05403e+08
7.09634e+08
2.28229e+09
1.40147e+10
80352.1
81970.3
84835.5
88690.6
93370.5
98787.9
104926
111850
119661
128444
138303
149389
161913
176167
192502
211296
232976
258023
286981
320471
359202
403994
455808
515774
585236
665806
759503
868828
996471
1.14523e+06
1.31828e+06
1.51942e+06
1.75324e+06
2.02553e+06
2.34412e+06
2.72032e+06
3.17146e+06
3.72256e+06
4.41094e+06
5.29701e+06
6.47677e+06
8.09829e+06
1.03874e+07
1.36941e+07
1.85829e+07
2.60141e+07
3.77257e+07
5.7101e+07
9.13534e+07
1.57802e+08
3.05402e+08
7.09634e+08
2.28229e+09
1.40147e+10
82614.4
84209.3
87036.1
90843.9
95470.9
100830
106902
113759
121495
130182
139925
150873
163227
177267
193351
211861
233226
257933
286529
319639
357978
402372
453782
513340
582388
662532
755751
864552
991696
1.13997e+06
1.31255e+06
1.51315e+06
1.74634e+06
2.0179e+06
2.33564e+06
2.71089e+06
3.16106e+06
3.71122e+06
4.39877e+06
5.28438e+06
6.46423e+06
8.08648e+06
1.03768e+07
1.36851e+07
1.85757e+07
2.60086e+07
3.77216e+07
5.70982e+07
9.13516e+07
1.578e+08
3.05402e+08
7.09634e+08
2.28229e+09
1.40147e+10
84998.2
86566.2
89349.1
93103.9
97673
102970
108975
115766
123423
132012
141637
152448
164638
178476
194309
212536
233587
257949
286176
318898
356833
400812
451802
510934
579550
659250
751973
860231
986849
1.13462e+06
1.30669e+06
1.50674e+06
1.7393e+06
2.01013e+06
2.32704e+06
2.70138e+06
3.15061e+06
3.69979e+06
4.3865e+06
5.27166e+06
6.45162e+06
8.07462e+06
1.03663e+07
1.36762e+07
1.85685e+07
2.60031e+07
3.77176e+07
5.70954e+07
9.13497e+07
1.57799e+08
3.05401e+08
7.09633e+08
2.28229e+09
1.40147e+10
87509.7
89047.1
91780.3
95475.7
99981.6
105213
111151
117873
125447
133935
143442
154115
166147
179789
195379
213325
234061
258076
285929
318252
355772
399322
449874
508561
576724
655961
748184
855889
981943
1.12918e+06
1.3007e+06
1.50019e+06
1.73212e+06
2.00222e+06
2.3183e+06
2.69177e+06
3.14005e+06
3.68825e+06
4.37413e+06
5.25884e+06
6.43895e+06
8.06273e+06
1.03557e+07
1.36672e+07
1.85613e+07
2.59975e+07
3.77136e+07
5.70926e+07
9.13479e+07
1.57798e+08
3.054e+08
7.09633e+08
2.28229e+09
1.40147e+10
90155.5
91658.4
94335.7
97964.9
102401
107563
113434
120082
127569
135954
145341
155877
167753
181206
196562
214229
234651
258318
285791