/*--------------------------------*- C++ -*----------------------------------*\
  =========                 |
  \\      /  F ield         | OpenFOAM: The Open Source CFD Toolbox
   \\    /   O peration     | Website:  https://openfoam.org
    \\  /    A nd           | Version:  7
     \\/     M anipulation  |
\*---------------------------------------------------------------------------*/
FoamFile
{
    version     2.0;
    format      ascii;
    class       volScalarField;
    location    "1540";
    object      p;
}
// * * * * * * * * * * * * * * * * * * * * * * * * * * * * * * * * * * * * * //

dimensions      [0 2 -2 0 0 0 0];

internalField   nonuniform List<scalar> 
8748
(
7.90581e-13
1.11561e-12
1.11524e-12
1.1282e-12
1.1388e-12
1.14474e-12
1.15474e-12
1.16544e-12
1.17649e-12
1.18384e-12
1.18617e-12
1.1907e-12
1.19328e-12
1.19401e-12
1.19596e-12
1.19724e-12
1.19804e-12
1.19915e-12
1.20009e-12
1.19589e-12
1.19123e-12
1.1932e-12
1.19371e-12
1.19279e-12
1.19154e-12
1.19033e-12
1.18875e-12
1.18739e-12
1.1859e-12
1.18434e-12
1.18271e-12
1.18103e-12
1.17946e-12
1.17805e-12
1.17679e-12
1.17568e-12
1.17456e-12
1.17345e-12
1.17246e-12
1.17158e-12
1.17076e-12
1.16997e-12
1.16924e-12
1.16858e-12
1.16799e-12
1.16747e-12
1.16703e-12
1.1667e-12
1.16645e-12
1.16627e-12
1.1662e-12
1.16613e-12
1.166e-12
1.16586e-12
1.11813e-12
1.14902e-12
1.15459e-12
1.1532e-12
1.14897e-12
1.15514e-12
1.16837e-12
1.17234e-12
1.17074e-12
1.19854e-12
1.20381e-12
1.2054e-12
1.21126e-12
1.20672e-12
1.20559e-12
1.2048e-12
1.2039e-12
1.20298e-12
1.20266e-12
1.19861e-12
1.19417e-12
1.19147e-12
1.19675e-12
1.19663e-12
1.19259e-12
1.18998e-12
1.19027e-12
1.18981e-12
1.18863e-12
1.18736e-12
1.18603e-12
1.18482e-12
1.18284e-12
1.18202e-12
1.18147e-12
1.18023e-12
1.1792e-12
1.17841e-12
1.17775e-12
1.17722e-12
1.17664e-12
1.17619e-12
1.1759e-12
1.1757e-12
1.17542e-12
1.17523e-12
1.17502e-12
1.17482e-12
1.17461e-12
1.17439e-12
1.17413e-12
1.17399e-12
1.17393e-12
1.17395e-12
1.13105e-12
1.13847e-12
1.14085e-12
1.14298e-12
1.15309e-12
1.16547e-12
1.18028e-12
1.19322e-12
1.20201e-12
1.20582e-12
1.20088e-12
1.21095e-12
1.21242e-12
1.21346e-12
1.21367e-12
1.21354e-12
1.2133e-12
1.21327e-12
1.21324e-12
1.21319e-12
1.21312e-12
1.21314e-12
1.21321e-12
1.2127e-12
1.21213e-12
1.21415e-12
1.21567e-12
1.21603e-12
1.21559e-12
1.21674e-12
1.21701e-12
1.21754e-12
1.21756e-12
1.21713e-12
1.21714e-12
1.21695e-12
1.21655e-12
1.21608e-12
1.21561e-12
1.21512e-12
1.21452e-12
1.21406e-12
1.21352e-12
1.21298e-12
1.21232e-12
1.21173e-12
1.21123e-12
1.21075e-12
1.21038e-12
1.21011e-12
1.20993e-12
1.20976e-12
1.20956e-12
1.20937e-12
1.13816e-12
1.14817e-12
1.1612e-12
1.16102e-12
1.16813e-12
1.18175e-12
1.19297e-12
1.20536e-12
1.20989e-12
1.20628e-12
1.22096e-12
1.22251e-12
1.21753e-12
1.22423e-12
1.22632e-12
1.22315e-12
1.21903e-12
1.22235e-12
1.22481e-12
1.227e-12
1.22847e-12
1.23014e-12
1.23282e-12
1.22986e-12
1.22787e-12
1.22732e-12
1.22638e-12
1.22467e-12
1.22226e-12
1.22162e-12
1.2204e-12
1.22027e-12
1.21925e-12
1.21849e-12
1.21788e-12
1.21739e-12
1.21709e-12
1.21701e-12
1.21699e-12
1.21728e-12
1.21762e-12
1.21797e-12
1.2184e-12
1.21887e-12
1.21926e-12
1.21966e-12
1.22005e-12
1.22037e-12
1.22057e-12
1.22069e-12
1.22076e-12
1.22085e-12
1.22096e-12
1.22107e-12
1.15474e-12
1.15962e-12
1.1673e-12
1.19143e-12
1.19344e-12
1.20204e-12
1.21194e-12
1.21714e-12
1.22013e-12
1.22219e-12
1.24006e-12
1.23797e-12
1.23833e-12
1.23924e-12
1.24126e-12
1.24412e-12
1.24831e-12
1.24658e-12
1.24251e-12
1.24303e-12
1.24417e-12
1.24531e-12
1.24648e-12
1.25057e-12
1.24951e-12
1.24804e-12
1.24675e-12
1.24838e-12
1.24995e-12
1.24893e-12
1.2483e-12
1.2483e-12
1.2488e-12
1.24914e-12
1.24926e-12
1.24914e-12
1.24971e-12
1.25014e-12
1.2502e-12
1.25032e-12
1.25046e-12
1.25057e-12
1.25075e-12
1.25089e-12
1.25112e-12
1.25122e-12
1.25131e-12
1.25142e-12
1.25147e-12
1.25152e-12
1.25158e-12
1.25163e-12
1.25166e-12
1.25167e-12
1.17365e-12
1.18305e-12
1.17346e-12
1.19496e-12
1.20868e-12
1.21877e-12
1.24234e-12
1.23513e-12
1.23324e-12
1.23477e-12
1.22963e-12
1.23692e-12
1.23435e-12
1.24259e-12
1.24625e-12
1.24876e-12
1.25118e-12
1.25357e-12
1.25606e-12
1.25411e-12
1.25427e-12
1.2548e-12
1.25521e-12
1.25552e-12
1.25574e-12
1.25586e-12
1.25592e-12
1.25592e-12
1.25588e-12
1.25579e-12
1.25591e-12
1.25626e-12
1.25697e-12
1.2566e-12
1.2564e-12
1.25727e-12
1.25799e-12
1.2578e-12
1.25778e-12
1.25792e-12
1.2581e-12
1.25808e-12
1.25807e-12
1.25808e-12
1.2581e-12
1.25809e-12
1.25808e-12
1.25809e-12
1.25805e-12
1.25802e-12
1.25801e-12
1.25801e-12
1.25801e-12
1.25802e-12
1.20459e-12
1.22281e-12
1.21907e-12
1.22169e-12
1.24324e-12
1.23385e-12
1.23904e-12
1.23837e-12
1.23417e-12
1.24589e-12
1.25075e-12
1.25172e-12
1.25442e-12
1.25568e-12
1.25466e-12
1.25312e-12
1.25833e-12
1.26331e-12
1.26877e-12
1.26548e-12
1.26527e-12
1.26869e-12
1.26731e-12
1.26565e-12
1.26735e-12
1.26847e-12
1.26855e-12
1.26867e-12
1.2689e-12
1.26917e-12
1.26889e-12
1.2697e-12
1.27029e-12
1.27084e-12
1.27143e-12
1.27209e-12
1.27215e-12
1.27233e-12
1.27263e-12
1.27285e-12
1.273e-12
1.27331e-12
1.27357e-12
1.27373e-12
1.27388e-12
1.27396e-12
1.27402e-12
1.27405e-12
1.27399e-12
1.27392e-12
1.27389e-12
1.27385e-12
1.27381e-12
1.27379e-12
1.22299e-12
1.22911e-12
1.21082e-12
1.23692e-12
1.24301e-12
1.24572e-12
1.24888e-12
1.25123e-12
1.25343e-12
1.25494e-12
1.25587e-12
1.25622e-12
1.25772e-12
1.25918e-12
1.26086e-12
1.26329e-12
1.26833e-12
1.26387e-12
1.26317e-12
1.26303e-12
1.26355e-12
1.26349e-12
1.26335e-12
1.26598e-12
1.26709e-12
1.27046e-12
1.27063e-12
1.27084e-12
1.2712e-12
1.27154e-12
1.27162e-12
1.27123e-12
1.27004e-12
1.26974e-12
1.26914e-12
1.26828e-12
1.26739e-12
1.2665e-12
1.2657e-12
1.2649e-12
1.26418e-12
1.26345e-12
1.2627e-12
1.26194e-12
1.26116e-12
1.26033e-12
1.25946e-12
1.25853e-12
1.25765e-12
1.25678e-12
1.2559e-12
1.25522e-12
1.25476e-12
1.25453e-12
1.23924e-12
1.26941e-12
1.23083e-12
1.20963e-12
1.24737e-12
1.27514e-12
1.26696e-12
1.2718e-12
1.27423e-12
1.26568e-12
1.26335e-12
1.26178e-12
1.26099e-12
1.26029e-12
1.25951e-12
1.25861e-12
1.25739e-12
1.25594e-12
1.25905e-12
1.25483e-12
1.2529e-12
1.25122e-12
1.24966e-12
1.24791e-12
1.24554e-12
1.24584e-12
1.24531e-12
1.24376e-12
1.2424e-12
1.24324e-12
1.24357e-12
1.24333e-12
1.24259e-12
1.24306e-12
1.24341e-12
1.24375e-12
1.24336e-12
1.24303e-12
1.24311e-12
1.24341e-12
1.24359e-12
1.24374e-12
1.24397e-12
1.24431e-12
1.24465e-12
1.24514e-12
1.24566e-12
1.24629e-12
1.24699e-12
1.24771e-12
1.24847e-12
1.24905e-12
1.24944e-12
1.24963e-12
1.24694e-12
1.24508e-12
1.24657e-12
1.25233e-12
1.26305e-12
1.27033e-12
1.27093e-12
1.2721e-12
1.27182e-12
1.2697e-12
1.26761e-12
1.26564e-12
1.26369e-12
1.26169e-12
1.25945e-12
1.25706e-12
1.25446e-12
1.25218e-12
1.24501e-12
1.24216e-12
1.24361e-12
1.23818e-12
1.23519e-12
1.23445e-12
1.23336e-12
1.23283e-12
1.23161e-12
1.22996e-12
1.22807e-12
1.22588e-12
1.22315e-12
1.22013e-12
1.21669e-12
1.21307e-12
1.2101e-12
1.20615e-12
1.2021e-12
1.19819e-12
1.19425e-12
1.19039e-12
1.18652e-12
1.18264e-12
1.17864e-12
1.17448e-12
1.17008e-12
1.16548e-12
1.16071e-12
1.15586e-12
1.15113e-12
1.14665e-12
1.14256e-12
1.13915e-12
1.13667e-12
1.13507e-12
1.26328e-12
1.27674e-12
1.26895e-12
1.28916e-12
1.28011e-12
1.27747e-12
1.27618e-12
1.27562e-12
1.27477e-12
1.27339e-12
1.27152e-12
1.26927e-12
1.26693e-12
1.26422e-12
1.26113e-12
1.25744e-12
1.25313e-12
1.24775e-12
1.24447e-12
1.24084e-12
1.23697e-12
1.23235e-12
1.23012e-12
1.22733e-12
1.22373e-12
1.21929e-12
1.21425e-12
1.21213e-12
1.20925e-12
1.20618e-12
1.2031e-12
1.20016e-12
1.19767e-12
1.19414e-12
1.1912e-12
1.18879e-12
1.18657e-12
1.18402e-12
1.18163e-12
1.17938e-12
1.17727e-12
1.17516e-12
1.17316e-12
1.17119e-12
1.16937e-12
1.16769e-12
1.16624e-12
1.16506e-12
1.1641e-12
1.16346e-12
1.16305e-12
1.16278e-12
1.16248e-12
1.16214e-12
1.27831e-12
1.28365e-12
1.28176e-12
1.29012e-12
1.28909e-12
1.28482e-12
1.28012e-12
1.27971e-12
1.27897e-12
1.27868e-12
1.27658e-12
1.27339e-12
1.27183e-12
1.26953e-12
1.26709e-12
1.26495e-12
1.26386e-12
1.25864e-12
1.25015e-12
1.24593e-12
1.24213e-12
1.23868e-12
1.23455e-12
1.23066e-12
1.22705e-12
1.2234e-12
1.21988e-12
1.21636e-12
1.2129e-12
1.20953e-12
1.20638e-12
1.2022e-12
1.19855e-12
1.19525e-12
1.19209e-12
1.18893e-12
1.18652e-12
1.1842e-12
1.18216e-12
1.18037e-12
1.1789e-12
1.17768e-12
1.17664e-12
1.17575e-12
1.17504e-12
1.17446e-12
1.174e-12
1.17363e-12
1.17335e-12
1.17321e-12
1.17324e-12
1.17319e-12
1.17306e-12
1.17285e-12
1.29744e-12
1.29978e-12
1.29968e-12
1.30234e-12
1.30417e-12
1.29292e-12
1.27724e-12
1.28438e-12
1.28199e-12
1.28913e-12
1.29739e-12
1.28585e-12
1.2809e-12
1.27599e-12
1.27035e-12
1.26322e-12
1.25406e-12
1.25554e-12
1.25716e-12
1.24738e-12
1.24087e-12
1.23642e-12
1.23331e-12
1.2299e-12
1.22616e-12
1.22681e-12
1.22695e-12
1.22737e-12
1.22655e-12
1.22525e-12
1.22485e-12
1.22472e-12
1.22457e-12
1.22434e-12
1.22442e-12
1.22409e-12
1.22394e-12
1.22394e-12
1.22402e-12
1.22408e-12
1.2241e-12
1.22412e-12
1.22443e-12
1.22484e-12
1.22538e-12
1.22605e-12
1.22693e-12
1.22807e-12
1.22946e-12
1.23101e-12
1.23235e-12
1.23364e-12
1.23447e-12
1.23485e-12
1.31513e-12
1.31735e-12
1.31539e-12
1.31791e-12
1.33523e-12
1.30751e-12
1.29669e-12
1.30645e-12
1.31317e-12
1.29614e-12
1.29426e-12
1.29301e-12
1.29057e-12
1.28749e-12
1.28395e-12
1.28016e-12
1.27622e-12
1.27579e-12
1.26736e-12
1.25958e-12
1.25806e-12
1.2589e-12
1.25645e-12
1.25546e-12
1.25592e-12
1.25696e-12
1.25834e-12
1.25652e-12
1.25398e-12
1.25389e-12
1.25348e-12
1.25283e-12
1.25216e-12
1.25162e-12
1.25135e-12
1.25081e-12
1.25022e-12
1.24992e-12
1.24977e-12
1.24948e-12
1.24935e-12
1.2491e-12
1.24893e-12
1.24887e-12
1.24887e-12
1.24886e-12
1.24899e-12
1.24933e-12
1.24973e-12
1.25e-12
1.2504e-12
1.25044e-12
1.25043e-12
1.25038e-12
1.33163e-12
1.33702e-12
1.32823e-12
1.32224e-12
1.32603e-12
1.3216e-12
1.32153e-12
1.31287e-12
1.31388e-12
1.30914e-12
1.30525e-12
1.30437e-12
1.30318e-12
1.30129e-12
1.29927e-12
1.29785e-12
1.29587e-12
1.29468e-12
1.29841e-12
1.29195e-12
1.28929e-12
1.28776e-12
1.28724e-12
1.28664e-12
1.2861e-12
1.28563e-12
1.28514e-12
1.28467e-12
1.28451e-12
1.28301e-12
1.28176e-12
1.28075e-12
1.27967e-12
1.27863e-12
1.2776e-12
1.27661e-12
1.2756e-12
1.27462e-12
1.2742e-12
1.2735e-12
1.27292e-12
1.27221e-12
1.27162e-12
1.2711e-12
1.27049e-12
1.2699e-12
1.26932e-12
1.26881e-12
1.26827e-12
1.26807e-12
1.26781e-12
1.26789e-12
1.26784e-12
1.26767e-12
1.34778e-12
1.36719e-12
1.33943e-12
1.31925e-12
1.32436e-12
1.33161e-12
1.33106e-12
1.32922e-12
1.32596e-12
1.32026e-12
1.30756e-12
1.31654e-12
1.31865e-12
1.3154e-12
1.31084e-12
1.31914e-12
1.32784e-12
1.32693e-12
1.31971e-12
1.31799e-12
1.31928e-12
1.3165e-12
1.31494e-12
1.31378e-12
1.3128e-12
1.31205e-12
1.31133e-12
1.31014e-12
1.30852e-12
1.30861e-12
1.30835e-12
1.30811e-12
1.30796e-12
1.30787e-12
1.3076e-12
1.30721e-12
1.3072e-12
1.30726e-12
1.30688e-12
1.30653e-12
1.30632e-12
1.30595e-12
1.30571e-12
1.30564e-12
1.30571e-12
1.30593e-12
1.3063e-12
1.30676e-12
1.30732e-12
1.30758e-12
1.30796e-12
1.30787e-12
1.30785e-12
1.30787e-12
1.35746e-12
1.36528e-12
1.36772e-12
1.35313e-12
1.3473e-12
1.34945e-12
1.36095e-12
1.34771e-12
1.34284e-12
1.34069e-12
1.33759e-12
1.33649e-12
1.33613e-12
1.33565e-12
1.33566e-12
1.33689e-12
1.33792e-12
1.33781e-12
1.33727e-12
1.33695e-12
1.33643e-12
1.33559e-12
1.33457e-12
1.33335e-12
1.33195e-12
1.33544e-12
1.33514e-12
1.33481e-12
1.33488e-12
1.33492e-12
1.33446e-12
1.3334e-12
1.33382e-12
1.33389e-12
1.33326e-12
1.33274e-12
1.33237e-12
1.33196e-12
1.33153e-12
1.33116e-12
1.3308e-12
1.33062e-12
1.33051e-12
1.3305e-12
1.33058e-12
1.3308e-12
1.33108e-12
1.33148e-12
1.33171e-12
1.33207e-12
1.33209e-12
1.33232e-12
1.33249e-12
1.33258e-12
1.36622e-12
1.3679e-12
1.36049e-12
1.38242e-12
1.36367e-12
1.36316e-12
1.37438e-12
1.36168e-12
1.3562e-12
1.35639e-12
1.35442e-12
1.35387e-12
1.35358e-12
1.3533e-12
1.35302e-12
1.35546e-12
1.36208e-12
1.35946e-12
1.35868e-12
1.35832e-12
1.35817e-12
1.35811e-12
1.35827e-12
1.35864e-12
1.35874e-12
1.35858e-12
1.35843e-12
1.35966e-12
1.3602e-12
1.36015e-12
1.35968e-12
1.35927e-12
1.35894e-12
1.35866e-12
1.3579e-12
1.35721e-12
1.35658e-12
1.35592e-12
1.35522e-12
1.35454e-12
1.35389e-12
1.35326e-12
1.35264e-12
1.35207e-12
1.35154e-12
1.351e-12
1.35047e-12
1.3499e-12
1.34959e-12
1.34909e-12
1.34897e-12
1.34854e-12
1.34823e-12
1.34803e-12
1.37432e-12
1.37446e-12
1.36836e-12
1.37388e-12
1.37174e-12
1.3743e-12
1.37922e-12
1.37368e-12
1.37093e-12
1.36959e-12
1.36772e-12
1.37021e-12
1.3706e-12
1.37058e-12
1.37069e-12
1.37124e-12
1.37227e-12
1.37356e-12
1.3749e-12
1.37617e-12
1.37766e-12
1.3753e-12
1.37622e-12
1.37828e-12
1.3794e-12
1.3806e-12
1.38043e-12
1.37941e-12
1.37931e-12
1.37944e-12
1.37952e-12
1.37956e-12
1.37955e-12
1.37952e-12
1.37947e-12
1.3794e-12
1.37933e-12
1.37935e-12
1.3795e-12
1.37945e-12
1.37956e-12
1.37982e-12
1.38018e-12
1.38065e-12
1.38122e-12
1.38193e-12
1.3827e-12
1.38348e-12
1.38401e-12
1.38466e-12
1.38488e-12
1.38535e-12
1.38572e-12
1.38599e-12
1.38239e-12
1.38401e-12
1.40479e-12
1.39209e-12
1.38119e-12
1.38895e-12
1.40491e-12
1.38956e-12
1.38208e-12
1.38379e-12
1.38631e-12
1.39184e-12
1.38862e-12
1.38703e-12
1.38572e-12
1.38389e-12
1.38019e-12
1.38665e-12
1.39121e-12
1.39057e-12
1.39472e-12
1.39595e-12
1.40175e-12
1.40164e-12
1.40156e-12
1.40211e-12
1.40312e-12
1.40254e-12
1.40216e-12
1.40169e-12
1.40099e-12
1.40154e-12
1.4017e-12
1.40144e-12
1.40141e-12
1.40168e-12
1.40137e-12
1.401e-12
1.40095e-12
1.40107e-12
1.40128e-12
1.40162e-12
1.40209e-12
1.40265e-12
1.40336e-12
1.40416e-12
1.40508e-12
1.40576e-12
1.40653e-12
1.40676e-12
1.40716e-12
1.40711e-12
1.40713e-12
1.40723e-12
1.38995e-12
1.39099e-12
1.39452e-12
1.39135e-12
1.37834e-12
1.39604e-12
1.40584e-12
1.39675e-12
1.39634e-12
1.39713e-12
1.39794e-12
1.40042e-12
1.40151e-12
1.40227e-12
1.40299e-12
1.40385e-12
1.40507e-12
1.40654e-12
1.40754e-12
1.40644e-12
1.41239e-12
1.41732e-12
1.42144e-12
1.4206e-12
1.42112e-12
1.42275e-12
1.42439e-12
1.42565e-12
1.42505e-12
1.42484e-12
1.42497e-12
1.42531e-12
1.42557e-12
1.42499e-12
1.42443e-12
1.42403e-12
1.42348e-12
1.42326e-12
1.42341e-12
1.42352e-12
1.42351e-12
1.42358e-12
1.42384e-12
1.42412e-12
1.42442e-12
1.42476e-12
1.42511e-12
1.42573e-12
1.42623e-12
1.42709e-12
1.42756e-12
1.4282e-12
1.42861e-12
1.42877e-12
1.39734e-12
1.40335e-12
1.38704e-12
1.39631e-12
1.39751e-12
1.40861e-12
1.42416e-12
1.40883e-12
1.40898e-12
1.4102e-12
1.40597e-12
1.41201e-12
1.41501e-12
1.41724e-12
1.4192e-12
1.42134e-12
1.42426e-12
1.42506e-12
1.42347e-12
1.42821e-12
1.43257e-12
1.43723e-12
1.43803e-12
1.44019e-12
1.44245e-12
1.44469e-12
1.44602e-12
1.44647e-12
1.44853e-12
1.44963e-12
1.45025e-12
1.45082e-12
1.45133e-12
1.45105e-12
1.45118e-12
1.45099e-12
1.45125e-12
1.45182e-12
1.45219e-12
1.4525e-12
1.45291e-12
1.45341e-12
1.45406e-12
1.45482e-12
1.45576e-12
1.45678e-12
1.45788e-12
1.45869e-12
1.45957e-12
1.45978e-12
1.46019e-12
1.46014e-12
1.46024e-12
1.4605e-12
1.40911e-12
1.43983e-12
1.39598e-12
1.40487e-12
1.41081e-12
1.41704e-12
1.42235e-12
1.41916e-12
1.42097e-12
1.43161e-12
1.43418e-12
1.42986e-12
1.43003e-12
1.43264e-12
1.43405e-12
1.43446e-12
1.44575e-12
1.4493e-12
1.45466e-12
1.45309e-12
1.45352e-12
1.45536e-12
1.45516e-12
1.45918e-12
1.46173e-12
1.46426e-12
1.46438e-12
1.46496e-12
1.46592e-12
1.46684e-12
1.46769e-12
1.4685e-12
1.46923e-12
1.46994e-12
1.4706e-12
1.47125e-12
1.47189e-12
1.47263e-12
1.47342e-12
1.47407e-12
1.47483e-12
1.47576e-12
1.47661e-12
1.47764e-12
1.47872e-12
1.47993e-12
1.48094e-12
1.48195e-12
1.4825e-12
1.48321e-12
1.48351e-12
1.48402e-12
1.48448e-12
1.48488e-12
1.41822e-12
1.44788e-12
1.41345e-12
1.41479e-12
1.42347e-12
1.42603e-12
1.42724e-12
1.42528e-12
1.4305e-12
1.43578e-12
1.43864e-12
1.43817e-12
1.43852e-12
1.44607e-12
1.45092e-12
1.45339e-12
1.45699e-12
1.46023e-12
1.46941e-12
1.46919e-12
1.46977e-12
1.47204e-12
1.47441e-12
1.47708e-12
1.47945e-12
1.48296e-12
1.48253e-12
1.48297e-12
1.48387e-12
1.48515e-12
1.48643e-12
1.48762e-12
1.48853e-12
1.48925e-12
1.48997e-12
1.49084e-12
1.49182e-12
1.49236e-12
1.49298e-12
1.49365e-12
1.49423e-12
1.49492e-12
1.49555e-12
1.49614e-12
1.49672e-12
1.49727e-12
1.49799e-12
1.49856e-12
1.49941e-12
1.49983e-12
1.50042e-12
1.50054e-12
1.50073e-12
1.50102e-12
1.42573e-12
1.42996e-12
1.41886e-12
1.41902e-12
1.43944e-12
1.43557e-12
1.43483e-12
1.42446e-12
1.43962e-12
1.45175e-12
1.4484e-12
1.44479e-12
1.46304e-12
1.46137e-12
1.45657e-12
1.46543e-12
1.46957e-12
1.47322e-12
1.47677e-12
1.47981e-12
1.48239e-12
1.48472e-12
1.48674e-12
1.48923e-12
1.49248e-12
1.49322e-12
1.49411e-12
1.49474e-12
1.49724e-12
1.4989e-12
1.50005e-12
1.50134e-12
1.50261e-12
1.50391e-12
1.50514e-12
1.50623e-12
1.50764e-12
1.50895e-12
1.51012e-12
1.51141e-12
1.51257e-12
1.51388e-12
1.51527e-12
1.51687e-12
1.51831e-12
1.51985e-12
1.52115e-12
1.52241e-12
1.52316e-12
1.52395e-12
1.52438e-12
1.525e-12
1.52565e-12
1.52631e-12
1.4332e-12
1.43691e-12
1.42056e-12
1.41259e-12
1.43948e-12
1.44366e-12
1.4495e-12
1.44594e-12
1.45084e-12
1.45643e-12
1.4588e-12
1.46149e-12
1.46722e-12
1.47065e-12
1.47358e-12
1.47795e-12
1.48191e-12
1.48581e-12
1.48983e-12
1.49279e-12
1.4955e-12
1.49819e-12
1.50069e-12
1.503e-12
1.50522e-12
1.50767e-12
1.51006e-12
1.51007e-12
1.51077e-12
1.51207e-12
1.51343e-12
1.51469e-12
1.51622e-12
1.51795e-12
1.51909e-12
1.52022e-12
1.52144e-12
1.52262e-12
1.52401e-12
1.52531e-12
1.52662e-12
1.528e-12
1.52947e-12
1.53087e-12
1.53234e-12
1.53357e-12
1.53474e-12
1.53548e-12
1.53612e-12
1.53633e-12
1.53659e-12
1.53664e-12
1.53686e-12
1.53725e-12
1.4399e-12
1.44938e-12
1.41807e-12
1.43739e-12
1.44997e-12
1.45035e-12
1.47081e-12
1.46031e-12
1.46111e-12
1.46462e-12
1.46844e-12
1.47235e-12
1.47606e-12
1.48113e-12
1.48558e-12
1.48985e-12
1.49367e-12
1.49688e-12
1.49937e-12
1.5058e-12
1.50766e-12
1.51287e-12
1.51584e-12
1.51729e-12
1.51889e-12
1.52024e-12
1.52145e-12
1.52238e-12
1.52316e-12
1.52373e-12
1.52427e-12
1.5247e-12
1.52616e-12
1.52749e-12
1.52821e-12
1.5291e-12
1.53082e-12
1.53182e-12
1.53283e-12
1.53392e-12
1.53498e-12
1.53603e-12
1.53709e-12
1.53809e-12
1.5391e-12
1.54018e-12
1.54124e-12
1.54247e-12
1.54354e-12
1.54464e-12
1.54549e-12
1.54634e-12
1.54704e-12
1.5476e-12
1.44456e-12
1.43632e-12
1.42873e-12
1.46921e-12
1.47265e-12
1.45694e-12
1.4647e-12
1.46655e-12
1.46862e-12
1.47223e-12
1.47759e-12
1.48306e-12
1.4809e-12
1.49159e-12
1.49741e-12
1.5026e-12
1.50726e-12
1.51097e-12
1.51506e-12
1.52001e-12
1.52336e-12
1.52502e-12
1.52466e-12
1.52861e-12
1.53175e-12
1.53207e-12
1.53332e-12
1.53514e-12
1.53456e-12
1.53463e-12
1.53514e-12
1.53553e-12
1.53589e-12
1.53713e-12
1.53848e-12
1.53976e-12
1.54111e-12
1.54194e-12
1.54327e-12
1.54464e-12
1.54604e-12
1.54747e-12
1.54898e-12
1.5505e-12
1.55181e-12
1.55294e-12
1.55398e-12
1.5546e-12
1.55507e-12
1.55527e-12
1.55546e-12
1.55554e-12
1.55572e-12
1.55599e-12
1.45106e-12
1.45368e-12
1.4343e-12
1.48118e-12
1.48137e-12
1.46462e-12
1.46961e-12
1.47234e-12
1.47477e-12
1.47762e-12
1.48608e-12
1.49446e-12
1.49792e-12
1.50395e-12
1.51004e-12
1.51641e-12
1.5236e-12
1.52249e-12
1.5212e-12
1.52838e-12
1.53243e-12
1.53569e-12
1.53836e-12
1.53982e-12
1.54182e-12
1.54427e-12
1.5441e-12
1.5446e-12
1.54544e-12
1.54628e-12
1.54692e-12
1.54765e-12
1.54868e-12
1.5491e-12
1.54981e-12
1.55068e-12
1.55158e-12
1.55255e-12
1.55354e-12
1.55461e-12
1.55571e-12
1.55693e-12
1.5581e-12
1.55931e-12
1.56037e-12
1.56138e-12
1.56211e-12
1.56277e-12
1.5632e-12
1.56364e-12
1.56397e-12
1.5644e-12
1.56483e-12
1.56522e-12
1.45717e-12
1.46179e-12
1.44195e-12
1.47742e-12
1.47441e-12
1.47278e-12
1.47545e-12
1.47851e-12
1.48028e-12
1.47714e-12
1.49396e-12
1.50507e-12
1.50983e-12
1.51539e-12
1.52109e-12
1.52657e-12
1.53139e-12
1.53474e-12
1.5388e-12
1.54304e-12
1.54699e-12
1.55089e-12
1.55047e-12
1.54996e-12
1.55232e-12
1.55361e-12
1.55299e-12
1.55483e-12
1.55624e-12
1.55713e-12
1.55799e-12
1.5589e-12
1.55894e-12
1.55958e-12
1.56071e-12
1.5615e-12
1.56182e-12
1.56235e-12
1.56299e-12
1.5639e-12
1.56467e-12
1.56535e-12
1.56595e-12
1.56655e-12
1.56719e-12
1.56778e-12
1.56855e-12
1.5691e-12
1.56973e-12
1.57015e-12
1.57061e-12
1.57091e-12
1.5712e-12
1.57148e-12
1.46253e-12
1.45501e-12
1.46397e-12
1.48807e-12
1.47957e-12
1.47894e-12
1.48125e-12
1.48521e-12
1.48991e-12
1.49532e-12
1.50717e-12
1.5139e-12
1.51983e-12
1.52587e-12
1.53189e-12
1.5379e-12
1.54375e-12
1.54951e-12
1.55451e-12
1.55823e-12
1.56102e-12
1.56267e-12
1.56383e-12
1.56454e-12
1.56518e-12
1.56579e-12
1.5663e-12
1.56687e-12
1.56739e-12
1.56791e-12
1.56836e-12
1.56884e-12
1.56925e-12
1.56971e-12
1.57021e-12
1.57089e-12
1.5715e-12
1.57212e-12
1.57294e-12
1.57378e-12
1.57452e-12
1.57533e-12
1.57606e-12
1.57683e-12
1.57743e-12
1.57799e-12
1.57832e-12
1.57861e-12
1.57873e-12
1.57891e-12
1.57901e-12
1.57925e-12
1.57953e-12
1.57982e-12
1.46932e-12
1.46768e-12
1.47378e-12
1.46615e-12
1.48215e-12
1.48413e-12
1.48591e-12
1.49158e-12
1.49859e-12
1.50743e-12
1.51646e-12
1.52312e-12
1.52908e-12
1.53553e-12
1.54209e-12
1.54859e-12
1.55568e-12
1.56388e-12
1.5733e-12
1.57485e-12
1.57936e-12
1.57856e-12
1.57852e-12
1.5789e-12
1.57869e-12
1.57866e-12
1.57878e-12
1.57887e-12
1.57904e-12
1.57924e-12
1.5795e-12
1.57975e-12
1.58003e-12
1.58031e-12
1.58073e-12
1.58106e-12
1.58161e-12
1.58209e-12
1.58229e-12
1.5828e-12
1.58338e-12
1.58391e-12
1.58447e-12
1.58487e-12
1.5852e-12
1.58528e-12
1.58534e-12
1.58513e-12
1.58495e-12
1.58459e-12
1.58434e-12
1.58407e-12
1.58396e-12
1.58399e-12
1.47652e-12
1.47712e-12
1.4846e-12
1.48112e-12
1.48919e-12
1.48919e-12
1.48663e-12
1.49401e-12
1.50591e-12
1.51869e-12
1.52643e-12
1.53128e-12
1.53697e-12
1.5443e-12
1.5515e-12
1.55689e-12
1.56066e-12
1.57016e-12
1.57675e-12
1.5811e-12
1.58497e-12
1.58879e-12
1.59082e-12
1.58959e-12
1.58901e-12
1.58977e-12
1.5912e-12
1.58995e-12
1.58893e-12
1.58974e-12
1.5905e-12
1.59084e-12
1.58977e-12
1.58987e-12
1.58991e-12
1.58973e-12
1.58959e-12
1.58944e-12
1.58934e-12
1.58925e-12
1.58912e-12
1.58919e-12
1.58927e-12
1.58947e-12
1.58966e-12
1.59006e-12
1.59041e-12
1.59089e-12
1.59128e-12
1.59176e-12
1.59211e-12
1.59256e-12
1.59296e-12
1.5933e-12
1.48376e-12
1.48555e-12
1.49783e-12
1.4955e-12
1.50191e-12
1.49549e-12
1.48363e-12
1.49113e-12
1.51182e-12
1.53346e-12
1.5304e-12
1.52885e-12
1.54197e-12
1.55242e-12
1.56377e-12
1.56846e-12
1.57883e-12
1.58104e-12
1.58348e-12
1.58467e-12
1.59213e-12
1.59642e-12
1.59908e-12
1.59802e-12
1.59822e-12
1.6001e-12
1.59878e-12
1.59848e-12
1.59867e-12
1.59877e-12
1.59882e-12
1.59872e-12
1.59865e-12
1.59869e-12
1.59904e-12
1.59872e-12
1.59852e-12
1.5988e-12
1.59938e-12
1.59975e-12
1.60005e-12
1.60041e-12
1.60068e-12
1.60073e-12
1.60072e-12
1.60034e-12
1.59997e-12
1.59934e-12
1.59868e-12
1.59792e-12
1.59736e-12
1.59686e-12
1.59662e-12
1.59664e-12
1.49089e-12
1.4924e-12
1.51416e-12
1.50976e-12
1.5221e-12
1.50387e-12
1.50246e-12
1.50455e-12
1.51628e-12
1.52729e-12
1.52628e-12
1.54229e-12
1.54923e-12
1.55807e-12
1.56751e-12
1.56932e-12
1.58451e-12
1.58754e-12
1.58938e-12
1.58937e-12
1.59637e-12
1.59954e-12
1.60056e-12
1.60141e-12
1.60211e-12
1.60213e-12
1.60219e-12
1.60245e-12
1.60281e-12
1.60332e-12
1.60346e-12
1.60333e-12
1.60411e-12
1.60483e-12
1.60472e-12
1.6044e-12
1.60437e-12
1.60455e-12
1.6047e-12
1.60494e-12
1.60519e-12
1.60551e-12
1.60558e-12
1.60564e-12
1.60547e-12
1.60526e-12
1.6049e-12
1.60455e-12
1.60412e-12
1.60379e-12
1.60348e-12
1.60339e-12
1.60346e-12
1.60365e-12
1.49795e-12
1.49623e-12
1.50596e-12
1.48597e-12
1.50942e-12
1.50747e-12
1.50135e-12
1.51094e-12
1.52041e-12
1.52932e-12
1.53512e-12
1.54534e-12
1.55349e-12
1.56188e-12
1.57022e-12
1.57801e-12
1.58563e-12
1.59197e-12
1.59653e-12
1.59948e-12
1.60167e-12
1.60235e-12
1.6027e-12
1.60294e-12
1.60296e-12
1.60309e-12
1.60323e-12
1.60346e-12
1.60368e-12
1.60397e-12
1.60421e-12
1.60449e-12
1.60475e-12
1.60477e-12
1.60544e-12
1.60599e-12
1.60593e-12
1.60595e-12
1.60635e-12
1.60666e-12
1.60686e-12
1.60702e-12
1.60721e-12
1.60739e-12
1.60758e-12
1.6077e-12
1.6079e-12
1.608e-12
1.60807e-12
1.60806e-12
1.60811e-12
1.60813e-12
1.60828e-12
1.60853e-12
1.50535e-12
1.49855e-12
1.50596e-12
1.49916e-12
1.512e-12
1.51236e-12
1.51276e-12
1.51686e-12
1.52469e-12
1.53282e-12
1.54015e-12
1.54857e-12
1.55675e-12
1.56493e-12
1.57292e-12
1.57991e-12
1.5819e-12
1.59273e-12
1.59837e-12
1.60148e-12
1.60221e-12
1.6032e-12
1.60319e-12
1.60315e-12
1.60317e-12
1.60337e-12
1.60358e-12
1.6039e-12
1.60422e-12
1.60462e-12
1.605e-12
1.60546e-12
1.60589e-12
1.60639e-12
1.60686e-12
1.60756e-12
1.60825e-12
1.60874e-12
1.60924e-12
1.60983e-12
1.61031e-12
1.61074e-12
1.61103e-12
1.61127e-12
1.61134e-12
1.61134e-12
1.61123e-12
1.61108e-12
1.61088e-12
1.61071e-12
1.61056e-12
1.61052e-12
1.61061e-12
1.61079e-12
1.51369e-12
1.49912e-12
1.51072e-12
1.50878e-12
1.51819e-12
1.51744e-12
1.52284e-12
1.52128e-12
1.52833e-12
1.53666e-12
1.54384e-12
1.55151e-12
1.55934e-12
1.56738e-12
1.57647e-12
1.58417e-12
1.59007e-12
1.59428e-12
1.59447e-12
1.60032e-12
1.6017e-12
1.60035e-12
1.60172e-12
1.60225e-12
1.60239e-12
1.60273e-12
1.60316e-12
1.60354e-12
1.604e-12
1.60445e-12
1.60495e-12
1.60544e-12
1.60594e-12
1.60658e-12
1.60753e-12
1.60804e-12
1.60871e-12
1.60935e-12
1.61006e-12
1.61068e-12
1.61123e-12
1.61167e-12
1.61205e-12
1.61228e-12
1.61243e-12
1.61243e-12
1.61236e-12
1.6122e-12
1.61198e-12
1.61173e-12
1.61148e-12
1.61129e-12
1.61123e-12
1.61129e-12
1.5238e-12
1.4955e-12
1.51761e-12
1.51629e-12
1.52672e-12
1.52082e-12
1.5353e-12
1.52218e-12
1.53131e-12
1.54067e-12
1.54698e-12
1.55375e-12
1.56114e-12
1.56776e-12
1.57575e-12
1.58453e-12
1.591e-12
1.59451e-12
1.59506e-12
1.59987e-12
1.60388e-12
1.6009e-12
1.59866e-12
1.60017e-12
1.60107e-12
1.6017e-12
1.60221e-12
1.60267e-12
1.60322e-12
1.60375e-12
1.60429e-12
1.60472e-12
1.60532e-12
1.60591e-12
1.60654e-12
1.60715e-12
1.60757e-12
1.60798e-12
1.60844e-12
1.60887e-12
1.60926e-12
1.60974e-12
1.61019e-12
1.61061e-12
1.61101e-12
1.61141e-12
1.61181e-12
1.6122e-12
1.61259e-12
1.61293e-12
1.61329e-12
1.61362e-12
1.61396e-12
1.61433e-12
1.53722e-12
1.48479e-12
1.52268e-12
1.52192e-12
1.53858e-12
1.52459e-12
1.53251e-12
1.51524e-12
1.5337e-12
1.54618e-12
1.54941e-12
1.55521e-12
1.56311e-12
1.56592e-12
1.56781e-12
1.58083e-12
1.58746e-12
1.59186e-12
1.59382e-12
1.59375e-12
1.59532e-12
1.59514e-12
1.59405e-12
1.59602e-12
1.59698e-12
1.59733e-12
1.59834e-12
1.59858e-12
1.59921e-12
1.60013e-12
1.60009e-12
1.60076e-12
1.60188e-12
1.60229e-12
1.60307e-12
1.60412e-12
1.60517e-12
1.60618e-12
1.60715e-12
1.60796e-12
1.60867e-12
1.60926e-12
1.60967e-12
1.60994e-12
1.61012e-12
1.61018e-12
1.61006e-12
1.60988e-12
1.60964e-12
1.60941e-12
1.60914e-12
1.60895e-12
1.60885e-12
1.60883e-12
1.52694e-12
1.50641e-12
1.52741e-12
1.52459e-12
1.53559e-12
1.52877e-12
1.54217e-12
1.52748e-12
1.53812e-12
1.55607e-12
1.55042e-12
1.55471e-12
1.56029e-12
1.56494e-12
1.57081e-12
1.57704e-12
1.57728e-12
1.58484e-12
1.58711e-12
1.58823e-12
1.58868e-12
1.58961e-12
1.59094e-12
1.59213e-12
1.59292e-12
1.59373e-12
1.5939e-12
1.59358e-12
1.59527e-12
1.59683e-12
1.59671e-12
1.5983e-12
1.59876e-12
1.59895e-12
1.59979e-12
1.60081e-12
1.60145e-12
1.60247e-12
1.60337e-12
1.60414e-12
1.60483e-12
1.60539e-12
1.60589e-12
1.60624e-12
1.6065e-12
1.60669e-12
1.60681e-12
1.60689e-12
1.60699e-12
1.60704e-12
1.60717e-12
1.60725e-12
1.60736e-12
1.6075e-12
1.52246e-12
1.51803e-12
1.52968e-12
1.52521e-12
1.53565e-12
1.53335e-12
1.53313e-12
1.53257e-12
1.53919e-12
1.54746e-12
1.54596e-12
1.55324e-12
1.55789e-12
1.56232e-12
1.56727e-12
1.57279e-12
1.5756e-12
1.57752e-12
1.57929e-12
1.58084e-12
1.58172e-12
1.58318e-12
1.58483e-12
1.58605e-12
1.58688e-12
1.58787e-12
1.58855e-12
1.58922e-12
1.58979e-12
1.59022e-12
1.59089e-12
1.59165e-12
1.59243e-12
1.59329e-12
1.59422e-12
1.59523e-12
1.59627e-12
1.59737e-12
1.59801e-12
1.59896e-12
1.59977e-12
1.60061e-12
1.6013e-12
1.60198e-12
1.60255e-12
1.60314e-12
1.60358e-12
1.60403e-12
1.60436e-12
1.60473e-12
1.60496e-12
1.60523e-12
1.60545e-12
1.60563e-12
1.52224e-12
1.52171e-12
1.53387e-12
1.52359e-12
1.53789e-12
1.53754e-12
1.54704e-12
1.53602e-12
1.53965e-12
1.54384e-12
1.54986e-12
1.55311e-12
1.5555e-12
1.55888e-12
1.56255e-12
1.56604e-12
1.56849e-12
1.57032e-12
1.57184e-12
1.57388e-12
1.57555e-12
1.57699e-12
1.5777e-12
1.5785e-12
1.57874e-12
1.58036e-12
1.58094e-12
1.58272e-12
1.58397e-12
1.58467e-12
1.58533e-12
1.5863e-12
1.58725e-12
1.58839e-12
1.58967e-12
1.59058e-12
1.59158e-12
1.59264e-12
1.59366e-12
1.59459e-12
1.59543e-12
1.59617e-12
1.59685e-12
1.59737e-12
1.59786e-12
1.59821e-12
1.59856e-12
1.59878e-12
1.59906e-12
1.59924e-12
1.5995e-12
1.59963e-12
1.59977e-12
1.59991e-12
1.52208e-12
1.51751e-12
1.53518e-12
1.53482e-12
1.53034e-12
1.53984e-12
1.53864e-12
1.53626e-12
1.53988e-12
1.5451e-12
1.55597e-12
1.55355e-12
1.55226e-12
1.55496e-12
1.55777e-12
1.56034e-12
1.56227e-12
1.56338e-12
1.56323e-12
1.56749e-12
1.5707e-12
1.57315e-12
1.57008e-12
1.57328e-12
1.57634e-12
1.57689e-12
1.57781e-12
1.57882e-12
1.57969e-12
1.58023e-12
1.58111e-12
1.58218e-12
1.58286e-12
1.58355e-12
1.58497e-12
1.5863e-12
1.58714e-12
1.58795e-12
1.58883e-12
1.58966e-12
1.59035e-12
1.59106e-12
1.59165e-12
1.59229e-12
1.59268e-12
1.59312e-12
1.5934e-12
1.59373e-12
1.5939e-12
1.59413e-12
1.59421e-12
1.5944e-12
1.59451e-12
1.59456e-12
1.52226e-12
1.5041e-12
1.53029e-12
1.53546e-12
1.53156e-12
1.54402e-12
1.52502e-12
1.53486e-12
1.53957e-12
1.54954e-12
1.54812e-12
1.55355e-12
1.54896e-12
1.5508e-12
1.55305e-12
1.55524e-12
1.55713e-12
1.5588e-12
1.56056e-12
1.56352e-12
1.56763e-12
1.56591e-12
1.56658e-12
1.56797e-12
1.56938e-12
1.57009e-12
1.57243e-12
1.57427e-12
1.5765e-12
1.57735e-12
1.5774e-12
1.57828e-12
1.57959e-12
1.58031e-12
1.58103e-12
1.58178e-12
1.58241e-12
1.58328e-12
1.58402e-12
1.58453e-12
1.58515e-12
1.58545e-12
1.58592e-12
1.58629e-12
1.58674e-12
1.58698e-12
1.58722e-12
1.58736e-12
1.58765e-12
1.58781e-12
1.58808e-12
1.5882e-12
1.58835e-12
1.58849e-12
1.52375e-12
1.52481e-12
1.51916e-12
1.53458e-12
1.54301e-12
1.54356e-12
1.53249e-12
1.53462e-12
1.53738e-12
1.54207e-12
1.54229e-12
1.54367e-12
1.54416e-12
1.54626e-12
1.54829e-12
1.55029e-12
1.55221e-12
1.5539e-12
1.55522e-12
1.55631e-12
1.55692e-12
1.55639e-12
1.55982e-12
1.56246e-12
1.5649e-12
1.56786e-12
1.5695e-12
1.56974e-12
1.57064e-12
1.5714e-12
1.57208e-12
1.57291e-12