3 	0.0039111296779627 	-2.42861286636753e-17 	-0.0196148930003763 	0.000124029321956229 	-1.36261289326756e-21
3 	0.0118766651674914 	-3.12250225675825e-17 	-0.05770084130754 	0.000516434902609905 	-1.69866949130661e-21
3 	0.020134001548576 	-3.12250225675825e-17 	-0.0928079508711307 	0.00116650420145478 	-1.45335063961236e-22
3 	0.028693828342395 	-3.46944695195361e-17 	-0.122377870863429 	0.00198066209259412 	4.64132262025802e-22
3 	0.0375672266585909 	-3.12250225675825e-17 	-0.143489273817993 	0.00279824279791394 	1.37373409013446e-23
3 	0.0467656835403032 	-2.77555756156289e-17 	-0.155729058198701 	0.00350402804435552 	-3.39852991549231e-23
3 	0.0563011068347006 	-2.08166817117217e-17 	-0.161472878821396 	0.00407812308345949 	-2.25551916809984e-22
3 	0.0661858406082649 	-1.73472347597681e-17 	-0.163463545757575 	0.00455299081929878 	8.71876387879363e-22
3 	0.0764326811267816 	-2.08166817117217e-17 	-0.163430919511098 	0.00496135037733336 	2.75270925656863e-22
3 	0.0870548934207256 	-2.08166817117217e-17 	-0.162249338225199 	0.00532296912628168 	-1.34192482315663e-22
3 	0.0980662284574838 	-1.73472347597681e-17 	-0.160346766329578 	0.00564898282251113 	-2.74027534808302e-22
3 	0.109480940942647 	-1.73472347597681e-17 	-0.157941011080939 	0.00594591344305393 	-2.46526197943209e-22
3 	0.121313807773416 	-2.08166817117217e-17 	-0.155148218911427 	0.00621760098692769 	3.94035041336015e-22
3 	0.13358014716801 	-2.08166817117217e-17 	-0.152032034564206 	0.00646618955477712 	-1.84028545740956e-17
3 	0.146295838495838 	-1.38777878078145e-17 	-0.148626964122714 	0.00669269016149839 	-5.90531194875333e-17
3 	0.159477342834115 	-1.38777878078145e-17 	-0.144950154152546 	0.00689730479721237 	5.2605982895644e-17
3 	0.173141724277517 	-2.42861286636753e-17 	-0.141007660045577 	0.00707960813080452 	1.58865191552024e-17
3 	0.18730667202848 	-2.77555756156289e-17 	-0.136797928118388 	0.00723864495400606 	7.10328138198885e-22
3 	0.201990523296728 	-3.12250225675825e-17 	-0.132313784122652 	0.00737297588348207 	7.00391071804408e-22
3 	0.217212287037675 	-3.46944695195361e-17 	-0.127543574368463 	0.00748068878530669 	1.15978937373519e-22
3 	0.232991668560441 	-3.81639164714898e-17 	-0.122471796932437 	0.00755938544365291 	0
3 	0.249349095037321 	-4.16333634234434e-17 	-0.117079404627344 	0.00760614875590294 	1.90387878100453e-22
3 	0.266305741947753 	-4.5102810375397e-17 	-0.111343878239181 	0.00761749336695472 	1.01602164265964e-21
3 	0.283883560490998 	-4.5102810375397e-17 	-0.105239121185036 	0.00758930134327698 	1.79090113775117e-22
3 	0.30210530600303 	-3.81639164714898e-17 	-0.0987351974369952 	0.00751674383468021 	1.02656858868323e-21
3 	0.320994567414413 	-3.12250225675825e-17 	-0.0917979143576292 	0.00739418964084286 	3.20358027163044e-22
3 	0.34057579778732 	-2.42861286636753e-17 	-0.0843882360970423 	0.00721510231850752 	1.15330869838108e-21
3 	0.3608743459712 	-2.08166817117217e-17 	-0.0764614980971387 	0.0069719290458406 	2.9758990913045e-22
3 	0.38191648941809 	-2.08166817117217e-17 	-0.0679663773777067 	0.00665598713913483 	1.36070542128384e-21
3 	0.403729468200045 	-1.73472347597681e-17 	-0.058843556417587 	0.00625735847190039 	-7.96598606123793e-18
3 	0.426341520272733 	0 	-0.0490240004266296 	0.00576480698167065 	-6.68702338554069e-17
3 	0.449781918030829 	6.93889390390723e-18 	-0.0384267528024331 	0.00516574382454125 	6.88886278903269e-17
3 	0.474081006202548 	6.93889390390723e-18 	-0.0269561532670769 	0.00444627925792717 	6.83864296248194e-18
3 	0.499270241132363 	1.04083408558608e-17 	-0.0144984009357815 	0.00359140430138185 	-5.07848941408878e-21
3 	0.525382231502763 	1.04083408558608e-17 	-0.000917333385608832 	0.00258533703365419 	6.64090393206911e-21
3 	0.552450780547767 	6.93889390390723e-18 	0.0139507664679578 	0.00141243458505328 	6.82500674690999e-22
3 	0.580510929812849 	-3.46944695195361e-18 	0.0303082898605306 	5.92578805867598e-05 	-3.514370166507e-21
3 	0.60959900451791 	-1.04083408558608e-17 	0.0484386777537002 	-0.00148278457421051 	-4.10633538369247e-21
3 	0.639752660582033 	-3.46944695195361e-18 	0.0690224180494774 	-0.00327892442785743 	-4.69751911697081e-21
3 	0.671010933370886 	6.93889390390723e-18 	0.0931661866345598 	-0.00540710086827803 	-5.22615802040172e-21
3 	0.7034142882299 	3.46944695195361e-18 	0.121820407220209 	-0.00793572709455069 	5.20655792696046e-21
3 	0.737004672868606 	0 	0.155496263845115 	-0.0108333402624947 	3.65220400776915e-24
3 	0.771825571663976 	0 	0.194197907694788 	-0.0139865196618299 	0
3 	0.807922061953053 	-6.93889390390723e-18 	0.237436100417453 	-0.0172345259365618 	8.05816873466769e-24
3 	0.845340872387742 	-1.73472347597681e-17 	0.284346824022398 	-0.0204060399534149 	1.39761840636438e-20
3 	0.884130443427309 	-1.73472347597681e-17 	0.333863042388635 	-0.0233429970822041 	1.37701104310501e-20
3 	0.924340990046898 	-1.40946282423116e-17 	0.384848564489941 	-0.0259109786203761 	2.11016209683637e-22
3 	0.966024566743241 	-1.10588621593521e-17 	0.436142500501067 	-0.0279959503991721 	1.27856635278929e-20
3 	1.00923513492173 	-6.50521303491303e-18 	0.486589301447837 	-0.0295469762680757 	4.41874210432202e-22
3 	1.05402863275205 	-9.54097911787244e-18 	0.535021752021053 	-0.0305505084160838 	1.99957240155191e-22
3 	1.10046304758287 	-1.30104260698261e-17 	0.580188046825668 	-0.03101861080895 	8.89056590675077e-21
3 	1.14859849100923 	-1.73472347597681e-17 	0.62096265941698 	-0.0309744900976293 	7.2356881793915e-21
3 	1.19849727668995 	-1.90819582357449e-17 	0.656764514728305 	-0.0305973563643818 	1.28679013076396e-20
3 	1.25022400101563 	-1.47451495458029e-17 	0.687527699021565 	-0.030063823065645 	-1.9768792228503e-21
3 	1.30384562673186 	-1.04083408558608e-17 	0.713766453776472 	-0.0295522034134725 	-2.2947185018846e-20
3 	1.35943156962566 	-8.67361737988404e-18 	0.736472431010895 	-0.029127969639252 	9.68461181743123e-21
3 	1.41705378838763 	-1.04083408558608e-17 	0.756698085777718 	-0.0287878070671993 	-1.64404110728785e-20
3 	1.47678687776592 	-1.38777878078145e-17 	0.77530440080647 	-0.0284995092212306 	-8.02974759883911e-21
3 	1.53870816513278 	-1.21430643318376e-17 	0.79289859303786 	-0.0282241013825634 	6.02209679460943e-22
3 	1.60289781058851 	-1.38777878078145e-17 	0.809863068645692 	-0.0279248320216375 	3.67386216154626e-21
3 	1.66943891073267 	-1.73472347597681e-17 	0.826403559603178 	-0.0275719349293119 	7.4870397600763e-21
3 	1.73841760623657 	-1.04083408558608e-17 	0.842596832449733 	-0.027144144315144 	-3.33260860024652e-22
3 	1.8099231933566 	-1.73472347597681e-17 	0.858432257988538 	-0.0266280123089215 	2.84469172884333e-21
3 	1.86664143671802 	-2.42861286636753e-17 	0.870346371040979 	-0.0261689817024544 	5.83839787166486e-21
3 	1.90437118448318 	-1.38777878078145e-17 	0.877947756160626 	-0.0258401935866738 	6.16419486908121e-21
3 	1.96088928407727 	-1.38777878078145e-17 	0.888795506563129 	-0.0253149510299543 	2.66637845452879e-21
3 	2.04004996790234 	-1.73472347597681e-17 	0.90303095039506 	-0.0245372423488241 	0
3 	2.11873460271874 	-1.38777878078145e-17 	0.91614410027814 	-0.0237039199275351 	0
3 	2.19463865000285 	-1.38777878078145e-17 	0.927887779461982 	-0.0228598739285219 	0
3 	2.26786037121375 	-1.38777878078145e-17 	0.938304283150033 	-0.0220264086998404 	0
3 	2.33849455540975 	-1.38777878078145e-17 	0.947518696981978 	-0.0212089321617415 	0
3 	2.40663264195737 	-1.38777878078145e-17 	0.955652140641663 	-0.0204144103023386 	0
3 	2.47236283890404 	-1.38777878078145e-17 	0.962822008827487 	-0.0196468089837356 	0
3 	2.5357702371677 	-1.38777878078145e-17 	0.969139454587678 	-0.018908285053107 	0
3 	2.59693692069108 	-1.04083408558608e-17 	0.974704220437366 	-0.0181997275535014 	0
3 	2.65594207270333 	-6.93889390390723e-18 	0.979601583847417 	-0.0175211909091148 	0
3 	2.71286207822658 	-3.46944695195361e-18 	0.983903110877165 	-0.0168721601762266 	0
3 	2.76777062296 	3.46944695195361e-18 	0.987668895015246 	-0.0162517302454242 	0
3 	2.8207387886695 	6.93889390390723e-18 	0.99094952719465 	-0.0156587344045041 	0
3 	2.87183514520655 	6.93889390390723e-18 	0.993787540637007 	-0.0150918364250833 	0
3 	2.92112583927514 	6.93889390390723e-18 	0.996218478712024 	-0.0145496047243287 	0
3 	2.9686746800619 	6.93889390390723e-18 	0.99827171880884 	-0.0140305729235474 	0
