/*--------------------------------*- C++ -*----------------------------------*\
  =========                 |
  \\      /  F ield         | OpenFOAM: The Open Source CFD Toolbox
   \\    /   O peration     | Website:  https://openfoam.org
    \\  /    A nd           | Version:  7
     \\/     M anipulation  |
\*---------------------------------------------------------------------------*/
FoamFile
{
    version     2.0;
    format      ascii;
    class       volScalarField;
    location    "10000";
    object      nut;
}
// * * * * * * * * * * * * * * * * * * * * * * * * * * * * * * * * * * * * * //

dimensions      [0 2 -1 0 0 0 0];

internalField   nonuniform List<scalar> 
15600
(
1.29222555844317e-08
1.10087848426738e-08
5.63465607748935e-09
1.70510215158539e-09
1.90329612215386e-10
2.7988570594484e-11
1.98947244754928e-11
1.31432740738529e-11
1.27391428350275e-11
1.23588449581977e-11
1.35265615085291e-11
1.65950170854691e-11
2.22867567404077e-11
3.18819549337751e-11
4.86460005804978e-11
7.71216447358672e-11
1.23705298971759e-10
1.96931031881069e-10
3.08927796011191e-10
4.74044604856207e-10
7.0638558310609e-10
1.01713630985754e-09
1.41445972822818e-09
1.88377484367757e-09
2.37108519356155e-09
2.80625861681078e-09
3.16141837130338e-09
3.49897922384711e-09
4.63550403089365e-09
6.52960397875493e-09
8.45940944432439e-09
1.0401112644252e-08
1.23520542703272e-08
1.43023857990307e-08
1.62491570488516e-08
1.81910123743282e-08
2.01248642434179e-08
2.2047750624105e-08
2.39553216566859e-08
2.58429009846508e-08
2.770534622639e-08
2.95375870574404e-08
3.13352110633816e-08
3.30958500841008e-08
3.48209995336621e-08
3.65142337218749e-08
3.81701960343909e-08
3.97336180435097e-08
4.11886609405241e-08
4.25524470249483e-08
4.38197306307645e-08
4.4986923395782e-08
4.60512108799648e-08
4.70106329668537e-08
4.78641045846611e-08
4.86113898962617e-08
4.92530664114011e-08
4.97904585307096e-08
5.02255659805297e-08
5.05609827721182e-08
5.07998160555879e-08
5.0945607146677e-08
5.10022371794625e-08
5.09738277911308e-08
5.08645736039042e-08
5.06785766324133e-08
5.04195988853969e-08
5.00910175810028e-08
4.96959079628665e-08
4.92375104227868e-08
4.87196772722681e-08
4.81467113431697e-08
4.75229237123964e-08
4.68522780883595e-08
4.6137712908557e-08
4.53811150925029e-08
4.45830503413407e-08
4.3743554976187e-08
4.2862785210403e-08
4.1940308434224e-08
4.0975366447655e-08
3.9964895777073e-08
3.8904353286707e-08
3.77843840278339e-08
3.65941910845914e-08
3.53148779402489e-08
3.3927324984488e-08
3.23966220979961e-08
3.06926359182176e-08
2.87555887628472e-08
2.65181523992546e-08
2.38427955469098e-08
2.20795679873903e-08
2.27427909174229e-08
2.34825338776868e-08
2.42447111361218e-08
2.44392931221804e-08
2.42742107254641e-08
2.3807089006345e-08
2.33706814526537e-08
2.28693141167503e-08
2.23014225478028e-08
2.15615699922831e-08
2.06405264497131e-08
1.92835137438042e-08
1.76045465962758e-08
1.58382861142123e-08
1.41407415630561e-08
1.26216493494816e-08
1.13992607058685e-08
1.07721607812908e-08
1.07592899389893e-08
1.150263069837e-08
1.34964600230474e-08
1.7253255802035e-08
2.21257353630302e-08
2.06875970189961e-08
1.62627319714388e-08
1.27208153479791e-08
1.29983356783281e-08
2.37208564457863e-06
1.99034443433217e-06
1.00152518463108e-06
3.18475367995028e-07
3.94012986816446e-08
5.97117340956043e-09
3.93547736188091e-09
2.58253702388627e-09
2.47760732169464e-09
2.39804953152015e-09
2.6078768877293e-09
3.17895911581042e-09
4.24759815930295e-09
6.04796545407664e-09
9.18891867849245e-09
1.45233503449554e-08
2.32659527829492e-08
3.70249892036399e-08
5.81091350073869e-08
8.93059481941001e-08
1.33412937323987e-07
1.9253282530033e-07
2.68328925534113e-07
3.58920060284336e-07
4.53968417526326e-07
5.39039996730134e-07
6.04401068197122e-07
6.4954180208618e-07
8.4794158397582e-07
1.19211762050268e-06
1.54267715319991e-06
1.89421445485944e-06
2.24640273866882e-06
2.59748867363145e-06
2.94708455436596e-06
3.29519438405519e-06
3.64148209924e-06
3.98566311241954e-06
4.32718011234501e-06
4.66541279571228e-06
4.99963951009815e-06
5.32913301238116e-06
5.65325404564741e-06
5.97168810653375e-06
6.28478799181378e-06
6.59312762118566e-06
6.89436949477636e-06
7.18069150886158e-06
7.45055199601965e-06
7.7051695383365e-06
7.94353600730255e-06
8.16494326783977e-06
8.36880105765165e-06
8.55465221519161e-06
8.72218046850016e-06
8.87120899358803e-06
9.0016980538867e-06
9.11373658508404e-06
9.20753297806744e-06
9.28340380715417e-06
9.34176216790349e-06
9.38310650786219e-06
9.40800566089078e-06
9.41708398363338e-06
9.41099144091968e-06
9.39037630017479e-06
9.35583666635812e-06
9.30791210529855e-06
9.24709287763512e-06
9.17390381109563e-06
9.08899554906358e-06
8.99312027633663e-06
8.88704677783469e-06
8.77150020326079e-06
8.64702279994853e-06
8.51397407884131e-06
8.37246554636152e-06
8.22250487677671e-06
8.06413566459224e-06
7.89728250581986e-06
7.72183509539662e-06
7.53722228011938e-06
7.34263612677065e-06
7.13628639821528e-06
6.91619111797073e-06
6.67867998500907e-06
6.42020228237238e-06
6.13392919180644e-06
5.81417702691118e-06
5.44948915354733e-06
5.02742031455903e-06
4.52185848851754e-06
4.18854895977306e-06
4.32836626206851e-06
4.47493387969149e-06
4.6360953766923e-06
4.68496400929353e-06
4.66823382344651e-06
4.59358773667419e-06
4.52585585615092e-06
4.43793707482394e-06
4.33190305345286e-06
4.18544327417765e-06
3.99715680327802e-06
3.71642353462809e-06
3.38083711213517e-06
3.0353385990861e-06
2.70700772040556e-06
2.41764091637109e-06
2.19127678728669e-06
2.08251069248929e-06
2.08052555543069e-06
2.22005561565005e-06
2.58978148599414e-06
3.23380016635998e-06
3.91649040431115e-06
3.40200261782435e-06
2.6339470453245e-06
2.1256367052737e-06
2.29949452103476e-06
3.48495950596694e-05
3.16934680427661e-05
2.02599924833378e-05
7.45186240539148e-06
9.87621532953645e-07
1.48263176322932e-07
9.01145286859205e-08
5.86698092302665e-08
5.58099549904213e-08
5.39319296729299e-08
5.82993671631614e-08
7.05596248062996e-08
9.39121525650567e-08
1.33509433407077e-07
2.02646227472286e-07
3.20188261547644e-07
5.12531189979469e-07
8.14595872004042e-07
1.27492366098176e-06
1.94905639081442e-06
2.88765656618032e-06
4.1263116238809e-06
5.67512588489211e-06
7.45961635657144e-06
9.30446732709918e-06
1.08502974970483e-05
1.19983892224284e-05
1.37498585198128e-05
1.81115642445278e-05
2.41994963165464e-05
2.99772112209792e-05
3.54916744870767e-05
4.08042571120902e-05
4.59279463448178e-05
5.08921066594933e-05
5.57140679166927e-05
6.04061285889197e-05
6.49757362915764e-05
6.94264602027211e-05
7.37594417124257e-05
7.79742000542971e-05
8.20695876484664e-05
8.60447968867918e-05
8.99006811035407e-05
9.36436000347823e-05
9.73123965965138e-05
0.000100995754659492
0.000104503320467928
0.000107813802303881
0.000110935289675658
0.000113861274490516
0.000116587778912289
0.000119111571117577
0.000121430350592709
0.000123542832835301
0.000125448751060562
0.000127148849995616
0.000128644825934798
0.000129939262082938
0.000131035547926661
0.00013193779812851
0.000132650777170445
0.000133179790687879
0.000133530571989482
0.000133709023274151
0.000133720956583224
0.000133571620282215
0.000133265586320083
0.000132806837642707
0.000132199665564573
0.000131449677519535
0.000130563607303898
0.000129548479484529
0.000128410947995657
0.00012715584007341
0.000125786027588859
0.000124301652203038
0.000122701599366917
0.000120984960840211
0.000119149473281103
0.00011719218639059
0.000115104936145402
0.000112876112813874
0.000110482566316276
0.000107896984438932
0.000105071344778719
0.00010195484715778
9.84539356624737e-05
9.44802688996601e-05
8.98606706971945e-05
8.44100681161211e-05
7.78124862683193e-05
7.33193524187213e-05
7.47819637696375e-05
7.68047410645627e-05
7.89531415478712e-05
7.96336378792595e-05
7.94128625514836e-05
7.84199482948521e-05
7.74538872664514e-05
7.61782686143651e-05
7.45743238775483e-05
7.23435713193268e-05
6.94270534687244e-05
6.51420935530644e-05
5.99610331631572e-05
5.45095066930472e-05
4.91997584084695e-05
4.4387188052339e-05
4.05050926414716e-05
3.8425139955216e-05
3.79541857080338e-05
3.95407546876473e-05
4.41779519558829e-05
5.19377442210053e-05
5.90834660931266e-05
5.45017568900562e-05
4.47397827259697e-05
3.62451580877306e-05
3.44400735489627e-05
0.000123844846696049
0.000119499478896535
8.58556860269171e-05
4.09084711283772e-05
8.39563640413814e-06
1.39036086753857e-06
7.61914498330309e-07
4.90869771076624e-07
4.63759131490352e-07
4.47591895221729e-07
4.80529445510889e-07
5.76264437051381e-07
7.60507550425355e-07
1.07021012061103e-06
1.60465811619646e-06
2.50141566526541e-06
3.94886612943981e-06
6.18029254367755e-06
9.49841589824651e-06
1.42014308506776e-05
2.04597709284651e-05
2.82252032187379e-05
3.72424010825712e-05
4.67639436892273e-05
5.54501536010981e-05
6.1831231736858e-05
6.65363241928884e-05
7.44811861326024e-05
9.39500093641044e-05
0.000119141186929967
0.000141975738366286
0.000163061021110318
0.000182786993902079
0.000201336437889175
0.00021891497659982
0.000235659456037194
0.000251672952704682
0.000267028958078953
0.000281778931145598
0.000295959272976474
0.000309595816775754
0.000322707752161499
0.000335312150278066
0.000347439381694396
0.000359223834812179
0.00037075856969764
0.000381959894386505
0.000392539909757286
0.000402490363089572
0.000411827823013313
0.000420546736666459
0.000428646388946754
0.000436127228753437
0.00044299140915164
0.000449243034288638
0.000454888193979848
0.000459934962385005
0.000464393259981358
0.0004682747014077
0.000471592407255024
0.000474360820193062
0.000476595539859372
0.000478313087602653
0.000479530656235142
0.000480265511409332
0.00048053434396823
0.000480352067087167
0.000479731425733761
0.00047868315347431
0.000477218360109166
0.000475351340494404
0.000473099246702641
0.00047048002428876
0.000467510625902075
0.000464203275058233
0.000460564874430497
0.000456594808212386
0.000452288704206886
0.000447642260989904
0.000442647556071643
0.000437294214803658
0.000431558133438231
0.000425404417524731
0.000418767180300457
0.000411565374589056
0.00040366125960095
0.000394901480344384
0.000385010697717216
0.000373712668164781
0.000360467397610157
0.000344726435236505
0.000325139899313224
0.00031100233935958
0.000314811547677998
0.000321072698262905
0.00032757688364658
0.00033002961650443
0.000329756292349326
0.000327285637208836
0.000324743154583023
0.000321151004839371
0.000316255942633064
0.00030914373192191
0.000299484421820901
0.000285138788523274
0.00026743506673825
0.000248348260216812
0.000229236374082098
0.000211342512277641
0.00019644698295924
0.0001880303683878
0.000185559934539744
0.000190586468380867
0.000206370431090231
0.000232529300830315
0.00025586665573201
0.000232797591414325
0.000183542004885469
0.000136732858695926
0.000122092849941585
0.000261824346998909
0.000255994054734109
0.000188248740294312
9.55086685693426e-05
3.33300231954226e-05
7.72647483926045e-06
3.80046239855373e-06
2.40054091058792e-06
2.25286956552916e-06
2.17008661505221e-06
2.30740591446793e-06
2.7297870097505e-06
3.54669027716311e-06
4.89140295702555e-06
7.15411601488665e-06
1.08422384518575e-05
1.6601765258164e-05
2.5096233935744e-05
3.70351552666171e-05
5.2815354641221e-05
7.21238039830304e-05
9.39270666172653e-05
0.000116938070092603
0.000138875134078784
0.000156574814367029
0.000168383224402839
0.000178182320889076
0.00019759354705893
0.000244092029786278
0.00030163878280307
0.000351918699446935
0.000397155051601469
0.000438497628748308
0.000476627292023465
0.000512166758515967
0.00054553972792727
0.000577061645303386
0.000606961221360605
0.000635404786940624
0.000662515498951167
0.000688386626768961
0.000713094250615205
0.000736721708651504
0.00075944492510796
0.000781412240540291
0.000802576168599409
0.000822787385809117
0.000841783989395947
0.000859588260548939
0.000876226980318113
0.000891705562141256
0.000906034570176218
0.000919225423671127
0.000931291398706938
0.000942248140035552
0.000952113818102703
0.000960909186886498
0.000968657410013538
0.000975383846993911
0.000981115778024576
0.000985882134257773
0.000989713254808339
0.00099264054264818
0.000994696077557024
0.00099591168798907
0.000996317860051754
0.000995941751759812
0.000994806389758103
0.000992930863750995
0.000990334410182055
0.000987041354398936
0.000983080776212456
0.000978483179817809
0.000973277321373319
0.00096748405212975
0.000961114916528559
0.000954168332252855
0.000946635828578201
0.000938508423641215
0.000929771178492917
0.000920404126211397
0.000910364646695443
0.000899589643717262
0.000887964371983989
0.000875343242626734
0.000861485986996088
0.000846116181933736
0.000828749881639142
0.000808886138968886
0.000785553073175454
0.000757780688849162
0.000722512713469821
0.000696135534156583
0.000702303596767444
0.000714409413992082
0.000726967412311275
0.000733102809624775
0.000734474499308287
0.00073225341914626
0.000729782239978556
0.000725261433797746
0.000717890537290814
0.000706031045303193
0.000688882813541907
0.000662618711431778
0.000629529604177369
0.000593357709460581
0.000556698573628506
0.000521927325717899
0.000492865980987402
0.000476922852647044
0.000473454270612262
0.000485377504969175
0.000518885320186644
0.000572932919423165
0.000621775286460137
0.000572157404955943
0.00045436100269113
0.00032326497940684
0.000268470169794709
0.000459340252741867
0.000443499074292546
0.000329138629556846
0.000166694815027991
7.57923420974626e-05
2.85697729076999e-05
1.37701637331529e-05
8.39433246781219e-06
7.80801993757969e-06
7.48907939807217e-06
7.84602042652073e-06
9.09391458355277e-06
1.15152971884146e-05
1.53945951779054e-05
2.17134090804319e-05
3.16315883717179e-05
4.64389638031245e-05
6.70685304703253e-05
9.42003704814481e-05
0.000127495333010085
0.000165157463669315
0.000204552281630746
0.000243288916345416
0.000277721915091875
0.000303896112812596
0.000322082153984429
0.000341149164285848
0.000379802525793077
0.000462404185489209
0.000558948065510998
0.000641116521436781
0.000714022098854151
0.000779897476150443
0.000840109316510293
0.000895809338356732
0.000947773092105825
0.000996575648817732
0.0010426334374887
0.00108625265339788
0.00112766257490158
0.0011670417340556
0.0012045461382301
0.00124035715033109
0.00127472666476296
0.00130767224933047
0.00133912586910282
0.00136892050652293
0.00139686207847278
0.00142299932293396
0.00144736964114056
0.00146999283878364
0.00149089304165236
0.00151009481174873
0.0015276245756086
0.00154351143863791
0.00155778750191053
0.00157048799254716
0.0015816510669181
0.00159131753636724
0.00159953050453031
0.00160633500729537
0.00161177768167133
0.00161590630719606
0.0016187692622386
0.00162041427128025
0.00162088683989647
0.00162022749969658
0.0016184705195848
0.00161564411549441
0.00161177624236952
0.0016069017758068
0.00160106230223998
0.00159430155709567
0.00158666070391698
0.00157816979455575
0.00156884527932509
0.00155868454626366
0.00154767455239511
0.00153580072241442
0.00152304023209636
0.00150936197405011
0.00149470340681624
0.0014789701774607
0.00146199587136122
0.0014435640428661
0.00142332665173818
0.00140087239130546
0.00137549982948159
0.00134646143116066
0.00131233243032164
0.00127164153537634
0.00121917093673762
0.00117895112719187
0.00118693123903501
0.00120632863088734
0.00122671818665115
0.00123886722716017
0.00124427832561582
0.00124488093583042
0.00124497824205095
0.00124185533979108
0.0012338658674289
0.00121862474831634
0.00119474647234933
0.00115682689590295
0.00110811357489986
0.00105436969707259
0.000999654945392219
0.000947588675418799
0.000904376557296366
0.000881809186494243
0.000879483210017347
0.000901440065459461
0.000956390795321361
0.00104255711748989
0.00112143311249966
0.00104618483867863
0.000851415136345799
0.000614303043758332
0.000492290153334128
0.000724460101161694
0.000687095632869139
0.000519771732108826
0.000262872857548932
0.000124763461373125
7.01221190229118e-05
3.93981713350603e-05
2.31193755263208e-05
2.12036489704453e-05
2.01875839477189e-05
2.07178720331442e-05
2.33539983645238e-05
2.85890879275043e-05
3.68332877153853e-05
4.9946994764646e-05
6.98956467430763e-05
9.84538831826543e-05
0.000136176808519508
0.000182909789009463
0.000236791829972779
0.000294213535838565
0.000351240486169276
0.000404926818664723
0.000451095644307692
0.000486416812989991
0.000514261844536474
0.000548396789388698
0.0006131141325741
0.000735725241848737
0.000872358887032248
0.0009874815666999
0.00108925785768146
0.00118090967885406
0.00126444314462052
0.00134151129540048
0.00141322484176781
0.00148041362489073
0.00154368028165185
0.00160347280344977
0.00166013006149222
0.00171392122449447
0.00176508591182416
0.00181390755831729
0.00186056459833672
0.00190505296101367
0.00194729771801958
0.00198714718820633
0.00202447817403745
0.00205936004275611
0.00209184236898704
0.00212196096335998
0.00214975463964675
0.00217526225224658
0.00219852448708893
0.00221958499017335
0.00223849085850476
0.00225529284377961
0.00227004513606628
0.00228280502471202
0.0022936324431163
0.00230258950924325
0.00230974009183098
0.00231514922481023
0.00231888238741299
0.00232100393424194
0.00232157505801733
0.00232065031724599
0.00231827584352485
0.00231448953610049
0.00230932846435326
0.00230283829004546
0.00229507331118787
0.0022860907271217
0.00227594429228911
0.00226467348689411
0.00225229975334202
0.002238819429005
0.00222421454957622
0.0022084641883856
0.00219153687867835
0.00217338907811172
0.00215393722439636
0.00213305348496573
0.00211051802795264
0.0020860392575655
0.00205915867470278
0.00202932177165877
0.00199560684300989
0.00195700196841
0.00191162416682815
0.00185742765081966
0.00178687191755674
0.00173160751748936
0.00174038165507131
0.00176813998866078
0.00179802279577494
0.00181841752475693
0.0018302552367838
0.00183620959049336
0.00184128835756067
0.00184181417255212
0.00183505321825686
0.00181786309704647
0.00178821542425375
0.00173934012110404
0.00167537954531049
0.00160423452852298
0.00153160411261018
0.00146244171264049
0.00140549876651631
0.00137696535771885
0.00137701731673019
0.00141050701470412
0.00148804675557777
0.00160725671646843
0.00171790519484527
0.00162177938535052
0.00134888874904867
0.00100288708938567
0.000799486237934813
0.00105655312893894
0.000987356005173146
0.000768350088789621
0.000383809199581846
0.000175025269132443
0.000121517134986812
8.88890345486096e-05
5.27224810958439e-05
4.73933631462509e-05
4.47066349357628e-05
4.48131024505118e-05
4.89750012447231e-05
5.78966208033861e-05
7.20790392833427e-05
9.44714993523105e-05
0.000127748052337565
0.000173581563009246
0.000231299485055563
0.000299325198627279
0.000374122059070633
0.00045062708815081
0.000524236898433473
0.000592036932753863
0.000650132896405693
0.000696721183985495
0.000738387986226654
0.000792821885807396
0.000888058775975457
0.00105154019495502
0.00122759368200133
0.00137585188787173
0.00150705814015408
0.00162522923218612
0.00173291567197312
0.00183221255858732
0.00192453361281389
0.00201094688722635
0.00209223244944677
0.00216897656867598
0.00224162705028194
0.00231054519478702
0.00237605152766497
0.00243846935740752
0.00249792363441786
0.00255441766014283
0.00260788349616884
0.00265820318586254
0.00270531687949625
0.0027493114606627
0.0027902508999607
0.00282818833654806
0.00286317839583326
0.00289527532117413
0.00292453508202146
0.00295101682266008
0.0029747835379156
0.00299590235282243
0.00301444429220149
0.00303048387642162
0.00304409857196566
0.00305536822627482
0.003064374519793
0.00307120024260617
0.00307592838613167
0.00307864027212872
0.00307941307325711
0.00307831570297685
0.00307540653647267
0.00307073354568001
0.00306434314155394
0.00305629177024745
0.00304664633395999
0.00303547736476697
0.00302285104911657
0.0030088162440754
0.00299339933471372
0.00297659561383335
0.00295838195774671
0.00293873049502257
0.00291760050708722
0.00289493503197195
0.00287062876452283
0.00284451904849594
0.00281633197900742
0.00278569852238628
0.00275204948515394
0.00271468185706043
0.00267245681258168
0.00262408635575183
0.00256723373468667
0.0024992220674826
0.00241025612827448
0.00233915211173279
0.00234744180722386
0.00238415832259928
0.00242493395945754
0.00245555526472828
0.00247602221948409
0.0024896337011906
0.0025018524275571
0.00250801306203552
0.00250411907615895
0.00248626492292242
0.00245176416934491
0.00239272165860048
0.00231408670467349
0.00222589403132757
0.00213558007761084
0.00204949534121151
0.00197898107662983
0.00194442245902905
0.00194687800276933
0.00199181436210563
0.00209134203724718
0.00224288025919351
0.00238610541960483
0.00227506487000228
0.00192652882674096
0.00147329231327075
0.00118336239179878
0.0014505858235188
0.00134174038232718
0.00107645922927602
0.000536515353262029
0.000235622916764918
0.000154447427260741
0.000154641627286421
0.000102271887718948
9.02327862416162e-05
8.44050835891756e-05
8.28180221836456e-05
8.79875388287743e-05
0.000100949630904812
0.000122281941896347
0.000155975541683665
0.000204952426359855
0.000269994012896847
0.000348656121966641
0.000437864955280215
0.000532693748042714
0.00062714146752239
0.000716467593427098
0.00079823219175632
0.000869389196267208
0.000930002892558071
0.000989441614182355
0.00106821795198832
0.00119663569891623
0.00140067947428572
0.00161514819856841
0.00179647788272767
0.00195741408674919
0.00210259722300827
0.00223503201799195
0.00235719430064606
0.00247076885895335
0.00257704361964689
0.00267696634209504
0.0027712567447751
0.00286046907577353
0.00294505385459203
0.00302540314189632
0.0031018379750741
0.00317447397363286
0.00324332907051608
0.0033083544870504
0.00336947496061608
0.00342668518224119
0.00348008881641687
0.00352976660365261
0.00357579033191999
0.00361823167207139
0.00365716139488166
0.00369265177267947
0.0037247783514833
0.00375362082198882
0.00377926338153687
0.00380179449856082
0.00382130644778016
0.00383789466931605
0.00385165709594117
0.00386269348404839
0.00387110454600852
0.00387699084947263
0.00388045067052573
0.00388157712267475
0.00388045350667317
0.00387715058626062
0.00387172660867289
0.00386423737036708
0.00385474987194317
0.00384334322763945
0.00383010084944752
0.00381510089647578
0.00379840130717998
0.00378003323840598
0.00375999095390355
0.00373824603419855
0.0037147632391432
0.00368949216889011
0.00366236179552741
0.00363324477945876
0.00360194317464775
0.00356812946866534
0.00353135683589755
0.0034909469842204
0.0034460480132442
0.00339531039758399
0.00333716544285149
0.00326883600670669
0.00318697890302096
0.0030797554506226
0.00299243125829164
0.00299888955755066
0.00304470842788882
0.00309745779194482
0.00313999429510212
0.00317105961072691
0.00319437938409342
0.00321562213072458
0.00322911734323927
0.00322949341397136
0.00321208468334933
0.00317356499605912
0.00310516087527139
0.00301253075538977
0.00290774510154594
0.00279999495035829
0.00269704957084936
0.00261277795564713
0.00257141003389391
0.00257516910436991
0.00263012094668656
0.00274983716966856
0.00293227934463915
0.00310902158703197
0.00298892454450969
0.00256997996187513
0.00201274626137133
0.00163455743240635
0.0019007757555944
0.00174684855510074
0.00143991832124286
0.000734131898495357
0.000310476241898474
0.000189725379383251
0.000212996322927186
0.000170637467054658
0.000150864987619843
0.000140408535743788
0.000135644618574341
0.000140942517167428
0.000157994922843694
0.000187394266411076
0.00023380893505549
0.000299777174574613
0.000384597136550073
0.000483957622595321
0.000593488701523175
0.000707234756027738
0.000818690361153254
0.000923362882319986
0.0010195913308296
0.00110548552136652
0.00118294966741651
0.00126353516805686
0.00136964573252394
0.00153279836856831
0.00177665720467872
0.00202849668182983
0.00224270335619836
0.00243349076896663
0.00260598473641431
0.00276356542621274
0.00290903239048898
0.00304431266982868
0.00317089646487834
0.00328989003306148
0.00340214149683116
0.00350830797740075
0.00360892246653379
0.00370443901731876
0.00379516665391599
0.00388123682352005
0.00396268939104217
0.00403950436367572
0.0041116528090488
0.00417917660237609
0.00424219699579067
0.00430081382371046
0.00435511889870416
0.00440520225502758
0.00445115235475654
0.00449305877456486
0.00453101430228601
0.00456511601408935
0.00459546572835432
0.00462216977733714
0.00464533849092214
0.00466508547139762
0.00468152681575467
0.00469478032374796
0.00470496448470032
0.00471219718828229
0.00471659333456862
0.0047182616356779
0.00471729953398908
0.00471379008984182
0.00470780182777674
0.00469939978476459
0.00468866107328084
0.00467567637408976
0.00466054124618055
0.00464334509983281
0.0046241544444142
0.00460300492405511
0.00457988978174496
0.00455477525523582
0.00452761847835251
0.00449835913537975
0.00446691182843475
0.00443312733580104
0.00439677278658809
0.00435746861113325
0.00431469121765266
0.00426765794041741
0.00421537038744819
0.00415627848625017
0.00408853512860426
0.00400894376232304
0.00391348302967241
0.00378856389147084
0.0036850409131532
0.00368838397113847
0.00374305665743162
0.00380852138918881
0.00386435282270827
0.00390772745512426
0.00394254077110248
0.00397441540981692
0.0039966602897231
0.00400247201082284
0.00398643996979816
0.0039446429593928
0.00386766924179576
0.0037617849709508
0.00364092648344502
0.00351598001957322
0.00339610018003375
0.00329751233175413
0.00324783718471595
0.00325076854176803
0.00331318953279826
0.00345054285760641
0.00366245288252986
0.00387450150699102
0.00375090034694858
0.00326826066162956
0.00261175162830787
0.0021450686908415
0.00240191233344008
0.00219943967549269
0.00185171262582892
0.000988181132951134
0.000404964105237736
0.000233769066789491
0.000256981540676201
0.000245428478618069
0.000227297630467955
0.000211792707869728
0.000202800350249369
0.000207420453009787
0.000228504033487853
0.000266583824530289
0.000326492068009379
0.000409844994619532
0.000514182235458944
0.000633477702142769
0.00076230958847398
0.000894007792822028
0.00102189917556247
0.00114200992939083
0.00125364184939457
0.00135616439825049
0.00145310117964255
0.00155760218881209
0.00169323500637171
0.00189197308932322
0.00217469254103559
0.00246285141804928
0.00270962031331604
0.00293021521763909
0.00313013587759919
0.00331306981617216
0.00348208890552209
0.00363933687498925
0.00378648991744929
0.00392480439319149
0.00405525185969011
0.00417858860778498
0.00429542464936715
0.00440626284203728
0.00451141264555736
0.0046110336667354
0.00470519479625709
0.00479391204272666
0.00487720370566885
0.00495515350793153
0.00502790200263897
0.00509557034030248
0.00515827179347763
0.00521611612417127
0.00526921064893659
0.00531766321159073
0.00536158460368891
0.00540108985917613
0.00543629881251587
0.00546733589293139
0.00549432956992712
0.00551741155498875
0.00553671592616837
0.00555237821664404
0.00556453426022855
0.00557331872450553
0.00557886251616967
0.00558128932738956
0.0055807102357613
0.00557722027213988
0.00557089803406383
0.00556181746728244
0.00555006516112756
0.00553574249790325
0.00551895621167263
0.0054998060170994
0.00547836629570651
0.00545467678802027
0.00542872970469489
0.00540048597172465
0.00536989500146216
0.00533688653000521
0.00530136082209407
0.00526314736602386
0.00522197950035616
0.00517742782843817
0.00512889550447755
0.00507550134948914
0.00501610648632367
0.00494897350675823
0.00487198564068831
0.00478155449723675
0.00467299189550855
0.00453129075645053
0.00441196875842181
0.00441106396670495
0.0044740233289087
0.0045526034447087
0.00462279071835241
0.00467990810040575
0.00472772336766796
0.00477155884160212
0.00480368644898704
0.00481586171468116
0.00480195764211893
0.00475752224664258
0.00467273054094685
0.00455435336068249
0.00441796884719117
0.00427602749509893
0.00413896683443647
0.00402508103448343
0.00396486624448734
0.003963887443214
0.00403035529807077
0.00418249360624411
0.00442306348191092
0.00467360130477191
0.00455152156368239
0.00401244819337739
0.00326272280744516
0.00270849711884734
0.00294951366399553
0.00269659688487421
0.00230484469364775
0.00130819354056065
0.000526473412880313
0.000287566287884885
0.000296243210995786
0.000306993717354356
0.000313922199721719
0.000296381930436298
0.000283010644617782
0.000286496785762692
0.000311522083274215
0.000358587748576851
0.000432221309485171
0.00053277147898713
0.000655966255264785
0.000794286975943167
0.000941476316069148
0.00109041069812101
0.00123450850889996
0.00137049548866425
0.00149871863612184
0.00161977145299007
0.00173849961401814
0.0018691444143887
0.00203587759533048
0.0022705639372287
0.00259105628539506
0.00291445539374153
0.00319333946494519
0.00344353058209826
0.00367081069242733
0.00387911550361149
0.00407174324072256
0.0042510315077098
0.00441882755561592
0.00457653020505289
0.00472522968976458
0.00486577794457294
0.00499885812841089
0.00512501118798167
0.00524456669758555
0.00535771883269283
0.0054645720890121
0.00556518375964933
0.00565961908748787
0.00574800020012365
0.0058304891559633
0.00590723053863395
0.00597836055774391
0.0060440100769671
0.00610430640318786
0.00615937655048214
0.00620934998310329
0.00625436013914857
0.00629454510753252
0.00633004746278682
0.00636101368920913
0.00638759332465519
0.00640993799913352
0.00642820041245484
0.00644253304816267
0.00645308654594519
0.00646000694429667
0.00646343204683311
0.00646348581746405
0.00646027470410533
0.00645388696723467
0.00644440495027471
0.00643192391459121
0.00641655489427319
0.00639841462772754
0.00637761199773583
0.00635422839686327
0.00632830717301585
0.00629983946477324
0.00626878098591212
0.00623507348866524
0.00619863693445577
0.00615935760968724
0.00611704473211414
0.00607139946721056
0.00602194624354151
0.00596801961387692
0.00590864746616791
0.00584255950262649
0.00576784688278305
0.00568213783482217
0.00558148546382523
0.00546056773221974
0.00530330144225201
0.00516892922253544
0.00516285325765958
0.00523329035854589
0.00532505426737589
0.00541033327277959
0.00548233225361825
0.00554436903342497
0.00560121014625351
0.00564407237758434
0.00566329998565027
0.00565209081036042
0.00560553939528163
0.00551361174537003
0.00538347886607005
0.00523209542327487
0.0050732767912858
0.0049185571739805
0.00478789039922748
0.00471412665103003
0.00470529323720584
0.00477179409955202