/*--------------------------------*- C++ -*----------------------------------*\
  =========                 |
  \\      /  F ield         | OpenFOAM: The Open Source CFD Toolbox
   \\    /   O peration     | Website:  https://openfoam.org
    \\  /    A nd           | Version:  7
     \\/     M anipulation  |
\*---------------------------------------------------------------------------*/
FoamFile
{
    version     2.0;
    format      ascii;
    class       volVectorField;
    location    "10000";
    object      U;
}
// * * * * * * * * * * * * * * * * * * * * * * * * * * * * * * * * * * * * * //

dimensions      [0 1 -1 0 0 0 0];

internalField   nonuniform List<vector> 
15600
(
(0.0584401368684532 -0.000170553220815971 -1.28049714006422e-21)
(0.0697602302996484 -0.00190446063640422 -2.63901919023481e-18)
(0.0400783639145104 -0.00531043535641642 0)
(-0.0126002981975517 0.00196422378336638 -2.18819889926076e-17)
(-0.0285048317344471 0.0120607844907876 -2.57331213217845e-21)
(-0.019115995034784 0.0112280433122075 -7.54431285803633e-21)
(-0.0111979432345311 0.00782222866889859 -4.2380405956222e-17)
(-0.00808520593894171 0.00619813755513401 4.33381164725012e-17)
(-0.00588126324101105 0.00477951711125643 -1.26299972690559e-14)
(-0.00461053538591106 0.00382248110623508 -1.32204899337399e-14)
(-0.00362753684033548 0.00301144917482825 1.21700350915668e-20)
(-0.00321759425907697 0.00264863457364704 -2.56635723620799e-20)
(-0.00305199072632795 0.00250372646163904 2.69651121144443e-20)
(-0.00322803474914279 0.0026371687889065 -5.76817865516378e-17)
(-0.00379680932249054 0.003071931701035 -6.01126418622208e-17)
(-0.00475674340638614 0.00379571134695381 -6.07900428093868e-20)
(-0.00596833784971614 0.00467825206234268 -6.42538981862946e-17)
(-0.00726046773723719 0.00552326871100536 1.33417182550323e-16)
(-0.00857168023905403 0.00622617520289918 -6.92419003232556e-17)
(-0.00974258772788239 0.00663430233990155 -7.25989329098034e-17)
(-0.0105746081399361 0.00660431594491877 7.58734799315603e-17)
(-0.0110622383755637 0.00615344035863289 -7.93947264736958e-17)
(-0.0113279232835232 0.00544130835889631 -8.27317725880353e-23)
(-0.0112299773556354 0.00450343758908255 8.5910048562646e-17)
(-0.0106749356753906 0.00339991801321046 0)
(-0.00982441552086134 0.00226390165331431 0)
(-0.00804052682934143 0.00108798539852198 -6.69733954048713e-15)
(-0.00915685969992489 0.000395824225542241 -6.79412539976832e-15)
(-0.0160464700537486 8.75167085579741e-05 2.1362937128104e-23)
(-0.023087380990237 9.32467466356953e-05 6.26351798904641e-31)
(-0.028572743461223 0.000108991506417314 0)
(-0.0333637605495396 0.000118997219417 -7.22330515088747e-15)
(-0.0373884720499532 0.000128517359907014 -7.26030300576306e-15)
(-0.0408618791386256 0.00013569546071302 0)
(-0.04385907368025 0.000141935431879729 0)
(-0.0464734531409446 0.000146751684875307 0)
(-0.0487566569450871 0.000150470396739467 0)
(-0.0507538129000626 0.000152992470546324 -8.14348974325852e-20)
(-0.0524941982069072 0.000154412475828649 6.72645151257723e-15)
(-0.0540011331377105 0.000154739705953121 6.78929093334239e-15)
(-0.0552912429772768 0.000154022526253396 -8.09392649399256e-20)
(-0.056377531296522 0.000152293961774579 -8.11922173168412e-20)
(-0.0572700202552335 0.000149595093234234 8.10034039512921e-20)
(-0.0579771609431473 0.000145975803292895 -8.13733636682761e-20)
(-0.0585066014843484 0.00014149116686649 8.12528542119937e-20)
(-0.0588651944976569 0.000136172591523585 0)
(-0.0590578335139407 0.000130042975537388 -7.05976105618723e-15)
(-0.0590884262134735 0.000123195604326892 -7.12810714147332e-15)
(-0.058964893765441 0.00011570918084861 -8.23585350299584e-20)
(-0.0586938397358238 0.000107686259105532 4.12592881157804e-20)
(-0.0582826643858481 9.92207113304269e-05 -4.15910567850646e-20)
(-0.0577390920385853 9.03877413935518e-05 8.34065745056359e-20)
(-0.057071003644946 8.12593955958699e-05 -6.96915707181489e-15)
(-0.0562864652496366 7.1906731526262e-05 -7.03013944731516e-15)
(-0.0553937160060533 6.23978765047575e-05 -2.11416383524456e-20)
(-0.0544011257561706 5.27980010488858e-05 0)
(-0.0533171487963697 4.31678885691234e-05 1.24767917782693e-30)
(-0.0521502594574953 3.35637112788754e-05 -1.08051132432939e-20)
(-0.0509088929218334 2.40364288860823e-05 1.62713808996386e-20)
(-0.049601381722014 1.4631561584241e-05 -5.45299040516975e-21)
(-0.0482359010806639 5.3893835642411e-06 0)
(-0.0468204123541789 -3.65565250212622e-06 1.10956902845367e-20)
(-0.045362614325125 -1.24738185135781e-05 -1.11329866023515e-20)
(-0.0438698860356623 -2.10419178965348e-05 1.30750065100828e-30)
(-0.0423492411773579 -2.93406955861543e-05 0)
(-0.0408072776425547 -3.73587461524087e-05 -2.28209311127031e-20)
(-0.0392501622668428 -4.50873978824458e-05 2.29069942038272e-20)
(-0.0376836842857991 -5.25237762691902e-05 0)
(-0.0361133371030416 -5.96651631107107e-05 0)
(-0.0345445513587281 -6.65045632552913e-05 0)
(-0.0329827235949967 -7.30379456804666e-05 0)
(-0.0314329790117557 -7.92693730308269e-05 0)
(-0.0299000622767131 -8.52038383712818e-05 7.99818370860979e-15)
(-0.0283881654274375 -9.08586805998304e-05 1.60555387860812e-14)
(-0.0269009490447288 -9.62452036448883e-05 8.05257403037527e-15)
(-0.0254416744028619 -0.000101383599879537 -1.95315037088855e-19)
(-0.0240133047451455 -0.000106287715598663 9.816257515507e-20)
(-0.0226190621226562 -0.00011096118898085 -9.9043480145488e-20)
(-0.0212621866000488 -0.000115425234409896 9.94107895003246e-20)
(-0.0199461582301935 -0.00011967925669702 8.38219784947497e-15)
(-0.0186743140862832 -0.000123763957741372 8.34916240776109e-15)
(-0.0174504772646656 -0.000127668128434006 -1.01208478768974e-19)
(-0.016278399367505 -0.000131463185630488 1.02012968354541e-19)
(-0.0151636439136903 -0.000135101621591588 -2.04915313870581e-19)
(-0.0141122837772244 -0.000138710765420882 1.02891459813925e-19)
(-0.0131346910898614 -0.000142179514941736 -2.07274169238629e-19)
(-0.0122429111441056 -0.000145735346792502 4.16146026782089e-19)
(-0.011455882564387 -0.00014921543193275 -2.08835045838466e-19)
(-0.0108008212584189 -0.000152869592861529 -2.10160816757701e-19)
(-0.0103039967383203 -0.000156897061251151 4.21602986899649e-19)
(-0.0100312884437988 -0.000161527784984481 -2.11363511205668e-19)
(-0.00990115285854657 -0.000167294659051389 -2.59011649358972e-23)
(-0.0103651074966678 -0.000481235948167027 0)
(-0.0104375253241787 -0.00131549799017772 2.12825584582429e-19)
(-0.0100223437118763 -0.0020196103109558 -5.42486821241451e-17)
(-0.00932108941425211 -0.00255236308344531 -4.18755946343591e-22)
(-0.00801878521076327 -0.00269992508802689 -1.02393748895433e-16)
(-0.00627836237090917 -0.00241921934131383 -9.97579711017333e-17)
(-0.00397710321457253 -0.00155758084732922 9.59987387437043e-17)
(-0.000927841095111213 6.25596458000453e-05 -9.21627155043335e-17)
(0.00289518630321391 0.00250378280490131 8.79371637595777e-17)
(0.00745582473613068 0.00569243344209803 8.36066287125691e-17)
(0.0126349804829252 0.00947734476514786 0)
(0.0183524350444586 0.0136780979774841 0)
(0.0239987029652933 0.0178034686532931 -7.30220209903134e-17)
(0.0291540982370989 0.0216718122718169 -6.99544957245855e-17)
(0.0341910307718855 0.025615969381608 -6.67970430914863e-17)
(0.0393809416778441 0.0298721852332079 -6.35079337649251e-17)
(0.0451786804046489 0.0347970567865566 -6.0069585287988e-17)
(0.0522822427773963 0.0409442837052315 5.63476625893367e-17)
(0.0628367870065958 0.0494906926114037 5.24366098235953e-17)
(0.0781005065218062 0.0601215422056168 -4.8826882738062e-17)
(0.0980472862700104 0.0715535225227919 4.5432383255393e-17)
(0.126614436685931 0.0838988475265051 4.2169950417241e-17)
(0.164232743534611 0.0926932594409868 -3.89679910949348e-17)
(0.207955737465923 0.0883103598333918 0)
(0.204924218489503 0.0528263937997198 1.71153413143804e-17)
(0.144068999351522 0.0169367276665762 0)
(0.0749624986984777 0.00177263226478348 -2.3593589466353e-18)
(0.0480206677827919 -0.000216960851766102 0)
(0.205034198776472 -0.000808463864500804 0)
(0.219956178141972 -0.0048778953386582 -3.1600639748952e-22)
(0.152779516474907 -0.0148435088150795 -6.42923558132215e-21)
(0.010095094580795 0.000343983977455784 2.10497945829371e-14)
(-0.0632329125816735 0.0305238336700874 2.10776135777628e-14)
(-0.050255353419963 0.0307126853142583 -6.21399877132233e-17)
(-0.030695684052759 0.0220075328261062 5.91807327406832e-24)
(-0.0223216872980862 0.0176410974371299 -6.53714825496445e-17)
(-0.0166407636826845 0.013826233987922 1.92386181012591e-14)
(-0.0133215134341359 0.0111971728924942 2.00319217014839e-14)
(-0.010870886285688 0.0090029529724478 -3.70534384233501e-20)
(-0.00989693296869723 0.00804326675291456 3.91704094557099e-20)
(-0.00967234947355601 0.0077426245068148 -4.10450588893594e-20)
(-0.0104065298599982 0.00825923355230954 -8.75613179525659e-17)
(-0.0122263186447585 0.00964586409467331 1.80988084255632e-16)
(-0.0150642369967053 0.0118303449698184 -9.06642874267668e-20)
(-0.018525624362635 0.0144214226421873 9.51448123416636e-17)
(-0.0221761167421163 0.0168660154553385 -9.76840907110143e-17)
(-0.0258318406076796 0.0188485891630353 1.95261448074324e-19)
(-0.0291288771184634 0.0199560521024542 -2.01147143599494e-19)
(-0.0317065018042467 0.0198542214192547 -1.06131034289289e-16)
(-0.0336129043382655 0.0186111689206216 1.09942892142901e-16)
(-0.0350697235264865 0.0166081365564772 1.13685922773104e-16)
(-0.0358028777176932 0.0139490918246806 -2.2796099790312e-19)
(-0.0356672862141753 0.0107974481753558 5.96088873610112e-17)
(-0.0349249088192186 0.00745686966484474 -6.08348229074978e-17)
(-0.0338731086479011 0.00427096740253523 8.96668159543441e-15)
(-0.0403506575975389 0.00234985335229495 8.39698618135127e-15)
(-0.0582306829315979 0.00140528720302678 -5.0683203576078e-23)
(-0.0754751124086919 0.00120533937667007 -7.14468791087327e-31)
(-0.0887421536689674 0.00100753060588961 0)
(-0.0998813363958767 0.000848637099853074 7.90483746456196e-15)
(-0.109063774017797 0.000721964147489351 7.56180635189024e-15)
(-0.116817641789818 0.000619357181826672 3.4319294662475e-19)
(-0.123380915584684 0.000536410152270962 -1.67792953645966e-19)
(-0.128979499686358 0.000466810695805713 -1.65006199145571e-19)
(-0.133749134444655 0.000407337679777807 1.62071387180661e-19)
(-0.137799267652868 0.000354967096440029 1.16439135079691e-30)
(-0.141204784259849 0.000307914892106653 -6.62296707669602e-15)
(-0.144024515887628 0.000264782349772177 -6.48778093980235e-15)
(-0.146302524155823 0.000224646328764477 0)
(-0.148074239767855 0.000186845611685303 7.7290752501442e-20)
(-0.149368533498738 0.000150964430645935 2.42857076148654e-22)
(-0.150210588769028 0.000116797634764626 -7.635879955409e-20)
(-0.150623987393695 8.4248287469174e-05 -7.64181680016052e-20)
(-0.150632136798014 5.29796591123704e-05 1.52356748536957e-19)
(-0.150253452520569 2.24320802094926e-05 6.60637500353105e-15)
(-0.149498760312075 -7.11787021157581e-06 6.55872830928112e-15)
(-0.148389850292477 -3.5146702371031e-05 7.59081520512161e-20)
(-0.146949223091119 -6.16816205131574e-05 0)
(-0.145197503849835 -8.67024141903713e-05 -3.82532105835991e-20)
(-0.143155473749992 -0.000110176191046949 3.82446236372016e-20)
(-0.140843776674042 -0.000132083488786532 6.4235785899611e-15)
(-0.138282978015727 -0.000152402167454759 6.43558563628358e-15)
(-0.135493543408062 -0.000171116538767209 -1.95121936074234e-20)
(-0.132495772678599 -0.000188217775354473 -7.51871861346358e-23)
(-0.129309725940801 -0.000203707676337008 -7.53755447945439e-23)
(-0.125955127914866 -0.000217598329271519 1.99043871889434e-20)
(-0.122451281655347 -0.000229912585364896 -5.04170048030893e-21)
(-0.118816980011693 -0.00024068343533222 5.07326828216644e-21)
(-0.115070429761631 -0.000249952731544202 -5.14609627470737e-21)
(-0.111229174551898 -0.000257772194389423 5.18477636403113e-21)
(-0.107310026163632 -0.000264200586607801 2.10572301148167e-20)
(-0.103328987730654 -0.000269308248755637 -2.12389244687372e-20)
(-0.0993011969025949 -0.000273169033726608 0)
(-0.0952408820010884 -0.000275867507233014 0)
(-0.0911614023399649 -0.000277477325448886 0)
(-0.0870754044746345 -0.000278063769413575 0)
(-0.0829950502313388 -0.000277662293463237 0)
(-0.0789323615004116 -0.000276281397273268 0)
(-0.0748991380614881 -0.000273951024096662 0)
(-0.0709065367131684 -0.000270739544122753 9.51464047971317e-20)
(-0.0669648782958418 -0.00026672587749501 -8.00542246820365e-15)
(-0.0630834154096028 -0.000262022719351206 -1.63070223117153e-14)
(-0.0592704775570002 -0.000256703020095301 -8.30928069415433e-15)
(-0.0555337672898293 -0.000250838519285468 -2.01888608713433e-19)
(-0.0518807354867775 -0.000244436007341144 -2.68280659704986e-22)
(-0.0483194535190655 -0.000237451845787975 1.03987091946337e-19)
(-0.0448581979221877 -0.000229899504907329 1.05888195669475e-19)
(-0.0415058417761624 -0.000221718632414406 -8.90158180225996e-15)
(-0.0382713311262632 -0.000212961193836957 -9.13573387457041e-15)
(-0.0351649480276398 -0.000203469407301278 1.10723304863328e-19)
(-0.0321976833187114 -0.000193266719142836 0)
(-0.0293849512741639 -0.000181876969005502 2.290520208363e-19)
(-0.0267446406663407 -0.00016924318654547 -2.32202662990495e-19)
(-0.0243048641779171 -0.000154312189970229 -2.36431494123394e-19)
(-0.0220991534285647 -0.000136939552391006 2.39761677398186e-19)
(-0.0201791706864388 -0.00011514676309426 0)
(-0.0186150186751846 -8.84265943615804e-05 0)
(-0.0174876329410171 -5.49407884229368e-05 2.52485420862765e-19)
(-0.0169533114138064 -1.39303444847074e-05 -5.13349369942342e-19)
(-0.0170047801259193 3.00478229391397e-05 2.60512733733222e-19)
(-0.0183036733874643 -0.000595310582122203 0)
(-0.0182139923845931 -0.00238150983802242 7.67355515388059e-23)
(-0.0167499091241628 -0.00374414191936631 0)
(-0.0144158378332455 -0.00461676047726549 6.49193653108763e-17)
(-0.0107283974908646 -0.00448755488165671 -1.27191336572876e-16)
(-0.00600201116770886 -0.00325011568549243 -2.43131204467393e-19)
(-1.82770582215668e-05 -0.000550433356335036 2.34450502896885e-19)
(0.00759940642511523 0.00401011317839775 2.21893718971579e-19)
(0.0168329193204224 0.0105487392972698 -1.06640807763665e-16)
(0.0276216214314215 0.0188810134740106 -1.94796283475886e-19)
(0.0397345740305142 0.0286596900832955 -9.44000172669527e-17)
(0.0530426601174334 0.0394674418167512 0)
(0.0664731117236961 0.0502752410170092 0)
(0.079202304153495 0.0606842886531847 8.30308159494235e-17)
(0.0916942929716539 0.071357701002388 7.97894595426893e-17)
(0.104483161440403 0.0828655520286693 7.64035577339552e-17)
(0.118472853629089 0.0960418299756781 2.6943926952684e-20)
(0.135041104511717 0.112150307886588 -6.82903038166377e-17)
(0.158275768112186 0.133649420670758 -1.26434646441025e-16)
(0.19137260260634 0.159798921957361 0)
(0.235280827672052 0.187517632395355 0)
(0.296621495809542 0.215829437470557 -4.71168674022877e-17)
(0.377077307491939 0.234534517005584 -4.15295308562688e-17)
(0.474585557915852 0.224152135816504 3.753838644647e-17)
(0.509963968241092 0.148849043283959 -1.74129342596803e-17)
(0.432502124634627 0.0604328787435936 0)
(0.292119498551509 0.0115849848121605 0)
(0.209107633291622 0.000336143016345588 0)
(0.364112945227541 -0.00048151599135812 0)
(0.366754140389298 -0.0066971271228808 2.28773532211292e-18)
(0.284752838837844 -0.0235730238809892 0)
(0.0782128126247019 -0.0108304959596667 -1.69258567120819e-14)
(-0.0756248254091821 0.0391643169365855 -2.02519492967395e-14)
(-0.0757674096516809 0.0456135792857038 6.1829699097064e-17)
(-0.0483470502068573 0.0338044331120155 0)
(-0.035411219398809 0.0274551103136841 8.06018639702465e-21)
(-0.0268841127160505 0.0219842723999576 -6.92247880722374e-17)
(-0.0218483369126563 0.0181157348697136 7.30546101570374e-17)
(-0.0182525125517202 0.0149644401142841 2.54105211997621e-23)
(-0.0168924066424631 0.0136622605979242 -4.00352456753248e-20)
(-0.016805672870423 0.0134565983332286 0)
(-0.0182545228496234 0.0145710479573153 8.84701374430047e-17)
(-0.0214122318283737 0.0170557439437661 1.5602688081252e-21)
(-0.0260952847431928 0.0207210660565274 -8.97647643619881e-20)
(-0.0316679820874683 0.0249126325881729 9.0660484971876e-20)
(-0.0374838230529621 0.0287742654480571 0)
(-0.0432416976465733 0.0317965603874639 0)
(-0.0484695223314345 0.0334013820444408 0)
(-0.0528104009042613 0.0332016061115669 0)
(-0.0564201370887282 0.0313207075448047 -9.77246730865826e-17)
(-0.0595702366806698 0.0282432756999402 -9.78744722585565e-17)
(-0.0619975914519501 0.0241325688965274 1.9226434880699e-19)
(-0.0636389230780278 0.0192138716261502 -1.92997265114751e-19)
(-0.0650806320431798 0.0139468225761565 9.77693857946274e-17)
(-0.0681223556317241 0.0089838425091588 4.74953475331339e-17)
(-0.0806901855699081 0.00544256150608323 1.67147120657633e-19)
(-0.104559956535801 0.00365804936926484 3.62796495535638e-23)
(-0.125894647267717 0.00308923164062239 0)
(-0.141669831726158 0.00250209961848627 0)
(-0.154302133435717 0.00206386670484513 0)
(-0.164346986993808 0.00172122573079523 0)
(-0.172519636300425 0.00144957810558803 0)
(-0.179177213284072 0.00122964858962452 0)
(-0.184615968581888 0.00104544666985053 0)
(-0.189021648059828 0.000887352008200314 0)
(-0.19253819842839 0.00074793221794275 0)
(-0.195267261811854 0.000622468672538139 4.93760139998725e-20)
(-0.197288342729756 0.000507525484492593 -4.8348571642304e-20)
(-0.198662447779471 0.000400769751520536 4.76986741327366e-20)
(-0.199439053955087 0.000300566273051489 -4.68772091406118e-20)
(-0.19965893172536 0.000205831162489141 0)
(-0.199357052846043 0.000115935738795059 0)
(-0.198563986235312 3.05712769965719e-05 4.54560763496332e-20)
(-0.197309639955254 -5.07630833912601e-05 1.5706062841758e-22)
(-0.195625531555142 -0.000128714502201533 -4.44343195724646e-20)
(-0.193539070971064 -0.000202927232396638 0)
(-0.19107701105315 -0.000272826695047774 0)
(-0.188265292865071 -0.000338504054892343 0)
(-0.185129101677676 -0.00040001890995957 0)
(-0.181692974900994 -0.000457368564658889 0)
(-0.177980881660357 -0.000510564535399619 2.17143818301559e-20)
(-0.174016300726368 -0.000559612532615086 -2.16301598093594e-20)
(-0.169822243004686 -0.00060452888740417 -1.08682638609523e-20)
(-0.165421229541852 -0.000645342572839346 -4.16517348654437e-23)
(-0.160835255538527 -0.000682101600429821 -4.15563304380498e-23)
(-0.15608573491395 -0.000714872624476034 1.09278478013153e-20)
(-0.151193449076891 -0.000743741512039524 0)
(-0.146178491395397 -0.000768812222709859 0)
(-0.141060219648934 -0.000790204821263048 0)
(-0.135857203239235 -0.000808057006849449 0)
(-0.130587178077358 -0.000822519787372994 1.13366366403444e-20)
(-0.125266991082456 -0.000833763412997013 3.99040370088181e-23)
(-0.119912575121286 -0.000841962917595737 -1.15069939185027e-20)
(-0.114538935999031 -0.000847303994070001 0)
(-0.109160245352208 -0.00084994350289232 -2.35803500232683e-20)
(-0.103790022491149 -0.000850008446130207 2.37717937020478e-20)
(-0.0984413855637254 -0.000847564551938691 -2.413388584475e-20)
(-0.0931273429415391 -0.000842639855011667 -7.55480210749276e-23)
(-0.0878606278419423 -0.000835317739657796 -2.48288498388132e-20)
(-0.082653278350128 -0.00082575777914146 5.00298904513704e-20)
(-0.0775164932925245 -0.000814143208361349 0)
(-0.0724604428406201 -0.000800701535198102 0)
(-0.0674945214188221 -0.000785575530131999 5.23850075145792e-20)
(-0.0626276735135164 -0.000768873717670395 1.4251042822475e-22)
(-0.0578688682941117 -0.000750562147006463 -5.38837066043539e-20)
(-0.0532279465226834 -0.000730520370910727 -5.48995708834164e-20)
(-0.04871514233045 -0.000708715949167738 5.56744982178477e-20)
(-0.0443415979974366 -0.000684994335008379 -5.67683202641944e-20)
(-0.0401188406029577 -0.000659335621525077 -1.36542716107954e-22)
(-0.0360603912609928 -0.000631340131232807 5.86793960924075e-20)
(-0.0321811260773219 -0.000600761108846981 1.19832540842925e-19)
(-0.028501724195148 -0.00056645960574946 2.67819644132212e-22)
(-0.0250464672323256 -0.000527719869866676 -1.24373300657462e-19)
(-0.0218525241540568 -0.000482072532150919 0)
(-0.0189644536089229 -0.000428115480538493 -1.30201870598031e-19)
(-0.0164500307362796 -0.000360953871531039 1.33143875233781e-19)
(-0.0144003592020264 -0.000277954601444588 1.37012345403651e-19)
(-0.0129258296470841 -0.000172072171337681 -1.40909673921173e-19)
(-0.0122344437611573 -4.11098059817478e-05 0)
(-0.0124100121278765 0.000122830479421057 0)
(-0.0140856723396965 -0.000326256132833268 4.97941380726325e-18)
(-0.0137419095889867 -0.0019238633716103 3.9352341699146e-17)
(-0.0115298580639117 -0.00286549845520077 1.50760509192615e-19)
(-0.00812927356921833 -0.00314763375686194 -3.74553404164185e-17)
(-0.00310664020035059 -0.00214620644704748 -1.36048424135551e-21)
(0.00323988227476282 0.000268308111091029 0)
(0.0111586944533982 0.00451532376674833 0)
(0.0210929878107567 0.0110128379674983 1.22830334065092e-19)
(0.0330587757256776 0.0198930654956925 -1.16158945917152e-19)
(0.0470160277861968 0.0309437035821362 1.08325227568145e-19)
(0.0627421370536031 0.0437999576146938 5.42517598047815e-17)
(0.0801134615766232 0.0579891522857109 -5.24878153223732e-17)
(0.0981106558416592 0.0725399091441011 0)
(0.11581919074113 0.0870806036360277 -4.9258263414052e-20)
(0.13358147848591 0.102275039733984 4.86398814394724e-20)
(0.151963635516128 0.118768582556332 0)
(0.171970590917855 0.137493606498655 4.75392528080631e-17)
(0.195147475715544 0.159808192132773 0)
(0.225957622718693 0.187926379532368 4.26478918269028e-17)
(0.268616665434748 0.220716879971765 -4.729482028121e-21)
(0.324524898141862 0.25424351190506 4.39843148727274e-21)
(0.39980978082414 0.285500642014873 3.12185561438496e-17)
(0.495725821469461 0.301993938905163 2.68771371441942e-17)
(0.610707416264489 0.282721522597566 -4.78449471460557e-17)
(0.679629505849684 0.197489062201706 1.15562303027133e-17)
(0.638966822829371 0.0932616853932484 0)
(0.504523204444909 0.024923679961565 1.69990844602026e-18)
(0.395936631984496 0.00352722034115163 -9.88312969396786e-22)
(0.487022405625887 0.000963717336220805 7.26419680551424e-22)
(0.47670387906242 -0.00712037811049835 -7.30220553283839e-22)
(0.40038885376098 -0.0290953413127156 6.2961043287867e-18)
(0.171638997991035 -0.0247553946542459 0)
(-0.0604540701444064 0.0379495814761122 -5.12922721536951e-17)
(-0.0944627407433319 0.056549286695261 -6.16317495744767e-17)
(-0.0639151146053627 0.0435453597692526 0)
(-0.0471461060867082 0.0358008094688808 0)
(-0.0364435251899075 0.029310730543575 6.97413487001418e-17)
(-0.0300911049147871 0.0246150272141216 -7.38480422121938e-17)
(-0.0257175795287181 0.0208895943672122 7.86090819330474e-17)
(-0.0241865408750056 0.0194881991737023 -4.06007736063688e-20)
(-0.0244477494058046 0.0196028732940459 0)
(-0.0267575186513756 0.0214913388723303 -8.7897583291416e-17)
(-0.0312853700895526 0.0251563479741068 -8.85370322106466e-17)
(-0.0376740667734396 0.0302339308235546 8.60417341329112e-20)
(-0.0450511876602661 0.035803649169366 -8.72203181545965e-17)
(-0.05259583482947 0.0407456890545827 -8.54066187196699e-17)
(-0.0599009382643873 0.0443921144239622 8.36490653828085e-17)
(-0.0664753608919978 0.0461015384978538 -8.13240132696566e-17)
(-0.0720639909563664 0.0455394719960169 0)
(-0.0769349567111336 0.0429035550482453 7.63658503084474e-17)
(-0.08139680137399 0.0387599844114092 1.44397629446749e-19)
(-0.0853344846451337 0.0333739149414644 -7.16735302789137e-17)
(-0.0889481741480515 0.0270584260342533 -3.47708329248086e-17)
(-0.0931960828119287 0.0203733852495524 -3.42645985204581e-17)
(-0.100260020182568 0.0139867944273485 -1.60514868498151e-17)
(-0.115885212330632 0.00883514586145737 3.57658333960752e-18)
(-0.139131343983395 0.00613813978430917 -2.37740934955916e-23)
(-0.158250052633254 0.00504020297794733 -8.78501823791967e-20)
(-0.172044123192804 0.00398030669585645 8.11160159647142e-20)
(-0.182855255435579 0.00322292391112024 0)
(-0.191301127477417 0.0026413597594857 0)
(-0.198042873606034 0.00218707746129669 -6.82326125104875e-20)
(-0.203406381176453 0.00182086784640986 6.5213561365201e-20)
(-0.207654732759033 0.00151574317637443 -6.28420466018211e-20)
(-0.210952849286284 0.00125458052206301 6.05772709705506e-20)
(-0.213427891551389 0.00102515869121278 0)
(-0.215170131760852 0.00081948808174203 0)
(-0.216250366273663 0.000631919756271958 0)
(-0.216723269766738 0.000458557696323641 0)
(-0.21663345143004 0.000296675833387836 2.6719667952512e-20)
(-0.216017920143977 0.000144411796956422 -2.61464037434376e-20)
(-0.214908750141568 6.68273956020779e-07 -2.57776238562411e-20)
(-0.213337123180568 -0.000135067616402016 5.0612678304231e-20)
(-0.211331167639978 -0.000263323017812447 -2.48654717404454e-20)
(-0.208916637051834 -0.000384912923046921 0)
(-0.206123097871937 -0.000499806677357429 0)
(-0.20297546245134 -0.000607577227023232 0)
(-0.199497962268298 -0.000708378121425277 0)
(-0.195714434938936 -0.00080235201963306 -1.18086852479927e-20)
(-0.191648134070177 -0.000889572919354329 -2.63373911907815e-15)
(-0.187321866724838 -0.000970116945788596 -2.63175022460936e-15)
(-0.182758040892186 -0.00104404837907998 -1.15815844742837e-20)
(-0.177978674982001 -0.0011114415705974 -1.15945408572978e-20)
(-0.173005367906893 -0.00117238525769296 1.15318123292499e-20)
(-0.167859256816446 -0.00122699124993591 0)
(-0.162560959578074 -0.00127539444025423 0)
(-0.157130521600599 -0.00131775362867947 0)
(-0.151587359652526 -0.00135425025589144 0)
(-0.14595021380776 -0.00138508613554067 0)
(-0.140237094333289 -0.00141048538076613 0)
(-0.134465238006547 -0.0014306893304932 0)
(-0.128651053508989 -0.00144596287468412 0)
(-0.122810100930909 -0.00145657556680036 0)
(-0.116957078921704 -0.00146280444421476 0)
(-0.111105919933535 -0.00146488114655254 -1.20844931435907e-20)
(-0.105269961393297 -0.00146298626093109 2.74855137153525e-15)
(-0.0994621856993169 -0.00145721097051273 2.76114737701394e-15)
(-0.0936954917907366 -0.00144760102577332 -1.23754404812064e-20)
(-0.0879825240369991 -0.00143428805929735 2.50809206705039e-20)
(-0.0823352680385838 -0.00141751057934376 -2.52760737408017e-20)
(-0.0767649311671407 -0.00139754266414059 2.56375284642034e-20)
(-0.0712817711003576 -0.00137470426774799 -2.58676611717773e-20)
(-0.065895363256355 -0.00134919257255381 0)
(-0.0606149175992922 -0.00132113390999536 2.6597620993777e-20)
(-0.055449748195806 -0.00129044124395219 -2.68822928924442e-20)
(-0.0504101006433561 -0.00125691309812165 0)
(-0.0455066911666357 -0.00122044829723176 0)
(-0.0407512373870712 -0.00118079618897828 0)
(-0.0361559713783293 -0.00113781916697184 0)
(-0.0317352630129611 -0.0010908872192508 0)
(-0.0275050152715976 -0.00103940588830444 0)
(-0.0234870437660528 -0.000981634056958357 0)
(-0.0197069828277802 -0.000916062342714114 -6.13022793256821e-20)
(-0.0162032774394105 -0.000838951200232678 1.24994844300728e-19)
(-0.013022038375828 -0.000747416887971637 -1.27791482665065e-19)
(-0.0102319995293121 -0.000633826451477245 6.54163454181285e-20)
(-0.00792534014696476 -0.000493214719874018 0)
(-0.00621314202294212 -0.000312377569089978 0)
(-0.00530425231007171 -8.71315663188506e-05 0)
(-0.00530272692838849 0.000205402437784098 -7.54723058743448e-20)
(-0.00683043592385445 1.47853092175105e-05 -4.92035907659957e-18)
(-0.00636632875211347 -0.00114374803486729 -9.82469245983628e-18)
(-0.00387387055964729 -0.00154014416296407 1.92045688744365e-17)
(-7.13656291035943e-05 -0.00122214728758625 7.25622840081066e-20)
(0.00542482336307864 0.000451996649264935 7.11784974661763e-17)
(0.0123632131982506 0.00362995629396657 -6.66329496569236e-20)
(0.0209850782890948 0.00872501788959511 6.35121714449579e-20)
(0.0317101289219098 0.0161104199127356 3.10446788169517e-17)
(0.0445961286920261 0.0259218524740159 -2.95882735469562e-17)
(0.0596117944179217 0.0379534263261769 -2.84527110149699e-17)
(0.076565105907616 0.0518720669485411 -5.3632592486993e-20)
(0.0953341205767137 0.0672147244727792 5.81603959261265e-20)
(0.115064591851057 0.0831853942697678 -2.58981830711966e-20)
(0.134925843551659 0.0995200545533202 5.17402206014842e-20)
(0.155205171620898 0.116851274432326 -2.65070224130409e-17)
(0.176453703772285 0.135820424085756 2.57196565154661e-20)
(0.199654172833995 0.157335060679578 -2.61655684720105e-17)
(0.226295515834381 0.182618346950179 -1.23639088632171e-20)
(0.260494349762567 0.213219636610508 1.18518354999761e-20)
(0.306667353121886 0.247634310336254 2.69727296788566e-21)
(0.366353507175331 0.281622758299926 -2.51666770681087e-21)
(0.444740881069282 0.31101936897604 0)
(0.542567371420686 0.322919585524351 0)
(0.658076928280212 0.297244564138166 -1.56275874351509e-20)
(0.73950859888428 0.210879661735305 -6.81686572543523e-18)
(0.732657025320488 0.107343339478879 0)
(0.63643630020714 0.0341276235244397 -1.09755339905081e-18)
(0.534409931273649 0.00756611264694742 0)
(0.56721501333891 0.00284172404697877 0)
(0.549561478603987 -0.00664219622878401 1.01361552800525e-18)
(0.485692632895918 -0.0310712159217753 4.18335379282449e-21)
(0.266005250837993 -0.0364430864562133 2.94860523202103e-21)
(-0.0192942412742034 0.0288119749133455 3.90864973240225e-17)
(-0.10435214657781 0.0633665602587647 5.98564724794711e-17)
(-0.0772646973236166 0.0514164647367029 0)
(-0.0574796881029061 0.0427388440101896 0)
(-0.0452104846670218 0.0357872921513399 6.89654920847048e-17)
(-0.0379645241626168 0.0306739383063644 7.33915375712688e-17)
(-0.0331711567808637 0.0267316161692252 -7.82490258279183e-17)
(-0.0316803869151134 0.0254605873928008 0)
(-0.0324547672209564 0.0260791164042291 -8.42028739954502e-17)
(-0.0356798012111296 0.028835175484368 -1.29223261293307e-21)
(-0.0414390021577366 0.0336148231984453 -8.27693269686623e-17)
(-0.0491308379288753 0.039815581001149 7.98249187104745e-17)
(-0.0576428453163922 0.0462496689821425 -1.05993290548991e-21)
(-0.0660267702879342 0.0515983862500477 7.1601671889551e-17)
(-0.0738362703156987 0.0551414428570943 -6.69308557739506e-17)
(-0.0806908637326687 0.0563346990750975 1.23486562965587e-19)
(-0.0865360218589358 0.0550186498980521 -1.13320940603596e-19)
(-0.0917822011636701 0.0515030679284331 0)
(-0.0967918823620461 0.0464163255713391 5.09919052062727e-17)
(-0.101617250496526 0.0401016164889757 4.84701562580641e-17)