/*--------------------------------*- C++ -*----------------------------------*\
  =========                 |
  \\      /  F ield         | OpenFOAM: The Open Source CFD Toolbox
   \\    /   O peration     | Website:  https://openfoam.org
    \\  /    A nd           | Version:  7
     \\/     M anipulation  |
\*---------------------------------------------------------------------------*/
FoamFile
{
    version     2.0;
    format      ascii;
    class       volVectorField;
    location    "10000";
    object      wallShearStress;
}
// * * * * * * * * * * * * * * * * * * * * * * * * * * * * * * * * * * * * * //

dimensions      [0 2 -2 0 0 0 0];

internalField   uniform (0 0 0);

boundaryField
{
    bottomWall
    {
        type            calculated;
        value           nonuniform List<vector> 
120
(
(-0.00281969927511649 1.95192454493138e-05 6.18101413325781e-23)
(-0.00336220593132144 8.74332876215271e-05 1.27310983185597e-19)
(-0.00193910635793503 0.000227649842171237 1.88079096131566e-37)
(0.000620826495804298 -9.93638159715315e-05 1.07760348770384e-18)
(0.00146554366542512 -0.000597717753898896 1.31831429015941e-22)
(0.00101610472867431 -0.000573133013643383 2.45833455047658e-22)
(0.000599107428452662 -0.000403922013690009 2.24498987421334e-18)
(0.00042551156382527 -0.000316611224904807 -2.25761262160374e-18)
(0.000299301453821238 -0.000237221512176031 6.36698937417167e-16)
(0.000223948503114233 -0.000181816456449693 6.36793797530442e-16)
(0.000166309807995371 -0.000136287978539466 -5.55005340164079e-22)
(0.000139313081558817 -0.000114225559524291 1.10930290977981e-21)
(0.000125339365978132 -0.000103389963009034 -1.10977391533224e-21)
(0.00012629849398815 -0.000104683475329823 2.26959910208695e-18)
(0.000142293398212961 -0.000117371599303616 2.26962754794668e-18)
(0.000171690071446459 -0.000139620273948701 2.20979244569427e-21)
(0.000208086990705915 -0.000165594679495419 2.2522477813493e-18)
(0.000243927258715342 -0.000187653870938424 -4.49787138765541e-18)
(0.000276677233552627 -0.00020246240924265 2.23856578632248e-18)
(0.000301312492220483 -0.000205976452666291 2.24508419575991e-18)
(0.00031257849726943 -0.000195526724031975 -2.2397874727485e-18)
(0.000312035163640497 -0.000173823762360915 2.23515728870657e-18)
(0.000305750781364303 -0.000147153412265558 2.36698040008262e-24)
(0.000291714725946237 -0.000117203329448457 -2.22524577070754e-18)
(0.00026874397050853 -8.57462640968324e-05 3.91204519953657e-35)
(0.000241770290588671 -5.53593483408145e-05 -2.88889491658085e-34)
(0.000195323382810133 -2.64879166812798e-05 1.618381286036e-16)
(0.000221258899928421 -1.31692931459883e-05 1.63696934421251e-16)
(0.000387430733929131 -8.287639542123e-06 -5.15541562350894e-25)
(0.000557159545161163 -7.92255811064865e-06 -1.51154972337086e-32)
(0.000689536331787484 -7.54510807915744e-06 0)
(0.000805162536859242 -7.29311626841543e-06 1.74318121169945e-16)
(0.000902293339657127 -7.08170675141914e-06 1.75211381731369e-16)
(0.00098611967387218 -6.90892586643287e-06 0)
(0.00105845293789312 -6.77216481440501e-06 -2.93892556252862e-53)
(0.00112154774595048 -6.64658307127211e-06 -1.87903054846002e-51)
(0.00117665009439414 -6.5237090376937e-06 -0)
(0.00122484919778568 -6.39156695020016e-06 1.96527176854734e-21)
(0.00126685154455789 -6.24463072556601e-06 -1.62329225585623e-16)
(0.00130321995455247 -6.07822792898439e-06 -1.63845870305179e-16)
(0.00133435563497521 -5.88986097212688e-06 1.95331052020175e-21)
(0.0013605724077957 -5.67799787428185e-06 1.95941534270331e-21)
(0.00138211212978642 -5.44217165153288e-06 -1.95485867346376e-21)
(0.00139917874447166 -5.18305454863979e-06 1.96378755772017e-21)
(0.00141195683638947 -4.90179063682076e-06 -1.96087927985053e-21)
(0.00142061180007217 -4.59830813975379e-06 -0)
(0.00142526169556907 -4.27218667778853e-06 1.70374040025175e-16)
(0.0014260007947872 -3.92761763797814e-06 1.72023567896268e-16)
(0.00142302025536191 -3.56819281926801e-06 1.98756513403654e-21)
(0.00141647943347915 -3.19700747550541e-06 -9.95713874225263e-22)
(0.00140655693718601 -2.81752258173092e-06 1.00372118517291e-21)
(0.00139343919192017 -2.43234690052601e-06 -2.01285968748429e-21)
(0.00137731639262859 -2.04393298506712e-06 1.68188164063322e-16)
(0.00135838320102814 -1.65470805019558e-06 1.69659959620678e-16)
(0.00133683845766131 -1.26698364365756e-06 5.10213882292116e-22)
(0.00131288415786174 -8.82941334383284e-07 2.64630836798219e-41)
(0.00128672433609245 -5.04578044119162e-07 -3.01105720282266e-32)
(0.00125856351079874 -1.33693748543514e-07 2.60761587367902e-22)
(0.0012286052561343 2.28127510278818e-07 -3.92679978897753e-22)
(0.0011970506690088 5.79523151387269e-07 1.31597969075443e-22)
(0.00116409705016444 9.19343099246525e-07 0)
(0.00112993653876121 1.24666596336917e-06 -2.6777450658915e-22)
(0.00109475493763301 1.56076398099253e-06 2.68674585795108e-22)
(0.00105873033279541 1.86115994352519e-06 -3.15543331352643e-32)
(0.00102203199396476 2.147541216188e-06 -0)
(0.000984819155583197 2.41987356526535e-06 5.50742738792861e-22)
(0.000947240648107399 2.67819571137873e-06 -5.52819715911791e-22)
(0.000909436187781211 2.92267977971599e-06 -0)
(0.000871538345541312 3.15337921240279e-06 0)
(0.000833678179296483 3.37010698329489e-06 0)
(0.000795985931352965 3.5728534041875e-06 0)
(0.000758585294464076 3.76200535021929e-06 0)
(0.000721590780432739 3.93809016513851e-06 -1.93022864969917e-16)
(0.000685103560226981 4.10209175647841e-06 -3.8747372802517e-16)
(0.000649211977028677 4.25473959366909e-06 -1.94335477660881e-16)
(0.000613994737295173 4.39695743199536e-06 4.71359149603552e-21)
(0.000579523343789507 4.52920622429716e-06 -2.36898457657103e-21)
(0.000545875559232441 4.65149426358803e-06 2.39024437256223e-21)
(0.000513129574231796 4.76440279779114e-06 -2.39910871981722e-21)
(0.000481369385058544 4.86787455639832e-06 -2.02290323906413e-16)
(0.000450675519685387 4.96308443212778e-06 -2.01493050480536e-16)
(0.000421140259735111 5.04950885691299e-06 2.4424936995237e-21)
(0.000392854121948872 5.12876196740285e-06 -2.46190920496031e-21)
(0.000365951404752732 5.19840295319055e-06 4.945282209001e-21)
(0.000340578628498709 5.26063945055753e-06 -2.48311029729914e-21)
(0.000316986164864257 5.30954964346409e-06 5.00221033317082e-21)
(0.000295464674719857 5.34908704457592e-06 -1.00429785465989e-20)
(0.000276471220699743 5.3680510315686e-06 5.03987982947653e-21)
(0.000260662822938953 5.37159967449153e-06 5.07187609589762e-21)
(0.000248673436907909 5.35095123153293e-06 -1.01746760300427e-20)
(0.000242093140452385 5.35586916974122e-06 5.10090164291815e-21)
(0.000239134706658318 5.2521320926488e-06 6.25077230408148e-25)
(0.000250383107500169 1.22067571165747e-05 0)
(0.000253153812690223 3.17831072084665e-05 -5.14303263445156e-21)
(0.000246627321987455 4.86559302423624e-05 1.32922044536288e-18)
(0.000235062948346544 6.25727297130154e-05 1.06084300798023e-23)
(0.000209120081308619 6.79185940187501e-05 2.65221501418872e-18)
(0.000170653974015952 6.27523942643629e-05 2.68623107933079e-18)
(0.000113585520315386 4.1441984853178e-05 -2.70262047935058e-18)
(2.862092021939e-05 -3.58685594709256e-06 2.72066905092087e-18)
(-8.92338944214161e-05 -7.77813447559426e-05 -2.71942739299941e-18)
(-0.000242295980767021 -0.000182226988501209 -2.70300591944231e-18)
(-0.000429282650917981 -0.000314908721762011 -2.01620791053039e-34)
(-0.000649024084901118 -0.00047166905009297 -3.00926553810506e-36)
(-0.000880233915759911 -0.000636744162078107 2.65444953397228e-18)
(-0.00111067139622023 -0.000805423099500755 2.64133582992698e-18)
(-0.00135790815829797 -0.000992049479139347 2.62837890265382e-18)
(-0.00163695832754209 -0.00120953317137782 2.61388535875834e-18)
(-0.001974348677223 -0.00147826978021901 2.59669562804927e-18)
(-0.00241424131442317 -0.00183157542780496 -2.56995882159424e-18)
(-0.00307056567294822 -0.00233067372135456 -2.52610976771717e-18)
(-0.0039982829781157 -0.00295350695159648 2.4613057966188e-18)
(-0.00518519003198578 -0.00362055506786375 -2.3665038234175e-18)
(-0.00679930047165953 -0.00429840926493498 -2.23364608553279e-18)
(-0.00874805801336263 -0.00470594016241014 2.05450507534327e-18)
(-0.010697532285439 -0.00434808849311502 2.8588022611998e-35)
(-0.0100771969179308 -0.00254210347524135 -8.42940411423563e-19)
(-0.00694656829864979 -0.000848943649985698 -1.88079096131566e-37)
(-0.0036067292808534 -0.000121938269534675 1.13815072499061e-19)
(-0.00231663844108118 7.46815185140496e-06 0)
)
;
    }
    topWall
    {
        type            calculated;
        value           nonuniform List<vector> 
120
(
(-0.00418040106166088 2.05723435542344e-07 0)
(-0.00417638738133149 2.86548328224866e-07 0)
(-0.00416945440226348 3.58048808341778e-07 0)
(-0.0041599001979192 4.21041500467185e-07 0)
(-0.00414795441847953 4.76924409581423e-07 0)
(-0.00413382153274331 5.25877998063923e-07 0)
(-0.00411776758862782 5.66778789933786e-07 0)
(-0.00410009546619338 5.98945153354857e-07 0)
(-0.00408111517103427 6.22646657074592e-07 0)
(-0.00406111155819896 6.39413893107471e-07 0)
(-0.00404031575066891 6.50831701915989e-07 0)
(-0.00401891848304742 6.57762034412552e-07 0)
(-0.00399707524367764 6.61190251300032e-07 0)
(-0.00397491730711411 6.61547822219117e-07 0)
(-0.00395255504760513 6.5975665820296e-07 0)
(-0.00393007259740194 6.57034086805584e-07 0)
(-0.00390748583454499 6.5461473692158e-07 0)
(-0.00388475915327702 6.53104204012015e-07 0)
(-0.0038618982562967 6.51657171754023e-07 0)
(-0.00383893410082132 6.49977844512598e-07 0)
(-0.00381588903199363 6.48367080084792e-07 0)
(-0.00379276817218693 6.46978799172092e-07 0)
(-0.0037695745372948 6.45697096672121e-07 0)
(-0.00374630752660578 6.44938880260991e-07 0)
(-0.00372295016225637 6.45110118359339e-07 0)
(-0.00369947650276737 6.45992282026099e-07 0)
(-0.00367587352870504 6.46989358637102e-07 0)
(-0.0036521413585704 6.48151801440344e-07 0)
(-0.00362827138009898 6.49848437983361e-07 0)
(-0.00360424995166291 6.51766592680531e-07 0)
(-0.003580077323811 6.5334719405487e-07 0)
(-0.00355576955272539 6.54442929233726e-07 0)
(-0.00353134015167709 6.55330732333527e-07 0)
(-0.00350680001877245 6.5581467734509e-07 0)
(-0.00348216704891611 6.55591455785475e-07 0)
(-0.00345747172448372 6.5430726525803e-07 0)
(-0.00343275173113081 6.52067195774086e-07 0)
(-0.00340803981571255 6.49018176902433e-07 0)
(-0.00338336862853284 6.44972095699306e-07 0)
(-0.00335877767074909 6.39678112262599e-07 0)
(-0.00333431592364942 6.32973354603026e-07 0)
(-0.00331003313214977 6.25079581614916e-07 0)
(-0.00328597308853323 6.16067868447006e-07 0)
(-0.00326218076931169 6.05827677896924e-07 0)
(-0.00323870313327726 5.94291326314938e-07 0)
(-0.00321559242134722 5.81271067607269e-07 0)
(-0.0031929042003933 5.66930726872855e-07 0)
(-0.00317068593107218 5.51507000122471e-07 0)
(-0.0031489826571424 5.34896509760483e-07 0)
(-0.00312784122917675 5.17119124276529e-07 0)
(-0.00310730771159686 4.98119829954468e-07 0)
(-0.00308743222784615 4.77807433859647e-07 0)
(-0.00306826409806158 4.56401355511663e-07 0)
(-0.003049845212872 4.34051581843104e-07 0)
(-0.00303221521504281 4.10704228321812e-07 0)
(-0.00301541542355733 3.86363042594424e-07 0)
(-0.00299948462889171 3.61107517719314e-07 0)
(-0.00298446150306584 3.34808235270961e-07 0)
(-0.00297038921496014 3.07464182421068e-07 0)
(-0.00295730619702387 2.79334321681893e-07 0)
(-0.00294524514307707 2.50423473507308e-07 0)
(-0.00293423941721026 2.20693156190624e-07 0)
(-0.00292432252129637 1.90157794699257e-07 0)
(-0.00291552730128944 1.58828525848419e-07 0)
(-0.00290788602996497 1.2672230346419e-07 0)
(-0.00290143011079831 9.38122847535203e-08 0)
(-0.00289619330834636 6.00101233380788e-08 0)
(-0.00289221019984994 2.54131826613639e-08 0)
(-0.00288951088252745 -9.88358768778294e-09 0)
(-0.00288812488473461 -4.59632449442088e-08 0)
(-0.00288808313811843 -8.28605416325967e-08 0)
(-0.00288941667900692 -1.20882941194273e-07 0)
(-0.00289217749489861 -1.60005060356105e-07 0)
(-0.00289640188977773 -1.998686673935e-07 0)
(-0.00290211624399459 -2.40363675293923e-07 0)
(-0.00290934316317843 -2.81448597871155e-07 0)
(-0.00291810743134825 -3.23206633757822e-07 0)
(-0.00292843648318654 -3.65701495207701e-07 0)
(-0.00294036041137781 -4.08838045706394e-07 0)
(-0.00295389790695659 -4.52572522270687e-07 0)
(-0.00296908640271324 -4.97758158188348e-07 0)
(-0.00298597267786108 -5.43719037689881e-07 0)
(-0.00300457371162105 -5.89874676880027e-07 0)
(-0.00302489822989923 -6.36182833006193e-07 0)
(-0.00304693737969585 -6.81952170814801e-07 0)
(-0.00307067199967461 -7.27177998104031e-07 0)
(-0.00309607872796883 -7.71568987969891e-07 0)
(-0.00312314028610244 -8.15811538381677e-07 0)
(-0.00315186571889534 -8.60197804545253e-07 0)
(-0.00318225758143299 -9.04006614873268e-07 0)
(-0.00321429936061811 -9.47135813144962e-07 0)
(-0.00324797566265994 -9.89601362193652e-07 0)
(-0.00328326133110535 -1.0305099980688e-06 0)
(-0.00332009375243531 -1.06892762937205e-06 0)
(-0.00335839490739218 -1.10498902538259e-06 0)
(-0.00339808533398046 -1.13800120281319e-06 0)
(-0.00343904730204983 -1.16662369140849e-06 0)
(-0.00348113211122146 -1.1906614369857e-06 0)
(-0.00352418617860758 -1.2097225198664e-06 0)
(-0.00356802919777381 -1.22242393312052e-06 0)
(-0.00361243158623167 -1.22811961466533e-06 0)
(-0.0036571699428386 -1.22772313047812e-06 0)
(-0.0037020274610647 -1.21975396963013e-06 0)
(-0.00374671534589862 -1.20193896344124e-06 0)
(-0.00379089925409472 -1.17437534233317e-06 0)
(-0.00383424652391068 -1.13714424690118e-06 0)
(-0.00387641756926412 -1.09000339850451e-06 0)
(-0.00391706345965249 -1.03289855869316e-06 0)
(-0.00395583306307229 -9.66009729093149e-07 0)
(-0.00399238055903696 -8.8977259993806e-07 0)
(-0.00402637468536487 -8.04904127511054e-07 0)
(-0.00405750759344125 -7.1235759771141e-07 0)
(-0.00408550261782517 -6.13540136786271e-07 0)
(-0.00411013743513406 -5.10387390134183e-07 0)
(-0.00413124514299283 -4.04224206706065e-07 0)
(-0.00414869438422639 -2.96252030522156e-07 0)
(-0.00416240149256953 -1.88354512656435e-07 0)
(-0.0041723473175686 -8.24307789943636e-08 0)
(-0.00417857873249273 1.96501098597542e-08 0)
(-0.00418120898141437 1.16231616210081e-07 0)
)
;
    }
    inlet_half0
    {
        type            cyclic;
    }
    inlet_half1
    {
        type            cyclic;
    }
    outlet_half0
    {
        type            cyclic;
    }
    outlet_half1
    {
        type            cyclic;
    }
    sideRight_half0
    {
        type            empty;
    }
    sideRight_half1
    {
        type            empty;
    }
    sideLeft_half0
    {
        type            empty;
    }
    sideLeft_half1
    {
        type            empty;
    }
}


// ************************************************************************* //
