/*--------------------------------*- C++ -*----------------------------------*\
  =========                 |
  \\      /  F ield         | OpenFOAM: The Open Source CFD Toolbox
   \\    /   O peration     | Website:  https://openfoam.org
    \\  /    A nd           | Version:  7
     \\/     M anipulation  |
\*---------------------------------------------------------------------------*/
FoamFile
{
    version     2.0;
    format      ascii;
    class       volScalarField;
    location    "20000";
    object      Cy;
}
// * * * * * * * * * * * * * * * * * * * * * * * * * * * * * * * * * * * * * //

dimensions      [0 1 0 0 0 0 0];

internalField   nonuniform List<scalar> 
15600
(
1.00078219360891
0.999796740285219
0.993789555448245
0.977842791337529
0.949666402369621
0.911003200121656
0.865754325270188
0.816751516570405
0.765720494359042
0.71386003560874
0.662144676344129
0.611100571845172
0.56076295494125
0.511015003152789
0.461726932667769
0.412758292828237
0.364035779672704
0.315772813030758
0.268451215254806
0.222660411057686
0.179116233897566
0.138712432664075
0.102345380777775
0.0707284830937664
0.0445021781434825
0.0243063297408481
0.0107252117378305
0.00419684848772235
0.0027371996412859
0.00273767763116877
0.00273767763116874
0.00273767763116882
0.00273767763116891
0.00273767763116868
0.00273767763116871
0.00273767763116885
0.00273767763116882
0.00273767763116871
0.00273767763116876
0.00273767763116896
0.00273767763116888
0.00273767763116885
0.00273767763116893
0.00273767763116888
0.00273767763116882
0.00273767763116876
0.00273767763116879
0.00273767763116885
0.00273767763116882
0.00273767763116874
0.00273767763116868
0.00273767763116882
0.00273767763116868
0.00273767763116868
0.00273767763116888
0.00273767763116888
0.00273767763116876
0.00273767763116877
0.00273767763116882
0.00273767763116876
0.00273767763116882
0.00273767763116876
0.00273767763116871
0.00273767763116876
0.002737677631169
0.00273767763116882
0.00273767763116873
0.00273767763116885
0.00273767763116882
0.00273767763116871
0.0027376776311687
0.00273767763116894
0.00273767763116883
0.00273767763116873
0.00273767763116874
0.00273767763116877
0.00273767763116888
0.00273767763116894
0.0027376776311689
0.0027376776311688
0.00273767763116882
0.00273767763116888
0.00273767763116871
0.00273767763116876
0.00273767763116894
0.00273767763116885
0.00273767763116873
0.00273767763116882
0.00273767763116893
0.00273767763116877
0.0027376776311687
0.00273719964128596
0.00419684848772238
0.0107252117378303
0.0243063297408465
0.0445021781434812
0.0707284830937633
0.102345380777775
0.138712432664077
0.17911623389756
0.222660411057682
0.268451215254798
0.315772813030755
0.364035779672703
0.412758292828244
0.461726932667772
0.511015003152783
0.560762954941251
0.611100571845164
0.662144676344129
0.713860035608744
0.765720494359046
0.8167515165704
0.865754325270185
0.911003200121652
0.949666402369617
0.977842791337532
0.993789555448243
0.999796740285219
1.00078219360891
1.00237529828622
1.00139377732983
0.99541056118625
0.979527433748161
0.951463543607461
0.912954754599292
0.867886554606712
0.819079343682659
0.768251959691308
0.71659841145159
0.665089365223808
0.61424890588224
0.564112129558427
0.514562675375353
0.465471274569514
0.416698034947681
0.36816994190086
0.32009955864404
0.272966785264496
0.227358695871547
0.183988268929123
0.143745688679415
0.10752375363608
0.0760330215795247
0.0499113741189567
0.0297961201936519
0.0162692008189367
0.00976689138128336
0.00831306791949475
0.00831354400174695
0.00831354400174712
0.0083135440017472
0.00831354400174711
0.00831354400174708
0.00831354400174714
0.0083135440017472
0.00831354400174708
0.00831354400174709
0.00831354400174717
0.00831354400174714
0.0083135440017472
0.00831354400174723
0.00831354400174719
0.00831354400174726
0.0083135440017472
0.00831354400174719
0.0083135440017471
0.00831354400174717
0.00831354400174714
0.00831354400174703
0.00831354400174708
0.00831354400174714
0.00831354400174706
0.00831354400174706
0.00831354400174708
0.00831354400174714
0.00831354400174714
0.00831354400174703
0.00831354400174714
0.00831354400174714
0.00831354400174713
0.0083135440017472
0.00831354400174709
0.00831354400174715
0.00831354400174719
0.00831354400174719
0.00831354400174706
0.00831354400174711
0.0083135440017472
0.00831354400174708
0.00831354400174708
0.00831354400174714
0.0083135440017472
0.00831354400174717
0.00831354400174705
0.00831354400174715
0.00831354400174726
0.0083135440017472
0.00831354400174723
0.00831354400174717
0.00831354400174714
0.00831354400174714
0.00831354400174708
0.00831354400174714
0.00831354400174725
0.00831354400174724
0.00831354400174714
0.0083135440017472
0.00831354400174713
0.00831354400174707
0.00831354400174709
0.00831306791949479
0.00976689138128339
0.0162692008189363
0.029796120193652
0.0499113741189544
0.0760330215795232
0.10752375363608
0.14374568867941
0.183988268929125
0.227358695871535
0.272966785264499
0.320099558644044
0.368169941900854
0.416698034947681
0.465471274569508
0.514562675375358
0.564112129558422
0.614248905882243
0.665089365223813
0.716598411451592
0.768251959691304
0.81907934368265
0.867886554606719
0.912954754599288
0.951463543607465
0.979527433748159
0.99541056118625
1.00139377732983
1.00237529828622
1.00402676296023
1.00304931842798
0.997090949066628
0.98127378956639
0.953326519031526
0.914977798814729
0.870096891349388
0.821492443074515
0.770876157257966
0.719437099728097
0.668141925002068
0.617512571416013
0.56758399337576
0.5182403085703
0.469352782185323
0.420782100972578
0.372455550300624
0.324584805418008
0.277647773718212
0.232229092581143
0.189038780874288
0.148963327596436
0.112891825396966
0.0815318807031831
0.055518724555215
0.0354870174443579
0.022016282110544
0.015540980917604
0.0140931962560795
0.0140936703608125
0.0140936703608127
0.0140936703608128
0.0140936703608127
0.0140936703608127
0.0140936703608127
0.0140936703608127
0.0140936703608127
0.0140936703608127
0.0140936703608126
0.0140936703608127
0.0140936703608126
0.0140936703608126
0.0140936703608127
0.0140936703608126
0.0140936703608127
0.0140936703608127
0.0140936703608127
0.0140936703608127
0.0140936703608127
0.0140936703608127
0.0140936703608127
0.0140936703608126
0.0140936703608127
0.0140936703608126
0.0140936703608127
0.0140936703608128
0.0140936703608128
0.0140936703608128
0.0140936703608128
0.0140936703608128
0.0140936703608129
0.0140936703608129
0.0140936703608128
0.0140936703608127
0.0140936703608126
0.0140936703608127
0.0140936703608127
0.0140936703608126
0.0140936703608127
0.0140936703608127
0.0140936703608126
0.0140936703608127
0.0140936703608126
0.0140936703608127
0.0140936703608127
0.0140936703608126
0.0140936703608127
0.0140936703608127
0.0140936703608126
0.0140936703608127
0.0140936703608127
0.0140936703608126
0.0140936703608127
0.0140936703608126
0.0140936703608127
0.0140936703608127
0.0140936703608126
0.0140936703608127
0.0140936703608126
0.0140936703608125
0.0140936703608127
0.0140931962560796
0.015540980917604
0.0220162821105437
0.0354870174443565
0.0555187245552146
0.0815318807031816
0.112891825396959
0.148963327596434
0.189038780874285
0.232229092581145
0.277647773718211
0.324584805418001
0.372455550300628
0.420782100972571
0.469352782185333
0.518240308570292
0.567583993375763
0.617512571416012
0.668141925002061
0.719437099728099
0.770876157257971
0.821492443074515
0.870096891349387
0.914977798814722
0.953326519031528
0.981273789566389
0.997090949066628
1.00304931842798
1.00402676296023
1.00573872552153
1.00476550674767
0.998832894427783
0.98308411953676
0.955257740314247
0.917074951542967
0.872388196627639
0.823993938314176
0.77359648391382
0.722379775010824
0.671306307184065
0.620895793289658
0.571183040794103
0.522052663541015
0.473376480260696
0.42501577788189
0.376898152766888
0.329234359699434
0.282500240369944
0.237277906146611
0.194274307865279
0.15437210390036
0.118456545282268
0.0872321789881728
0.0613314884132327
0.0413863886010323
0.0279738954490226
0.021526591897082
0.0200850672706013
0.0200855393253659
0.020085539325366
0.0200855393253661
0.020085539325366
0.0200855393253659
0.0200855393253659
0.0200855393253659
0.0200855393253659
0.0200855393253659
0.0200855393253659
0.0200855393253659
0.0200855393253659
0.0200855393253658
0.0200855393253659
0.020085539325366
0.0200855393253658
0.0200855393253659
0.0200855393253659
0.0200855393253658
0.020085539325366
0.0200855393253659
0.0200855393253658
0.0200855393253658
0.0200855393253659
0.020085539325366
0.0200855393253659
0.0200855393253659
0.0200855393253661
0.020085539325366
0.020085539325366
0.0200855393253661
0.020085539325366
0.020085539325366
0.020085539325366
0.020085539325366
0.020085539325366
0.0200855393253658
0.0200855393253659
0.020085539325366
0.0200855393253658
0.0200855393253659
0.0200855393253659
0.0200855393253658
0.0200855393253659
0.0200855393253659
0.0200855393253658
0.020085539325366
0.0200855393253659
0.0200855393253658
0.0200855393253659
0.0200855393253659
0.0200855393253658
0.020085539325366
0.0200855393253659
0.0200855393253659
0.0200855393253659
0.0200855393253659
0.0200855393253659
0.0200855393253659
0.0200855393253659
0.020085539325366
0.0200855393253658
0.0200850672706013
0.021526591897082
0.0279738954490221
0.0413863886010318
0.0613314884132316
0.0872321789881696
0.118456545282271
0.154372103900355
0.19427430786528
0.237277906146604
0.282500240369941
0.329234359699433
0.376898152766887
0.425015777881903
0.47337648026068
0.52205266354102
0.571183040794095
0.620895793289661
0.671306307184064
0.722379775010819
0.773596483913816
0.823993938314188
0.87238819662764
0.917074951542972
0.955257740314236
0.983084119536761
0.998832894427782
1.00476550674767
1.00573872552153
1.00751340217735
1.00654456396691
1.00063865229687
0.984960767221635
0.957259707472718
0.919248927484961
0.874763436370063
0.826587067380798
0.776416460936359
0.725430246470946
0.674586608021451
0.624402951108446
0.574913930852757
0.526004675489604
0.477547577609596
0.42940454633007
0.381503500428577
0.33405424053755
0.287530466959593
0.242511672497013
0.199701627545265
0.159979019512938
0.124225117083853
0.0931412957294834
0.0673571905696783
0.0475018706487497
0.034149753211755
0.0277314729419934
0.0262964376910255
0.0262969076207177
0.0262969076207177
0.0262969076207176
0.0262969076207176
0.0262969076207175
0.0262969076207178
0.0262969076207178
0.0262969076207176
0.0262969076207176
0.0262969076207177
0.0262969076207176
0.0262969076207176
0.0262969076207176
0.0262969076207177
0.0262969076207177
0.0262969076207177
0.0262969076207176
0.0262969076207176
0.0262969076207176
0.0262969076207176
0.0262969076207176
0.0262969076207176
0.0262969076207176
0.0262969076207175
0.0262969076207176
0.0262969076207176
0.0262969076207177
0.0262969076207176
0.0262969076207176
0.0262969076207176
0.0262969076207174
0.0262969076207174
0.0262969076207177
0.0262969076207176
0.0262969076207176
0.0262969076207176
0.0262969076207178
0.0262969076207175
0.0262969076207175
0.0262969076207176
0.0262969076207176
0.0262969076207176
0.0262969076207176
0.0262969076207175
0.0262969076207175
0.0262969076207176
0.0262969076207177
0.0262969076207176
0.0262969076207176
0.0262969076207176
0.0262969076207175
0.0262969076207175
0.0262969076207175
0.0262969076207176
0.0262969076207177
0.0262969076207177
0.0262969076207177
0.0262969076207177
0.0262969076207175
0.0262969076207176
0.0262969076207176
0.0262969076207177
0.0262964376910256
0.0277314729419934
0.0341497532117548
0.0475018706487483
0.0673571905696763
0.0931412957294838
0.124225117083849
0.159979019512939
0.199701627545262
0.242511672497009
0.287530466959591
0.334054240537548
0.381503500428577
0.429404546330063
0.477547577609605
0.526004675489596
0.574913930852764
0.624402951108441
0.674586608021451
0.725430246470955
0.776416460936357
0.82658706738079
0.874763436370059
0.919248927484959
0.957259707472725
0.984960767221633
1.00063865229687
1.00654456396691
1.00751340217735
1.0093530903205
1.00838879314972
1.00251056030902
0.986906162035066
0.95933501210489
0.921502540781114
0.8772256851427
0.829275186854675
0.779339738582778
0.728592462808144
0.677987073814278
0.628038584908692
0.578781493260349
0.530101460405377
0.481871473857316
0.433954087741726
0.386277555093607
0.339050687475791
0.292744965344964
0.247937166991451
0.205327765842351
0.165791332856798
0.130205008489194
0.0992668805464381
0.0736036315580813
0.0538413803358404
0.0405518503009616
0.0341636565272408
0.032735348394973
0.0327358161217367
0.0327358161217366
0.0327358161217368
0.0327358161217367
0.0327358161217367
0.0327358161217367
0.0327358161217367
0.0327358161217367
0.0327358161217366
0.0327358161217367
0.0327358161217367
0.0327358161217366
0.0327358161217365
0.0327358161217366
0.0327358161217367
0.0327358161217368
0.0327358161217367
0.0327358161217366
0.0327358161217367
0.0327358161217367
0.0327358161217368
0.0327358161217367
0.0327358161217367
0.0327358161217367
0.0327358161217366
0.0327358161217367
0.0327358161217367
0.0327358161217367
0.0327358161217366
0.0327358161217366
0.0327358161217365
0.0327358161217365
0.0327358161217366
0.0327358161217366
0.0327358161217367
0.0327358161217367
0.0327358161217367
0.0327358161217367
0.0327358161217366
0.0327358161217367
0.0327358161217366
0.0327358161217366
0.0327358161217367
0.0327358161217365
0.0327358161217365
0.0327358161217367
0.0327358161217367
0.0327358161217367
0.0327358161217366
0.0327358161217365
0.0327358161217365
0.0327358161217365
0.0327358161217366
0.0327358161217366
0.0327358161217367
0.0327358161217367
0.0327358161217367
0.0327358161217366
0.0327358161217367
0.0327358161217367
0.0327358161217367
0.0327358161217367
0.0327353483949728
0.0341636565272409
0.0405518503009613
0.0538413803358394
0.0736036315580808
0.0992668805464369
0.130205008489192
0.165791332856796
0.205327765842348
0.247937166991452
0.292744965344957
0.339050687475789
0.386277555093611
0.43395408774172
0.481871473857317
0.530101460405373
0.578781493260348
0.628038584908695
0.677987073814282
0.728592462808136
0.779339738582779
0.829275186854671
0.877225685142701
0.921502540781118
0.959335012104884
0.986906162035067
1.00251056030902
1.00838879314972
1.0093530903205
1.01126017150341
1.0103005817275
1.00445104173348
0.988922822387814
0.961486340744273
0.923838708653492
0.879778130127824
0.832061776260892
0.782370100813851
0.731870517361104
0.68151210640705
0.631807401034347
0.58279073464659
0.534348321687356
0.486353766430175
0.438670291666347
0.39122649696654
0.344230168629092
0.298150485931609
0.253561413190035
0.211160006064983
0.171816568251794
0.136403960748649
0.105616863285381
0.0800788976668551
0.0604131244222977
0.0471884744932468
0.0408314693785455
0.0394101348187999
0.039410600261927
0.039410600261927
0.0394106002619271
0.0394106002619272
0.039410600261927
0.0394106002619269
0.039410600261927
0.039410600261927
0.0394106002619271
0.039410600261927
0.039410600261927
0.039410600261927
0.0394106002619269
0.0394106002619269
0.039410600261927
0.039410600261927
0.0394106002619271
0.0394106002619271
0.039410600261927
0.0394106002619269
0.039410600261927
0.0394106002619271
0.0394106002619272
0.039410600261927
0.0394106002619271
0.039410600261927
0.039410600261927
0.0394106002619268
0.039410600261927
0.039410600261927
0.0394106002619271
0.039410600261927
0.0394106002619269
0.039410600261927
0.0394106002619269
0.039410600261927
0.0394106002619271
0.0394106002619271
0.0394106002619272
0.0394106002619271
0.0394106002619271
0.039410600261927
0.0394106002619269
0.0394106002619271
0.039410600261927
0.0394106002619272
0.039410600261927
0.0394106002619269
0.0394106002619269
0.0394106002619269
0.0394106002619269
0.0394106002619269
0.039410600261927
0.039410600261927
0.0394106002619271
0.0394106002619271
0.039410600261927
0.039410600261927
0.0394106002619271
0.0394106002619271
0.039410600261927
0.039410600261927
0.0394101348188
0.0408314693785455
0.0471884744932465
0.0604131244222968
0.0800788976668539
0.105616863285379
0.13640396074865
0.171816568251792
0.211160006064975
0.253561413190036
0.298150485931607
0.344230168629096
0.391226496966528
0.438670291666351
0.486353766430172
0.534348321687364
0.582790734646584
0.63180740103434
0.681512106407048
0.731870517361111
0.782370100813846
0.832061776260899
0.879778130127808
0.923838708653492
0.961486340744274
0.988922822387814
1.00445104173348
1.0103005817275
1.01126017150341
1.01323711452109
1.0122824045896
1.00646260861065
0.991013358947526
0.963716478337572
0.926260455181392
0.882424075248413
0.834950442572015
0.785511470190784
0.735268653405147
0.685166268886065
0.635714278228843
0.586946845043025
0.538750757009357
0.491000257801365
0.443559263402351
0.396356732648926
0.349599389057052
0.303754026411469
0.259391691946213
0.217205898330531
0.17806252565562
0.142829998696831
0.112199464285158
0.0867913714072043
0.067225610303596
0.0540682171682696
0.0477435432515416
0.0463294377479823
0.0463299008238068
0.0463299008238069
0.0463299008238069
0.0463299008238068
0.0463299008238068
0.0463299008238068
0.0463299008238068
0.0463299008238068
0.0463299008238069
0.0463299008238069
0.0463299008238068
0.0463299008238068
0.0463299008238068
0.0463299008238068
0.0463299008238068
0.0463299008238069
0.0463299008238069
0.0463299008238068
0.0463299008238067
0.0463299008238068
0.0463299008238068
0.0463299008238068
0.0463299008238067
0.0463299008238069
0.0463299008238069
0.0463299008238068
0.0463299008238068
0.0463299008238068
0.0463299008238068
0.0463299008238068
0.0463299008238069
0.0463299008238069
0.0463299008238069
0.0463299008238069
0.0463299008238068
0.0463299008238068
0.0463299008238068
0.046329900823807
0.0463299008238069
0.0463299008238068
0.0463299008238068
0.0463299008238069
0.0463299008238068
0.0463299008238068
0.0463299008238069
0.046329900823807
0.0463299008238069
0.0463299008238068
0.0463299008238068
0.0463299008238068
0.0463299008238068
0.0463299008238067
0.0463299008238069
0.0463299008238069
0.0463299008238069
0.0463299008238069
0.0463299008238068
0.0463299008238068
0.0463299008238068
0.0463299008238069
0.0463299008238069
0.0463299008238068
0.0463294377479824
0.0477435432515416
0.0540682171682695
0.0672256103035956
0.0867913714072031
0.112199464285158
0.142829998696827
0.178062525655615
0.217205898330534
0.259391691946204
0.303754026411474
0.349599389057041
0.396356732648936
0.443559263402345
0.491000257801365
0.538750757009349
0.58694684504303
0.635714278228842
0.685166268886065
0.735268653405142
0.785511470190786
0.834950442572008
0.882424075248422
0.926260455181389
0.963716478337571
0.991013358947527
1.00646260861065
1.0122824045896
1.01323711452109
1.01528647860702
1.01433682728713
1.00854786500397
0.993180478018488
0.966028311849632
0.928770915215209
0.885166945443676
0.837944924875675
0.788767912951401
0.738791269643845
0.688954291485477
0.639764273950032
0.591255204601205
0.543314465436541
0.495816963002191
0.448627331900328
0.401674903432871
0.355165299443761
0.309562840821657
0.265435550832142
0.223473269339327
0.184537290761211
0.149491441141078
0.119023205018632
0.0937497423645193
0.0742876570236856
0.0611999844304225
0.0549088261057299
0.0535022145027684
0.053502675124559
0.0535026751245589
0.0535026751245591
0.0535026751245589
0.0535026751245589
0.0535026751245591
0.053502675124559
0.053502675124559
0.0535026751245589
0.053502675124559
0.053502675124559
0.053502675124559
0.053502675124559
0.0535026751245589
0.053502675124559
0.053502675124559
0.0535026751245591
0.0535026751245589
0.0535026751245589
0.0535026751245591
0.053502675124559
0.053502675124559
0.0535026751245589
0.0535026751245591
0.0535026751245591
0.0535026751245589
0.053502675124559
0.053502675124559
0.0535026751245589
0.053502675124559
0.0535026751245589
0.053502675124559
0.053502675124559
0.053502675124559
0.053502675124559
0.0535026751245589
0.053502675124559
0.053502675124559
0.0535026751245591
0.0535026751245589
0.0535026751245589
0.0535026751245591
0.053502675124559
0.0535026751245589
0.0535026751245589
0.053502675124559
0.053502675124559
0.053502675124559
0.0535026751245589
0.0535026751245589
0.053502675124559
0.0535026751245589
0.053502675124559
0.0535026751245589
0.053502675124559
0.0535026751245589
0.053502675124559
0.053502675124559
0.0535026751245589
0.0535026751245591
0.053502675124559
0.0535026751245589
0.0535022145027685
0.05490882610573
0.0611999844304223
0.0742876570236849
0.0937497423645174
0.119023205018631
0.149491441141075
0.184537290761213
0.223473269339318
0.265435550832142
0.309562840821655
0.355165299443759
0.401674903432864
0.448627331900333
0.495816963002189
0.543314465436543
0.591255204601203
0.639764273950033
0.688954291485476
0.738791269643844
0.788767912951399
0.837944924875677
0.88516694544368
0.928770915215203
0.966028311849635
0.993180478018488
1.00854786500397
1.01433682728713
1.01528647860702
1.01741091674612
1.01646650935412
1.01070951037097
0.995426985044934
0.968424834000519
0.931373338433584
0.888010291101135
0.841049099213035
0.792143644272201
0.742442925901777
0.692881077709591
0.643962630916452
0.5957213905569
0.548045354802651
0.500810117408436
0.453881057956015
0.407187893898096
0.360935105095732
0.315584448935049
0.271700813909401
0.229970232506637
0.191249245464086
0.156396911630533
0.126096919124013
0.100963018447262
0.0816084066914059
0.0685930086379145
0.0623365936877484
0.0609377505335833
0.0609382086114303
0.0609382086114304
0.0609382086114304
0.0609382086114303
0.0609382086114304
0.0609382086114304
0.0609382086114304
0.0609382086114303
0.0609382086114304
0.0609382086114303
0.0609382086114305
0.0609382086114304
0.0609382086114304
0.0609382086114304
0.0609382086114303
0.0609382086114304
0.0609382086114304
0.0609382086114304
0.0609382086114304
0.0609382086114303
0.0609382086114305
0.0609382086114303
0.0609382086114304
0.0609382086114304
0.0609382086114304
0.0609382086114304
0.0609382086114305
0.0609382086114304
0.0609382086114304
0.0609382086114302
0.0609382086114303
0.0609382086114303
0.0609382086114304
0.0609382086114303
0.0609382086114303
0.0609382086114305
0.0609382086114304
0.0609382086114304
0.0609382086114304
0.0609382086114305
0.0609382086114305
0.0609382086114304
0.0609382086114305
0.0609382086114303
0.0609382086114303
0.0609382086114302
0.0609382086114304
0.0609382086114303
0.0609382086114304
0.0609382086114304
0.0609382086114303
0.0609382086114304
0.0609382086114303
0.0609382086114303
0.0609382086114304
0.0609382086114305
0.0609382086114304
0.0609382086114303
0.0609382086114304
0.0609382086114304
0.0609382086114304
0.0609382086114303
0.0609377505335833
0.0623365936877484
0.0685930086379142
0.0816084066914047
0.100963018447261
0.12609691912401
0.156396911630533
0.19124924546408
0.229970232506637
0.271700813909397
0.315584448935047
0.36093510509573
0.407187893898096
0.453881057956014
0.500810117408437
0.548045354802649
0.595721390556893
0.643962630916451
0.692881077709592
0.742442925901776
0.792143644272204
0.841049099213034
0.88801029110113
0.931373338433591
0.968424834000519
0.995426985044932
1.01070951037097
1.01646650935412
1.01741091674612
1.01961317910911
1.01867420775027
1.01295034305784
0.997755788243006
0.970909147139409
0.934071093549215
0.890957792650968
0.844266983594433
0.795643033723087
0.746228349025755
0.696951710679443
0.648314783893358
0.600351184449412
0.552949549357472
0.505986184811976
0.459327242703126
0.412902840824281
0.366916275269266
0.321826645994938
0.278195591857534
0.236705198465957
0.19820707871306
0.163555349619677
0.133429763840306
0.108440537547933
0.0891973363151072
0.0762568603541818
0.0700364615389572
0.0686456714411898
0.0686461268818894
0.0686461268818894
0.0686461268818894
0.0686461268818895
0.0686461268818894
0.0686461268818895
0.0686461268818895
0.0686461268818895
0.0686461268818894
0.0686461268818894
0.0686461268818895
0.0686461268818895
0.0686461268818895
0.0686461268818895
0.0686461268818894
0.0686461268818895
0.0686461268818894
0.0686461268818894
0.0686461268818894
0.0686461268818896
0.0686461268818895
0.0686461268818893
0.0686461268818894
0.0686461268818895
0.0686461268818895
0.0686461268818895
0.0686461268818894
0.0686461268818895
0.0686461268818895
0.0686461268818894
0.0686461268818895
0.0686461268818895
0.0686461268818894
0.0686461268818895
0.0686461268818895
0.0686461268818895
0.0686461268818894
0.0686461268818895
0.0686461268818894
0.0686461268818894
0.0686461268818895
0.0686461268818896
0.0686461268818895
0.0686461268818894
0.0686461268818894
0.0686461268818895
0.0686461268818894
0.0686461268818894
0.0686461268818895
0.0686461268818895
0.0686461268818895
0.0686461268818895
0.0686461268818895
0.0686461268818895
0.0686461268818895
0.0686461268818895
0.0686461268818894
0.0686461268818895
0.0686461268818894
0.0686461268818894
0.0686461268818895
0.0686461268818895
0.0686456714411897
0.0700364615389573
0.0762568603541816
0.0891973363151063
0.108440537547933
0.133429763840304
0.163555349619673
0.198207078713062
0.236705198465952
0.278195591857531
0.321826645994931
0.366916275269269
0.412902840824279
0.459327242703127
0.505986184811975
0.552949549357474
0.600351184449405
0.648314783893361
0.696951710679443
0.746228349025755
0.795643033723084
0.844266983594427
0.890957792650969
0.934071093549213
0.970909147139407
0.997755788243005
1.01295034305784
1.01867420775027
1.01961317910911
1.0218961166126
1.02096278042997
1.01527326392194
1.00016990236548
0.973484467260417
0.936867672668598
0.894013265328599
0.84760274319869
0.799270610921863
0.750152439002151
0.70117145971177
0.652826366727302
0.60515057960534
0.558033397694409
0.511351865788026
0.464972936417509
0.418827142429637
0.373116552839629
0.328297512806232
0.284928292473722
0.243686885956903
0.205419797758575
0.170976022040817
0.141031231861661
0.116191979631195
0.0970642700707896
0.0842014607370978
0.0780183974428812
0.0766359554371681
0.0766364081441014
0.0766364081441015
0.0766364081441014
0.0766364081441013
0.0766364081441014
0.0766364081441015
0.0766364081441015
0.0766364081441013
0.0766364081441014
0.0766364081441014
0.0766364081441014
0.0766364081441015
0.0766364081441014
0.0766364081441013
0.0766364081441014
0.0766364081441013
0.0766364081441012
0.0766364081441015
0.0766364081441016
0.0766364081441014
0.0766364081441014
0.0766364081441014
0.0766364081441014
0.0766364081441014
0.0766364081441015
0.0766364081441013
0.0766364081441015
0.0766364081441014
0.0766364081441013
0.0766364081441014
0.0766364081441014
0.0766364081441014
0.0766364081441014
0.0766364081441014
0.0766364081441013
0.0766364081441014
0.0766364081441015
0.0766364081441014
0.0766364081441013
0.0766364081441014
0.0766364081441014
0.0766364081441014
0.0766364081441014
0.0766364081441015
0.0766364081441014
0.0766364081441013
0.0766364081441015
0.0766364081441013
0.0766364081441013
0.0766364081441015
0.0766364081441014
0.0766364081441013
0.0766364081441013
0.0766364081441014
0.0766364081441013
0.0766364081441014
0.0766364081441014
0.0766364081441013
0.0766364081441014
0.0766364081441015
0.0766364081441014
0.0766364081441014
0.0766359554371681
0.0780183974428812
0.0842014607370977
0.0970642700707888
0.116191979631194
0.14103123186166
0.170976022040815
0.205419797758572
0.243686885956904
0.284928292473719
0.328297512806226
0.37311655283963
0.418827142429632
0.464972936417508
0.511351865788026
0.558033397694406
0.60515057960534
0.652826366727304
0.701171459711762
0.750152439002157
0.799270610921854
0.847602743198699
0.894013265328598
0.936867672668599
0.973484467260413
1.00016990236548
1.01527326392194
1.02096278042997
1.0218961166126
1.02426268460967
1.02333519004189
1.01768128008707
1.0026724526046
0.976154128165513
0.939766695811487
0.897180664111693
0.851060695762771
0.803031071395759
0.75422027529824
0.70554578713898
0.657503219638368
0.610125788896428
0.563303480968472
0.51691410636893
0.470825447643644
0.42496846794798
0.379543964324396
0.335005426196348
0.291907631557028
0.250924333112123
0.212896739812943
0.178668535300536
0.14891116362598
0.124227379264807
0.105219392019647
0.0924370943820157
0.0862927343286173
0.0849189462608421
0.0849193961338494
0.0849193961338494
0.0849193961338495
0.0849193961338493
0.0849193961338494
0.0849193961338494
0.0849193961338495
0.0849193961338494
0.0849193961338494
0.0849193961338494
0.0849193961338494
0.0849193961338494
0.0849193961338494
0.0849193961338494
0.0849193961338494
0.0849193961338493
0.0849193961338493
0.0849193961338493
0.0849193961338494
0.0849193961338494
0.0849193961338493
0.0849193961338494
0.0849193961338494
0.0849193961338494
0.0849193961338494
0.0849193961338494
0.0849193961338494
0.0849193961338494
0.0849193961338493
0.0849193961338494
0.0849193961338495
0.0849193961338495
0.0849193961338494
0.0849193961338493
0.0849193961338493
0.0849193961338493
0.0849193961338495
0.0849193961338495
0.0849193961338493
0.0849193961338493
0.0849193961338494
0.0849193961338495
0.0849193961338495
0.0849193961338495
0.0849193961338494
0.0849193961338493
0.0849193961338492
0.0849193961338494
0.0849193961338494
0.0849193961338494
0.0849193961338494
0.0849193961338493
0.0849193961338492
0.0849193961338495
0.0849193961338493
0.0849193961338496
0.0849193961338494
0.0849193961338494
0.0849193961338492
0.0849193961338494
0.0849193961338494
0.0849193961338493
0.0849189462608421
0.0862927343286174
0.0924370943820156
0.105219392019646
0.124227379264806
0.148911163625979
0.178668535300534
0.21289673981294
0.250924333112117
0.291907631557028
0.335005426196345
0.379543964324394
0.424968467947978
0.470825447643644
0.516914106368932
0.563303480968473
0.610125788896424
0.657503219638364
0.705545787138988
0.754220275298235
0.803031071395755
0.851060695762774
0.897180664111685
0.939766695811489
0.976154128165515
1.0026724526046
1.01768128008707
1.02333519004189
1.02426268460967
1.0267159467156
1.02579450776419
1.0201775088363
1.00526667863784
0.978921585779933
0.942771915595837
0.900464088837873
0.854645317168807
0.806929282657592
0.758437123435778
0.71008035537886
0.662351396779487
0.615283252781617
0.568766621415255
0.522680107035622
0.476892352655582
0.431334767556652
0.386206830273931
0.341959069859328
0.299142644191402
0.258426909157527
0.220647584137863
0.186642847715562