/*--------------------------------*- C++ -*----------------------------------*\
  =========                 |
  \\      /  F ield         | OpenFOAM: The Open Source CFD Toolbox
   \\    /   O peration     | Website:  https://openfoam.org
    \\  /    A nd           | Version:  7
     \\/     M anipulation  |
\*---------------------------------------------------------------------------*/
FoamFile
{
    version     2.0;
    format      ascii;
    class       volScalarField;
    location    "20000";
    object      Dk;
}
// * * * * * * * * * * * * * * * * * * * * * * * * * * * * * * * * * * * * * //

dimensions      [0 2 -3 0 0 0 0];

internalField   nonuniform List<scalar> 
15600
(
0.00236391705337826
0.00207892378985904
0.00119406179406554
0.000471008377205282
0.000120845965104743
7.09298661290053e-05
5.28685173837702e-05
2.2579896293702e-05
1.20906424242435e-05
8.54620761557839e-06
7.07982497823106e-06
6.89517338031307e-06
7.53415885281051e-06
8.89063641470892e-06
1.11409831121086e-05
1.45267118097634e-05
1.9200758849867e-05
2.50615760139228e-05
3.20395720611809e-05
3.98890065625172e-05
4.80550122644602e-05
5.59135816223003e-05
6.34867062259845e-05
7.05243516013539e-05
7.63267738927373e-05
7.99858291529841e-05
8.21345745891082e-05
8.90527580984047e-05
0.000117588457552977
0.000162113336094542
0.000208644682694318
0.00025596304746565
0.00030321372170258
0.000350143086619266
0.000396465401141481
0.000442147370020987
0.000487064885348596
0.000531155263535992
0.000574303249610804
0.000616402835747638
0.000657330179866901
0.000696977521729675
0.000735255629038538
0.000772123146900903
0.000807565553887784
0.000841659999793723
0.000874348336764095
0.000904894799987516
0.000933038178904441
0.000958707746854119
0.000981863086488885
0.00100248845537913
0.00102059139509111
0.0010361971008888
0.00104934828228929
0.00106010334166598
0.00106853484960213
0.00107472800371872
0.00107877866244108
0.00108078868558741
0.00108086500807115
0.00107911228643518
0.00107563582133175
0.00107053804303895
0.00106392725832048
0.0010559216663328
0.00104664096208306
0.00103620460829804
0.00102471924533854
0.00101228181480921
0.000998964942162053
0.000984825512435227
0.000969899983761588
0.000954224746399451
0.000937846859635702
0.000920812173142825
0.000903162863733395
0.000884917596292852
0.000866070281585827
0.000846581120327133
0.00082639657779539
0.000805429775799883
0.000783564690142352
0.000760634699824572
0.000736390448430246
0.000710460191051489
0.000682348463914656
0.000651296155773336
0.00061642412306408
0.000576444362560065
0.000530122912763089
0.000474408770513982
0.00044174725866836
0.000471899823184017
0.000526394933518149
0.000609747526328555
0.00070929930362645
0.000832308376607252
0.000982469023663993
0.00116749090001293
0.00136450481607813
0.00156239541721235
0.00174096914416188
0.00188565584154619
0.0019642813784433
0.00201835975781297
0.00207731919608876
0.00215978302398696
0.00228133989189197
0.00249384778921925
0.0028376434598262
0.00327398271823841
0.0038035820891438
0.00455406300024089
0.00531358894230759
0.00540457867789574
0.00431621829629709
0.00316750749855875
0.00231972024859703
0.00218305662675361
0.0129031538849931
0.0113591175110419
0.00653813803463275
0.00259003194973301
0.00067032038764168
0.000389766666490645
0.000291269945887409
0.000125457972380754
6.6922825585163e-05
4.70857230924149e-05
3.88778774856372e-05
3.77407391368964e-05
4.11384328823499e-05
4.84540199831474e-05
6.06313106828981e-05
7.89923686771606e-05
0.000104408659677874
0.000136360766239639
0.000174487584234786
0.000217489299264716
0.000262365935706788
0.000305659550078538
0.000347411035516746
0.000386069559507595
0.000417868494134548
0.000438048081011862
0.000450360366191748
0.000490559076227872
0.000648380990047603
0.000892608821938609
0.00114803619722204
0.00140771713146519
0.001666991185787
0.00192448114734391
0.00217862730472821
0.00242922330091756
0.00267556985129623
0.00291729650500231
0.00315374962880289
0.00338432719603688
0.00360833570129064
0.0038251723298999
0.0040343401112412
0.00423560714899174
0.00442889246045465
0.00461462274333245
0.00479220664053213
0.00495696583784059
0.00510843144765537
0.00524625633923871
0.00537025734666663
0.00548038594548611
0.00557671804374754
0.00565942460415256
0.00572877005218746
0.00578510138616643
0.00582884014232102
0.00586047304031684
0.00588054069662873
0.00588961366059433
0.00588828510488961
0.00587713470586174
0.00585674198438862
0.00582767078443961
0.0057905149899256
0.00574591737710538
0.00569452650080163
0.00563698509996507
0.00557386730513527
0.00550569068224195
0.00543284430828552
0.00535563035755415
0.00527424372607569
0.00518887945592811
0.00509978634524176
0.00500720671952892
0.00491136050801846
0.00481234250383563
0.00471011317395646
0.00460445517381668
0.00449507501873629
0.00438150128788007
0.00426310376591085
0.00413898337343009
0.00400779262951777
0.00386753110865425
0.00371553275429535
0.00354770176342402
0.00335931985072353
0.0031433442168175
0.00289306607015862
0.00259359242718641
0.00242006596137043
0.00258640861010085
0.0028850044265701
0.00333885162892294
0.00388239487171526
0.00455320654043434
0.00537242497893343
0.00637739178423409
0.00744671356388709
0.00852020459460594
0.00949108605507635
0.0102791919934787
0.0107179104837006
0.0110262497272735
0.0113615630022927
0.0118244748529534
0.0125027398488534
0.0136769932256805
0.0155632217201838
0.0179529181480216
0.0208547035564451
0.0249388697154572
0.0290506609403726
0.0295440851502777
0.0236110324939791
0.017331583529472
0.0126929893635592
0.0119330857504517
0.0311102909165772
0.0275021172968435
0.0159164783586707
0.00632275716305951
0.00164573870311309
0.000944727061240432
0.000708102622750497
0.000307819825413094
0.000163717484547516
0.000114686784179694
9.44146198603341e-05
9.136037482989e-05
9.93446133903028e-05
0.000116801893156826
0.000145976755141786
0.000190069798394117
0.000251263694490604
0.000328374503549759
0.000420515909593676
0.00052453142622043
0.000633167383610076
0.000738109483758961
0.000839279361971697
0.00093239461008718
0.00100759769801503
0.00105693216628568
0.00109585602561532
0.0012102540094238
0.00160671749728472
0.00220238472127742
0.00282263966113306
0.0034499894242717
0.00407318604138382
0.00468922888503703
0.00529450958694782
0.00588854282162176
0.00646969005865103
0.00703707506420115
0.00758920168482083
0.00812472847685084
0.00864215550990676
0.00914022094914161
0.00961793764876999
0.0100749675267025
0.0105113364813367
0.0109284518079956
0.0113163654733475
0.011673359883021
0.0119988210755403
0.0122924059345472
0.012554107712586
0.0127841924556327
0.0129831636132972
0.0131517036827411
0.0132906667375366
0.013401051547544
0.013483986248645
0.0135407051603145
0.0135725239478197
0.0135807953480318
0.0135668864911376
0.0135321197126912
0.0134777931764132
0.0134051648278195
0.0133155428362644
0.0132103140164817
0.0130908628675204
0.0129585386569185
0.0128145447320559
0.0126599436729464
0.0124955347075023
0.0123219219242946
0.0121394930687491
0.01194863681885
0.0117498380834875
0.0115435668833514
0.0113302320715887
0.0111099789227703
0.0108826565202013
0.0106477444012676
0.0104045421808288
0.0101519618867163
0.00988855202016418
0.00961228387982445
0.00932011236334146
0.00900757643155856
0.00866871131347029
0.00829431678543805
0.00787379444020593
0.00739066805136669
0.00682889236835737
0.0061552474959352
0.00576272994902827
0.00613927260004978
0.00682680461949402
0.0078613363022269
0.00911406176182127
0.0106606400128834
0.0125554795184601
0.0148687145691225
0.0173518770820629
0.0198666337709583
0.0221854747065398
0.024119905361132
0.0253112608852571
0.0261989857256405
0.0271344186577409
0.0283545953776334
0.030077483750424
0.0329518435511551
0.0374963485382366
0.0432664440628064
0.0502838793027547
0.0600377255185671
0.0699251151900287
0.071650360499415
0.0578464943212795
0.0425808934546129
0.0310572693154981
0.0289602619607243
0.0542229940577281
0.0482138560992227
0.0282650776758102
0.0112347530338995
0.00292137275953128
0.00164178323905741
0.00123351176655732
0.000541650112998017
0.000287376501067953
0.00020044726344289
0.000164578186776951
0.000158779713548479
0.000172280839442266
0.000202275856673965
0.000252631683292964
0.00032889386312749
0.000434867383477451
0.000568458907960481
0.000727790175537982
0.000906860192576673
0.00109286181273282
0.00127203693669383
0.00144419658955124
0.00160261394861228
0.0017294015842696
0.00182312281641162
0.0019266323671767
0.00218167944945715
0.00288795465285342
0.00387510470044121
0.0048730009602008
0.0058534806063399
0.00680271373119219
0.00772023181154762
0.00860353513318121
0.00945420191361373
0.0102718797209681
0.0110570280104147
0.0118091953652032
0.0125280571132259
0.0132130643330251
0.0138638951121551
0.0144805263295848
0.0150638299763392
0.0156151477106841
0.0161255301360742
0.0165921210980006
0.0170170745823092
0.017400655544853
0.0177434134050302
0.0180461623528506
0.0183099207588669
0.0185358645658346
0.0187252809182075
0.0188795624239752
0.0190001833967641
0.0190886927085398
0.0191466916543969
0.0191758123446251
0.0191776831539566
0.0191538997079579
0.0191059868140525
0.0190354133210227
0.0189435992200456
0.0188320041674514
0.0187021465885875
0.0185555304088893
0.0183935969917727
0.0182176319957956
0.0180287406661405
0.0178277507466804
0.0176152570402998
0.0173916278365239
0.0171572276316338
0.0169125029921985
0.0166578826511771
0.0163937046123228
0.0161200058861985
0.0158364579103841
0.015542304857918
0.0152365374208197
0.0149176529214344
0.0145836525493173
0.0142318270474725
0.0138580989381378
0.0134566115309072
0.0130194491921733
0.0125343353660202
0.0119868109148796
0.0113531890047035
0.0106086025999478
0.00969822535273135
0.00914183061954323
0.00963123190138637
0.0106082387382584
0.0120774806250168
0.0139077400094927
0.0161896452273152
0.0190112903075025
0.0224608640074277
0.0262530486870221
0.030198017039785
0.0340116293464894
0.0374156872277347
0.0399324983154907
0.0420378874452842
0.0442028362169821
0.0467862108151938
0.050152341693835
0.0552987879705958
0.0631036457788039
0.0730092334529222
0.0850571316357265
0.101413001830375
0.11819201439726
0.12292090280855
0.102163017597594
0.0768117707858499
0.056076260031806
0.0513554092776671
0.0816382886396136
0.0727620800244121
0.0438097682819274
0.017468871759045
0.00449242820056802
0.00243855459238853
0.00183391339072029
0.000814472262295291
0.000431307110222845
0.000299579936591637
0.000245411266321025
0.000236142390420335
0.000255782654868997
0.000300105544149126
0.00037483683311692
0.000488032862077074
0.000644852671709968
0.000841323834461427
0.00107286917201646
0.00132827197610084
0.00158769834660843
0.00183292332279154
0.00206460785866608
0.00227734753124785
0.0024586194023862
0.0026221485693956
0.00284223029862428
0.00329057015357794
0.00422750664514163
0.00538583016893649
0.00649995743523652
0.00754331502926638
0.00851955520552994
0.00943833370229751
0.0103046606838537
0.0111245066748314
0.0119013045864094
0.012637958134954
0.0133362713255975
0.0139976180485542
0.0146229859239179
0.0152132386496458
0.0157693349324488
0.0162931749413774
0.0167794622801839
0.0172242001202959
0.0176309501219786
0.0180006884382257
0.018334043328806
0.0186318145628833
0.0188949412514657
0.0191244733153245
0.0193215366259201
0.0194873151994761
0.0196230458337538
0.0197300068228831
0.0198095152253264
0.0198629120056876
0.0198915462157781
0.0198967562632599
0.0198798428688441
0.019842056734744
0.0197845999931363
0.0197086476489249
0.0196153979247277
0.0195060780741944
0.0193818997795986
0.0192440092738094
0.0190934368411753
0.0189310529284502
0.0187575234932009
0.0185733193426642
0.018378747107925
0.0181740960422489
0.0179596937468009
0.0177358497711314
0.0175027800018109
0.0172604613252289
0.0170085565952232
0.0167463868078049
0.0164730350446242
0.0161871517103106
0.0158869361410515
0.0155700210314752
0.0152327986103693
0.0148702100411135
0.0144753565999294
0.0140375199630675
0.0135438370304816
0.0129722827933601
0.0122982983827319
0.0114625120249588
0.0109114277389735
0.0113119873402752
0.0122910222381865
0.0137913537590683
0.0157345159281723
0.0181888686417402
0.0212671748448991
0.0250403781701735
0.029303801500326
0.0338924822270738
0.0385891079204825
0.0431378558111631
0.0471538820512422
0.0509735177391513
0.0550307892033656
0.0597082912437842
0.0654566517513439
0.0733953544977118
0.0846467299429212
0.0987583938795109
0.115804374787342
0.137943320333073
0.160655558578159
0.169826601723646
0.148251625166372
0.117689852757924
0.0884897946651519
0.0797489117067214
0.112025292817939
0.0993721514397111
0.062791539877339
0.0255575335781022
0.00644950230820075
0.00331292058250501
0.0024871874559019
0.00111942460672634
0.000592168158328791
0.000409683829685111
0.000335015669520965
0.000321658285385951
0.000348014627305457
0.000408309477754121
0.000510159849258327
0.000663575565371316
0.00087335305516956
0.00113069091788775
0.00142415188182687
0.00173336945652299
0.00203151486798494
0.00230095478500199
0.0025478888732373
0.00277760647663576
0.00299856293385468
0.00324519613057367
0.00360506005639808
0.00420833103002285
0.00514502402896354
0.00616504166476633
0.00714383453369347
0.00803786197899409
0.00887224803925181
0.00965452253865556
0.0103928215668061
0.0110914114303296
0.0117540958039477
0.0123829197540012
0.0129796253294455
0.0135452323475935
0.0140806255129601
0.0145864563746456
0.0150634396396457
0.0155108610560523
0.0159227501984617
0.0163017593320044
0.0166492412676469
0.0169657442313354
0.0172517781651717
0.0175079858473892
0.0177351160957938
0.0179340070396864
0.0181055576642897
0.0182507203857092
0.0183704906248084
0.0184659013524153
0.0185380175475105
0.0185879255055639
0.0186167190721528
0.0186254881110611
0.0186152960936559
0.0185871778864761
0.0185421336184639
0.0184811516092301
0.0184052304612437
0.018315380433875
0.0182125973804786
0.0180978170003839
0.017971888393305
0.0178355290248417
0.0176893075728098
0.0175336376589409
0.0173688166722928
0.0171951127811745
0.0170128062418618
0.01682216117599
0.0166233576754909
0.0164163979210406
0.0162010358846507
0.0159767698567927
0.0157429075051826
0.0154984137589307
0.0152419004320005
0.0149715994119845
0.0146847577189956
0.0143776225711905
0.0140450718083368
0.013679189883387
0.013270499923121
0.0128023747901251
0.0122561992383768
0.0115863716122967
0.0111154581030456
0.0113798088269468
0.0122238982005233
0.0135525602833439
0.0153175354000338
0.0175702280390647
0.0204073560211072
0.0238753740572099
0.0278479636068308
0.0322044583365838
0.0368153382780875
0.041508200154727
0.0460927514241766
0.0508251588714158
0.0560972509431516
0.0623016943703555
0.069954320261655
0.0800829620604807
0.093799574653135
0.110842958170325
0.13131818846988
0.156439402419778
0.181836830675398
0.194674952219566
0.180548207780146
0.155717800534984
0.125451019747371
0.113540241304476
0.140631853636565
0.123474325552218
0.0838585489100975
0.0360703739503738
0.00899669685857301
0.00424698555643332
0.00316695561712061
0.00144898277238018
0.000766677240137969
0.000528538655913626
0.00043174402192497
0.000413802506642824
0.000447401807788583
0.00052497671182465
0.000655431434865777
0.000848618067472305
0.00110487691805926
0.00140556239277764
0.00172800038491566
0.00204294361552841
0.00232500302023961
0.00256881244844001
0.00279215177014377
0.00301530180451725
0.00326586731791729
0.00358833900704206
0.00405630134281651
0.00472493430477883
0.0055195012744454
0.00632943492741857
0.00715457493449365
0.00790437512491165
0.00861773341380904
0.00928983877054015
0.00992970489769652
0.0105376235589621
0.0111169229051186
0.0116681621507578
0.0121926516374142
0.012690800231855
0.0131631972037893
0.013610179557258
0.0140321995883053
0.0144244205688245
0.0147873986393963
0.015122353568482
0.0154299688652756
0.0157106005390645
0.015964657620561
0.0161926600105157
0.0163952217622634
0.016573037536242
0.0167268584145028
0.0168574873846024
0.016965766105639
0.0170525722103286
0.0171188117806654
0.0171654113063724
0.0171933057756125
0.0172034305027716
0.017196703411443
0.0171740257575218
0.017136273003879
0.0170843144520563
0.0170190202804007
0.0169412632209363
0.0168519024966847
0.0167517435443857
0.0166415226270879
0.0165218667309781
0.0163932873678692
0.0162561692047452
0.016110807357701
0.0159574597445908
0.0157963833989647
0.0156278214808543
0.0154519445035527
0.0152687860348006
0.015078179773282
0.0148797594555679
0.0146730084253469
0.0144571323886679
0.0142310612198632
0.0139934775614589
0.0137422768838599
0.0134746733783079
0.0131868760482386
0.0128730705131173
0.0125263727041948
0.0121345618793825
0.011684300184349
0.0111452608762417
0.0107490352770272
0.0109159867725797
0.0116243470880882
0.0127675897737234
0.0143140164898066
0.0162961729379307
0.0187881089128586
0.0218158594520266
0.0252955782445779
0.0291339934623576
0.0332496121808452
0.037526573895978
0.0419009578921608
0.0465875243848776
0.0519384225799982
0.0583426073912106
0.0663561711194672
0.0768794089020989
0.0908987469555326
0.108320860082522
0.129358276779916
0.15397115873213
0.178505764576099
0.192415403758688
0.188815822376482
0.178259242091449
0.157751749308043
0.146751542144714
0.16151816090143
0.14015897559162
0.103797259091571
0.0491460368279195
0.0123925819349181
0.00522693605319874
0.00383533420927086
0.00179182570100776
0.000950120335830823
0.000653122263508151
0.000533384328558917
0.000510438116328807
0.000551474762832784
0.000646494878940818
0.000803899956526426
0.00102935907141807
0.00131343698731246
0.00162487989594848
0.00193256889281256
0.00220890413068644
0.00244326896539292
0.00264768605674722
0.00284739825385237
0.00307032769729233
0.00335062948538061
0.00372911929098524
0.00425459522953829
0.004921740332853
0.00556819868764038
0.00623419962242927
0.00695654249179512
0.00761054981679804
0.00824505044618306
0.00884430051894658
0.00941889679355499
0.00996608596428993
0.0104891639323323
0.0109877013816418
0.0114628185949909
0.011914553872988
0.0123433386428192
0.0127493310033106
0.0131312209104082
0.013486088043306
0.0138152269298723
0.014119340079447
0.0143988459248508
0.0146540168067383
0.014885206201967
0.0150928618040638
0.0152775178704983
0.0154397827052921
0.0155803176834138
0.0156998332826145
0.0157990750416965
0.015878822084686
0.015939878980382
0.0159830693691674
0.0160092258796574
0.0160191838297966
0.0160137672360991
0.015993789997301
0.0159600456809726
0.0159133227044832
0.0158544036883141
0.0157840687685883
0.0157030852098319
0.015612172246865
0.0155119910490658
0.0154031103249541
0.0152860042283371
0.0151610397374827
0.0150285089694056
0.0148886617728066
0.0147417401581269
0.0145879743021578
0.014427532162103
0.0142604723039882
0.0140866877996042
0.0139059077302048
0.0137177415219968
0.013521566065027
0.0133165380312777
0.0131016578410154
0.0128752796362796
0.0126352892650974
0.0123788244185335
0.0121015233588716
0.0117983039944153
0.0114600835376156
0.0110773912950419
0.0106323880286007
0.0102954536354402
0.0103992318016604
0.0109969295917957
0.0119876168101229
0.0133452956478492
0.0150895413815454
0.0172748945838189
0.0199130951958608
0.0229424211336591
0.0262857887606946
0.0298846708455064
0.0336540603618389
0.0375910354438426
0.0418749069466483
0.0468047269923484
0.0527272576344981
0.0601702016895113
0.069886350803642
0.0826970220763439
0.0985840163312572
0.117918909663513
0.139801473437357
0.161535609506679
0.17437225326752
0.178038863944166
0.181106897370401
0.176386461223461
0.17081992852611
0.171848954510508
0.147751215509854
0.119307818429443
0.0640337984389839
0.016997986262222
0.00625624391392725
0.00444169383376478
0.00213078496235164
0.00113530434323256
0.000778929370928421
0.0006364014521527
0.000608135534702849
0.000655950595555278
0.000766320960996397
0.000944213645844416
0.00118674463111397
0.0014724203707536
0.00176212290371268
0.0020267438038976
0.00225127385708606
0.00244233106895304
0.00262162425446826
0.00281378599475739
0.00304733109988387
0.00335485687376637
0.00376814280515315
0.00431357818589052
0.00494945369004669
0.00548864381052044
0.00607595878518486
0.00673136871048825
0.00732305252460561
0.00790481254308309
0.00845424627067602
0.00898352716524265
0.0094879847075701
0.00997107746660049
0.010431801951918
0.0108712184103163
0.0112891648412559
0.0116859936152791
0.0120617507265385
0.012413590770966
0.0127411844440551
0.0130453264584971
0.013326474472668
0.0135849234788597
0.0138209073464854
0.0140347468738948
0.0142268448178502
0.0143976848945458
0.014547819747964
0.01467785233476
0.0147884316576081
0.014880238876517
0.0149539862477718
0.0150104090941813
0.0150502604962314
0.0150743028158307
0.0150833025906969
0.015078019326596
0.0150592062710722
0.0150275998473747
0.0149839304255637
0.0149289177968285
0.0148632763236923
0.0147877080639251
0.014702871956318
0.0146093765670651
0.0145077508784318
0.0143984433819268
0.0142818096297247
0.0141581386499594
0.0140276739119256
0.0138906470114187
0.0137472795125556
0.013597739855665
0.0134421066861936
0.0132803184815098
0.0131121742755875
0.0129373774915575
0.0127554316228816
0.0125656608409404
0.0123672991807496
0.012159037196647
0.0119392463552497
0.011705737634566
0.0114551883608286
0.0111839310262343
0.0108851921812321
0.0105519745574811
0.0101758440427076
0.0098854097507364
0.00994831281026392
0.0104587940566935
0.0113282829648305
0.0125330033949387
0.0140837961890306
0.016020115841734
0.0183441044793297
0.0210065225698106
0.0239411683019475
0.0271015522035826
0.0304211544248766
0.0339253641872579
0.0377645758708054
0.0421866583013494
0.0474843699110261
0.0541243213182163
0.0627162828147374
0.0739207473597196
0.0877129872071721
0.104581836396951
0.123217373553717
0.141826468268863
0.152866497584227
0.159547923021087
0.170002817086707
0.179531356455518
0.181308117567851
0.172280304291134
0.147675685787188
0.128642856520461
0.079313266458821
0.023173145065052
0.00735526186508161
0.00493192012397221
0.00244266940945093
0.0013120702003715
0.000899618250280098
0.000735738682090215
0.000701857735338145
0.000754533684992845
0.00087547065338241
0.00106335568049624
0.00130497444617457
0.00157020315175792
0.00182135626328742
0.00203924512517162
0.00222255492491061
0.00238804044323604
0.00255861925318895
0.0027549991279271
0.00300365353554657
0.00333273776985068
0.00376468517691218
0.00430928925023255
0.00490630996410508
0.00537748827965604
0.00592366947296464
0.00653165570937311
0.00708091540805602
0.00762494777895214
0.00813843560884931
0.00863447444816183
0.00910732946619975
0.00956058598201713
0.00999292861247191
0.0104053898788339
0.0107977021465418
0.011170167802251
0.0115222654771865
0.0118514772099837
0.0121582814557154
0.0124432304031989
0.0127066487319179
0.0129487675404193
0.013169801154451
0.0133700484752904
0.0135498816952427
0.013709749836979
0.0138501670645335
0.0139716957516466
0.0140749415894525
0.0141605402298898
0.0142291562310172
0.0142814754389786
0.0143182003895253
0.0143400431640088
0.0143477211077233
0.0143419476917118
0.0143234325687954
0.0142928709308645
0.0142509502548766
0.0141983439056996
0.0141357180310605
0.0140637270550183
0.0139829864052681
0.0138940667787683
0.0137974693999127
0.013693624936303
0.0135828817589578
0.0134655265019619
0.0133417979473611
0.0132119205526839
0.0130761103578828
0.0129345381534269
0.0127872995753589
0.0126343694250154
0.0124756005556372
0.0123107697832587
0.0121394784810091
0.0119611796218395
0.011775287281986
0.0115807488886403
0.0113763030318481
0.0111602699185606
0.0109302581662765
0.0106835032630157
0.0104148168689863
0.0101193266575749
0.00979537881572284
0.00954203174672152
0.00957800368471349
0.0100192938683239
0.0107917126425036
0.0118727697143307
0.0132673117719589
0.015003328882646
0.0170764846226931
0.0194451608148701
0.0220512260378002
0.0248554102601918
0.0278038978054332
0.030935388153134
0.0343783716909385
0.0383385626847906
0.0430597491744959
0.0489451944533642
0.0564863270741514
0.0662142698175307
0.0780684319208707
0.0925985990736156
0.108354362367182
0.124246982128543
0.133597819217043
0.140890017760838
0.153118868175441
0.171450011073647
0.179535411443695
0.165515037406204
0.142483649920246
0.131695578550887
0.0934882536933887
0.0311043840886131
0.00862003161857995
0.00527180997762272
0.00270204380168838
0.00146816067593127
0.00100745169506524
0.000825225323228937
0.000785575840089399
0.000840228216827577
0.000965470242888057
0.00115247302458182
0.00137952445283107
0.00161409743790148
0.00182639177082838
0.00200775440157442
0.00216575193426694
0.0023204122553427
0.00249217731557896
0.00269796973582885
0.00296163535456765
0.00330629846308452
0.00374638429852567
0.00428028268293487
0.00484035415102536
0.00527133902777304
0.00579492403092859
0.00636686453612012
0.00688601209552805
0.00740166944414546
0.00788826814463944
0.00835904549367271
0.00880781541061571
0.00923817303895375
0.00964865996269142
0.0100402740611166
0.0104126965153825
0.0107662282699087
0.0110996099951207
0.0114113094954954
0.0117019134266462
0.0119718311648757
0.0122213084404366
0.0124505404838485
0.0126597303050304
0.0128491604477078
0.0130191807941509
0.0131702151264578
0.0133027497392235
0.013417317659259
0.0135144930047012
0.0135948782661525
0.0136591030590603
0.0137078170086535
0.013741685649023
0.0137613843525903
0.013767594645474
0.0137609966253349
0.0137422682133056
0.0137120745222966
0.0136710710167462
0.0136198963269646
0.0135591807521532
0.0134895434915911
0.0134115681873306
0.0133257980456703
0.013232714913032
0.0131327373311186
0.0130262096898291
0.0129134173103488
0.0127945958910454
0.0126699652821556
0.0125397383975159
0.0124040897328135
0.0122631300004552
0.0121168642523233
0.0119651883760306
0.0118079387965891
0.0116447953187146
0.0114753131586389
0.0112990507587339
0.0111151578756214
0.0109226603575363
0.0107203933463376
0.0105065736448487
0.0102790262427481
0.0100339132886061
0.00976806967338843
0.00948473423123434
0.00926145711708323
0.00927944616587536
0.00966508818604694
0.0103584578676659
0.0113382696717225
0.0126051651668622
0.0141783654275756
0.0160490803518101
0.0181806228720647
0.0205211807316172
0.0230363759158657
0.0256820719034414
0.028503138855213
0.0316117743993611
0.0351807358860791
0.0394139902671823
0.044659686476191
0.0513180187239711
0.0598247266309047
0.0700834956836183
0.0826659119821962
0.0961120727283814
0.109830610241778
0.11781573824145
0.124804940581181
0.135908116096967
0.157765424317767
0.169766122177009
0.1545484538961
0.134560388246896
0.129338966017313
0.105418762027078
0.040677222185071
0.0102175251891975
0.00547440924873792
0.00288993600614765
0.00159222252811594
0.00109502220967912
0.000899033349422724
0.000854050008632226
0.000907911104304503
0.00103196582746609
0.00121050306003445
0.00141689413443395
0.00162099431047702
0.00180227999793288
0.00195952086689225
0.00210454559743851
0.0022571261674965
0.00243463715016514
0.00265117928850605
0.00292791328657647
0.00328316494510327
0.00372496467053172
0.00424418246669144
0.00477248243438065
0.00518131844314334
0.00569104618954699
0.00623464339388858
0.00673183242315154
0.00722555003559648
0.00769166942388219
0.00814291372858116
0.00857307666940319
0.00898564044385473
0.0093791157183587
0.0097544479541053
0.010111297222799
0.010449968081662
0.0107685268101612
0.0110665243953611
0.0113443939590782
0.0116024509923597
0.0118408914346419
0.0120598888108098
0.0122596384875693
0.0124404098376586
0.0126025356212511
0.0127464205724686
0.0128725302912472
0.0129813761899841
0.0130735090645799
0.0131495069958905
0.0132099738150922
0.0132555324874773
0.0132868213724266
0.0133044890037598
0.0133091908509183
0.0133015829226788
0.0132823202239217
0.0132520461436547
0.0132113924240969
0.0131609717701052
0.0131013878498973
0.013033233904436
0.0129570704697317
0.0128734209932472
0.0127827541839088
0.0126854808513523
0.0125819439899194
0.0124724288491944
0.0123571695222858
0.0122363832990557
0.0121102819209873
0.0119790446679777
0.0118427961456665
0.0117015674627999
0.0115552899670714
0.0114038501163722
0.0112469923510147
0.0110843549701142
0.0109156160691634
0.0107400880824823
0.0105570941740263
0.0103658774110218
0.010164954131192
0.00995276317915009
0.00972652733059641
0.00948447476534534
0.00923330099551313
0.00903476621588264
0.00904068812267788
0.00938097591121683
0.0100088951403184
0.0109045448550551
0.0120655701372613
0.0135044050538096
0.0152091356183663
0.0171463952111684
0.0192694722425215
0.0215476538664369
0.0239446814366595
0.0265080055761117
0.029337552085236
0.0325805452783367
0.036409649373513
0.0411275815625696
0.047065722185007
0.0545914129744082
0.0635815529106095
0.074605431147012
0.0862518065740491
0.0982612368267442
0.105180089910763
0.111613416477685
0.120704201965037
0.142596343163819
0.156297731212792
0.141818734985716
0.125676100136837
0.122862021713352
0.114440623015557
0.0514812833597796
0.0123598694553799
0.0056071132792232
0.00300372279910205
0.0016782992530865
0.00115792631671064
0.000953817698976262
0.000904865689307238
0.000956328536494248
0.00107595626753861
0.00124276432027614
0.00142842394274166
0.00160726646896982
0.00176658463790073
0.00190941735865247
0.00204916315473098
0.0022040965502177
0.00238897350510821
0.00261586897176498
0.00290331487137058
0.0032653552161981
0.00370509812902791
0.00420870261632273
0.00471108850428419
0.00510913171928192
0.0056091781121442
0.00613031673560811
0.00661129138616342
0.00708788277216938
0.00753835355846991
0.00797444912721809
0.00839023360899387
0.00878897546880165
0.00916922872013314
0.00953186900799952
0.00987655004869554
0.0102034255780235
0.0105104600384646
0.0107977466205951
0.011065624924763
0.011314345204982
0.0115440703943213
0.011754959772396
0.0119472027000272
0.0121210574185137
0.0122768430867955
0.0124149497813635
0.0125358276377841
0.0126399721759199
0.0127279170748472
0.0128002226243778
0.0128574738607473
0.0129002744037354
0.0129292429828284
0.0129450088816272
0.0129482090385285
0.0129394825658116
0.0129194684629219
0.0128887950017853
0.0128480768291489
0.0127979076710463
0.0127388717622195
0.0126715436309573
0.0125964674432379
0.0125141529175925
0.012425060512575
0.0123295968584129
0.0122281057568232
0.0121208736865546