/*--------------------------------*- C++ -*----------------------------------*\
  =========                 |
  \\      /  F ield         | OpenFOAM: The Open Source CFD Toolbox
   \\    /   O peration     | Website:  https://openfoam.org
    \\  /    A nd           | Version:  7
     \\/     M anipulation  |
\*---------------------------------------------------------------------------*/
FoamFile
{
    version     2.0;
    format      ascii;
    class       volTensorField;
    location    "20000";
    object      gradU;
}
// * * * * * * * * * * * * * * * * * * * * * * * * * * * * * * * * * * * * * //

dimensions      [0 0 -1 0 0 0 0];

internalField   nonuniform List<tensor> 
15600
(
(0.0793541434771552 -0.00576425856032083 1.28338208108352e-19 39.8729886342274 -0.073563516187305 1.62989633734456e-21 0 0 0)
(1.11976473200676 -0.0466186654367464 1.64333399742285e-19 47.2346189023861 -1.13814466898144 6.68180163098582e-18 0 0 0)
(3.65883639549812 -0.447176239254535 -2.42757440313629e-18 31.1209182364223 -3.64691619717502 -1.8230382291476e-17 -5.3145181906231e-17 6.22706611254145e-18 3.11208725750032e-35)
(-1.03357969927297 0.321794634358508 -3.09921447134462e-19 -2.78623282927759 0.913089604560717 -1.09737519737778e-18 9.78346897071974e-18 -3.20821740252446e-18 3.86588530839229e-36)
(-7.43397470160667 3.52512114759648 -1.46074796412282e-17 -15.5452894434583 7.33042288440811 -4.59950830275531e-19 -1.7400928125903e-21 9.12499764097601e-22 -1.3188672005097e-37)
(-7.42212381653147 4.62905725262072 1.44676132185162e-16 -11.8250097327841 7.33877877295757 2.58115994730771e-16 -9.47917334995653e-17 5.88245923517185e-17 2.06848539029943e-33)
(-5.08662278741851 3.71578915697959 -4.01093688682785e-16 -6.93153771589396 5.0460361339611 -5.32720420257793e-16 4.08472055183205e-22 -3.06103992742227e-22 1.43815474219144e-37)
(-3.87208103798337 3.09031060206141 -4.48386942434725e-16 -4.81501034808503 3.83590161982582 -5.44482124568996e-16 -4.19585346386105e-17 3.34269654789339e-17 -4.75100833176089e-33)
(-2.74156906162511 2.29854879264603 -4.21933665719991e-16 -3.25607054837658 2.72706941985315 -5.50141086805224e-16 -1.06231217477794e-21 8.56474475120329e-22 -5.54276890209172e-37)
(-2.15283206952167 1.8234117355078 5.29514998423207e-16 -2.52698706887143 2.14002202098141 5.56703234806643e-16 0 0 0)
(-1.62094599732621 1.35400928032012 4.58465802789088e-16 -1.93756817249691 1.61913612231987 5.7284879014729e-16 2.06384579964609e-21 -1.71179163167585e-21 -1.23310207141397e-36)
(-1.41596300114652 1.15711712549404 -2.02799679426018e-13 -1.73144516410055 1.41562248064218 -2.48271947848137e-13 -1.89478511890461e-21 1.57156959639186e-21 1.13209206589285e-36)
(-1.27996961484319 1.02982177182431 -2.05363191982295e-13 -1.59584474427348 1.28446873731691 -2.56950172868594e-13 0 0 0)
(-1.29737787697771 1.03018416693121 3.58768655299506e-17 -1.64076660881014 1.30329425294812 -3.80028872977421e-18 0 0 0)
(-1.3998475638858 1.10177166458143 -9.34459930259612e-16 -1.78846152347177 1.4080933855101 -1.20920740439791e-15 1.53500391054861e-17 -1.20851195298432e-17 1.03642107677783e-32)
(-1.60833547291302 1.25640422724725 -3.44642907554423e-17 -2.06861318256712 1.61664493022903 3.55698628102742e-18 -4.75590515199784e-21 3.71863718609832e-21 4.34529784344316e-41)
(-1.84138935207503 1.42469978388509 -8.51041611214378e-17 -2.38775177901743 1.84903699474824 9.90242383745737e-18 4.50350502531156e-21 -3.52128579516967e-21 -4.11468901271113e-41)
(-2.04762021787612 1.54640343821882 4.02468124629133e-16 -2.71506540030748 2.05393075675704 6.13379613402474e-16 -2.29821745777534e-17 1.73833182681676e-17 5.12900647876209e-33)
(-2.19110067885069 1.58656399468901 2.98834948539349e-16 -3.02458102667963 2.19608350129837 2.97744060542778e-16 -2.52372049445441e-17 1.83201552806974e-17 2.57113414844802e-33)
(-2.23850351384047 1.52135511981617 -7.43790700953674e-18 -3.28615292336434 2.24256232838299 -3.314231625215e-19 -2.62791802241012e-20 1.78029709592785e-20 -1.0560353696092e-35)
(-2.15455355199194 1.33830965358838 -4.3487580754817e-16 -3.4542310951788 2.15878719977789 -6.95876541874291e-16 1.30398886686356e-20 -8.52658046689406e-21 5.2526060137173e-36)
(-1.95456669856062 1.07255540165279 4.75087425918172e-17 -3.54139062824361 1.96088368877276 -5.67091672231939e-18 1.35229730391492e-20 -7.01863536988502e-21 -5.43362940287786e-39)
(-1.68939727503023 0.79161109103486 -5.54551861790222e-19 -3.57728515930773 1.69792582419472 -1.06862494123912e-18 3.50252561012704e-23 9.88273729336122e-22 5.06113401033622e-39)
(-1.37268252641116 0.527802496317996 -2.79078842172971e-17 -3.5285052080157 1.38289195503442 4.83780083306142e-18 -4.48236556908736e-22 1.16183859768102e-21 2.84949964160885e-36)
(-1.0217794416076 0.303025220951149 -1.25886530407604e-16 -3.37057120119059 1.03245319832196 -4.09714416371944e-16 -2.22677942960939e-20 7.1009311888756e-21 -5.55369796000373e-36)
(-0.683164751429561 0.139634679636198 1.60117366990705e-16 -3.19532087494389 0.696414081269848 6.0541514066405e-16 -1.10586268612269e-17 2.40565815566425e-18 2.11344657205717e-33)
(-0.365894960604808 0.0374616984107958 -5.33724532222116e-20 -2.88194431177678 0.369724628387157 6.6125476172538e-21 0 0 0)
(-0.164841606002731 0.00100254103851554 1.2396372608741e-20 -3.38452820716099 0.173969540184526 -1.20675371940109e-18 0 0 0)
(-0.0699294647575653 -0.00156669948037757 -1.1244484548801e-19 -5.29954013387297 0.0804323926704092 8.10552194615275e-19 1.96807744001972e-20 -1.02924021868357e-22 5.42955641599098e-39)
(-0.0626537086760427 0.000156677660500442 -8.4919422008388e-24 -7.17559422135536 0.0711325134695198 -5.08786805201759e-19 -4.54190564317723e-20 2.20995898014315e-22 -1.08599227648643e-38)
(-0.0517664078440785 0.000151922546615467 1.69731838878273e-19 -8.64788842518003 0.0627065201229525 -3.5086235072828e-19 2.57383021368e-20 -1.180719812881e-22 5.43037189559843e-39)
(-0.0443529308955865 0.000120324205803458 -1.13445675297134e-19 -9.91745942396409 0.0554990737593801 2.02382781986304e-18 3.50314071305372e-20 -1.44393611124595e-22 -1.15426526367108e-41)
(-0.0374372011826997 9.60232843371843e-05 -5.73779540569739e-20 -10.9696900304643 0.0495540534811672 -8.46558976156857e-19 -3.50314071305377e-20 1.44393611124597e-22 1.15426526367109e-41)
(-0.0319769254980912 7.20814381636578e-05 5.72585678317452e-20 -11.8631221235752 0.0445624635399948 8.88637504837058e-14 5.70862812724489e-31 -2.14414776807076e-33 -4.2756301349327e-45)
(-0.027383208110196 5.29305997138735e-05 -6.40031271404291e-28 -12.619656112357 0.0404870101730625 9.13847607603741e-14 0 0 0)
(-0.0235766409963027 3.48185366815534e-05 6.32784882869236e-20 -13.2664374301904 0.0369895357715218 -5.50638013939316e-21 0 0 0)
(-0.0202975156826051 1.884043043271e-05 1.66713603090972e-21 -13.8186108190681 0.033943908213139 9.41861043362576e-19 4.86319474275888e-20 -1.70951876145818e-22 -6.27913709752031e-39)
(-0.0174323767684548 3.84748496744378e-06 -5.6788085542348e-15 -14.2895655855337 0.0311805403891118 4.53004770211304e-16 1.68541429495774e-21 -3.71986346234456e-25 5.49044186381346e-34)
(-0.0148590830190868 -9.98656461620763e-06 -5.89331599685518e-15 -14.6879957598509 0.0286155673891492 1.281092975529e-13 -8.41633059733206e-15 1.63622767176126e-17 7.38745226780172e-29)
(-0.012511866269285 -2.29311516556765e-05 5.67888400391826e-15 -15.0209419975434 0.0261723730681666 1.29155998160925e-13 -8.65430686734398e-15 1.51119454016501e-17 7.3970710203719e-29)
(-0.0103389116846862 -3.48855118665003e-05 5.89324402002014e-15 -15.2935831501673 0.0238153636048852 -4.25284638905434e-16 1.0692693072513e-19 -3.32909723001831e-22 5.69763218408946e-34)
(-0.00830871298740865 -4.59479898632843e-05 -1.38728171825503e-19 -15.5102521965828 0.021514442249 -1.03711382345668e-18 -5.39632638065502e-20 1.64768443717102e-22 6.61490248814902e-39)
(-0.00639559397182252 -5.61180746920209e-05 7.03096988372749e-20 -15.6744373407029 0.0192537869890861 -4.58866756817406e-21 0 0 0)
(-0.00458185699662406 -6.54353500077995e-05 0 -15.7891178885057 0.0170203540743547 0 0 0 0)
(-0.00285592976840806 -7.39468117645852e-05 -6.92249323711339e-15 -15.8568432440848 0.0148090524238279 3.76489312439452e-16 0 0 0)
(-0.001212799556395 -8.17217083030924e-05 -7.17250409287184e-15 -15.8799969716548 0.0126165191761554 2.72035992120251e-13 -9.106933638722e-15 7.20405970156524e-18 1.56535818473006e-28)
(0.000350636096309533 -8.86811598541032e-05 6.92253495402122e-15 -15.8608830752169 0.0104456592341443 2.79020680688661e-13 -9.12987127661514e-15 6.03744607912574e-18 1.60138036022827e-28)
(0.00183379288750634 -9.46629672010298e-05 7.17250409287164e-15 -15.8017118124571 0.00830396593496637 -3.36607568690573e-16 2.80936920780774e-20 -6.24747243887025e-23 3.46727551382735e-34)
(0.00323258671053805 -9.96424734691188e-05 -4.17169071457627e-20 -15.7047988435629 0.00620379915780248 -8.44684088765081e-19 0 0 0)
(0.00454410972268113 -0.00010371521543373 -6.68836358355538e-31 -15.5725303999957 0.00415434634221846 3.17825071230049e-30 -7.49155201727929e-31 1.99511570574062e-34 1.51866514701951e-61)
(0.00576720188613923 -0.000106920550162367 6.50873139150602e-31 -15.4073128836264 0.00216281479018479 3.22462213769397e-30 -7.41205518060937e-31 1.03721292998378e-34 1.56403034655438e-61)
(0.00690178885769079 -0.000109311430289403 1.37410655143414e-30 -15.2115497612721 0.000235575707456916 -4.22824651617626e-32 0 0 0)
(0.00794881190912888 -0.000110942822633309 -7.23661559207802e-31 -14.9876140949882 -0.00162303909511393 -3.43100839302716e-30 7.21013502801991e-31 7.83628433147379e-35 1.66087799507362e-61)
(0.00890950861248056 -0.000111861537633431 -7.05270193078678e-31 -14.7378322178326 -0.00340870422083246 3.57394970204774e-30 -7.08997154682019e-31 -1.64241379757994e-34 1.71223595944343e-61)
(0.00978530823866796 -0.000112122258296498 -3.69485943334044e-32 -14.4644878932293 -0.00511801484301072 -1.95398855544671e-33 0 0 0)
(0.0105779799096573 -0.000111779018500827 -5.32950959544075e-44 -14.1698100316308 -0.006747991487286 3.78090874136825e-30 -6.81672289150438e-31 -3.24831166247136e-34 1.82049007920026e-61)
(0.0112895342542012 -0.000110887637071711 7.60610153541213e-31 -13.8559700233144 -0.00829646633549461 -1.10311543900979e-32 0 0 0)
(0.0119224813877738 -0.000109511105527852 3.5426556464689e-21 -13.5250725649449 -0.00976186948388965 -2.5689626417452e-23 0 0 0)
(0.0124798023584663 -0.000107707074431978 -3.54506607305192e-21 -13.1791418540125 -0.0111439605647696 5.27508685872133e-20 1.46824529306158e-21 -9.96497384575799e-27 7.28272648042975e-45)
(0.0129649832188133 -0.000105541373708553 -1.01837824604509e-14 -12.8201133963585 -0.0124427304299142 -5.27610532213945e-20 -1.46824529306149e-21 9.9649738457574e-27 -7.28272648042932e-45)
(0.0133818421748048 -0.000103066750043516 -1.03946145442968e-14 -12.449820517134 -0.0136599044688421 5.24558673242655e-14 -7.1540051907597e-15 -7.84935212370706e-18 3.01425525712562e-29)
(0.0137340419699227 -0.000100333364881046 1.01837789177956e-14 -12.0699959171302 -0.0147962577726499 5.43052367504341e-14 -6.93388914750646e-15 -8.50105773473119e-18 3.12485900702969e-29)
(0.0140249348749076 -9.73835625947203e-05 1.03946180893634e-14 -11.6822813302107 -0.0158538301039115 7.53767461802317e-17 -5.62016016383051e-31 -7.6269392029836e-34 2.2495685731621e-61)
(0.0142565450972317 -9.4229710322754e-05 -3.20299494314175e-20 -11.2882395844479 -0.016832747590738 -4.64531423476089e-22 0 0 0)
(0.0144305883771569 -9.09272122514518e-05 3.2055410994059e-20 -10.8894025151728 -0.0177328880921791 -4.76235173339525e-19 -9.7447952161917e-21 -1.42168415373671e-23 6.15424975327431e-43)
(0.014550056243632 -8.75280240364568e-05 3.20299494323036e-20 -10.4872308234177 -0.0185565840554476 4.77775998958505e-19 9.74479521669647e-21 1.42168415382601e-23 -6.15424998281842e-43)
(0.014619049338033 -8.40907575074696e-05 -3.20554109940578e-20 -10.0830915111623 -0.019306458328785 -6.97351039949724e-22 0 0 0)
(0.0146424277816438 -8.06513315997701e-05 9.92133107046141e-31 -9.678228558771 -0.0199878239278798 2.87778789920151e-32 0 0 0)
(0.0146252012174451 -7.72435327747758e-05 -1.00863808270764e-30 -9.27375879950463 -0.0206044629069702 -5.56342946384551e-30 4.46162012779478e-31 9.91104362443842e-34 2.66270764854842e-61)
(0.0145722402301242 -7.38828579989951e-05 -9.92133107046079e-31 -8.8706723021299 -0.021162435334604 5.64643858216102e-30 -4.26772740822826e-31 -1.01792980732415e-33 2.734089166527e-61)
(0.0144874607838381 -7.0572909248265e-05 2.04956445936619e-30 -8.46984468270569 -0.0216646940066364 7.80864015276687e-32 0 0 0)
(0.0143734761366501 -6.73096210158326e-05 1.26610635626425e-14 -8.07207636393651 -0.0221151659803621 5.52357705664232e-16 3.88358479705975e-31 1.06373269384783e-33 -7.15089376737637e-50)
(0.0142302842537765 -6.40601256236137e-05 1.27645215653407e-14 -7.67812523114806 -0.0225135167013004 -7.11083498101731e-14 4.41959008670708e-15 1.29651080515531e-17 4.05444173606303e-29)
(0.0140571356792047 -6.08629839493288e-05 -1.26610635626425e-14 -7.28879630543521 -0.0228588743665036 -7.70935156491609e-14 4.18037902960833e-15 1.30987495906019e-17 4.4672173748558e-29)
(0.0138548467815787 -5.77452283040251e-05 -1.27645215653414e-14 -6.90487927728729 -0.0231530248987562 -6.47934984938364e-16 0 0 0)
(0.0136252573082961 -5.47391223931827e-05 2.10157049728729e-43 -6.52713440890197 -0.0233975668064171 -1.31668362073363e-29 6.28084517255597e-31 2.25075840889835e-33 1.26779932342746e-60)
(0.0133710096146457 -5.18532319449931e-05 -2.20502955683877e-30 -6.15625853715367 -0.0235968294185587 -1.27918468422853e-31 0 0 0)
(0.0130942780674093 -4.90783170742313e-05 0 -5.79288694206982 -0.0237527871355027 0 0 0 0)
(0.0127953137050794 -4.63800516540284e-05 1.39232090066365e-14 -5.43762437765953 -0.0238676372970062 9.5916162881156e-16 0 0 0)
(0.0124718662167364 -4.37372438868027e-05 1.39492692097804e-14 -5.09111684003615 -0.023938399344709 -8.22935305021974e-14 2.93364993418013e-15 1.38155198221324e-17 4.67382675838487e-29)
(0.0121201811256028 -4.11470598191328e-05 -1.39232090066346e-14 -4.75410587598223 -0.0239631210595399 -9.11831254907066e-14 2.7238988203732e-15 1.36999710114463e-17 5.30052861647386e-29)
(0.0117355361021654 -3.86082757299203e-05 -1.3949103368107e-14 -4.42745317664206 -0.0239364280573832 -1.06213363528987e-15 0 0 0)
(0.0113106852811937 -3.60979360975639e-05 -1.65947563974375e-19 -4.11217538851743 -0.0238533215686954 5.94205533204679e-18 1.53366798340746e-20 1.61825318118605e-22 1.02378186495605e-41)
(0.0108346422645979 -3.36069608801746e-05 -3.35187917741489e-19 -3.80955030851079 -0.0237017979138547 -2.49895728814256e-18 -1.53366798342722e-20 -1.6182531811975e-22 -1.02378183630247e-41)
(0.0102920377835668 -3.10871156881154e-05 5.06439729154269e-19 -3.52121842123478 -0.0234687535575796 -2.47568184105987e-18 -1.32940892543631e-20 -1.68080134828888e-22 1.65468992228837e-38)
(0.00965079922883476 -2.84231018489421e-05 -1.79482294750131e-21 -3.2493541207879 -0.0231244006188215 -2.76519668390792e-13 2.56551103906694e-20 3.3890830010824e-22 -3.2920269711586e-38)
(0.00887934583727857 -2.57414285950293e-05 -3.40492164801159e-19 -2.99733519649863 -0.0226279450596881 -2.76176244892674e-13 -1.23610211363037e-20 -1.70828165279318e-22 1.6373370488699e-38)
(0.00788538395153358 -2.24977791600849e-05 1.71141066125935e-19 -2.76921545117927 -0.0219207324631697 -3.69754447209932e-18 -1.33257021694532e-31 -1.05428121416386e-33 -1.78711399364958e-49)
(0.00663858236013075 -1.99675301407634e-05 -1.30921280929947e-30 -2.57319681498723 -0.0208877737483774 -1.42238824379907e-31 0 0 0)
(0.00489371858243363 -1.92186004401219e-05 2.46663694568934e-43 -2.41561698365213 -0.0194967264421784 1.72292104488885e-29 -2.32466912617081e-31 -1.87530683694006e-33 1.65884515461454e-60)
(0.00316403544244422 -1.37007520223351e-05 1.50934461108792e-14 -2.31685474650713 -0.0176905933163881 1.69260975358964e-15 0 0 0)
(-0.000678341018823401 -0.00162485067754808 1.49820745402956e-14 -2.26538193404063 -0.0149901658173952 -3.91144887622539e-13 1.25367717580979e-15 8.37168105074725e-18 2.14499625030783e-28)
(0.084349191843859 -0.00233160379010054 -5.28001455987195e-16 -2.3648467226774 -0.0954681254346711 -4.00779975792989e-13 1.2949450751606e-15 5.19277714481993e-17 2.2154760249683e-28)
(0.301890348540926 0.0317134803338484 -1.47666057983414e-14 -2.34402136606157 -0.309207334194974 -1.76098960725577e-15 0 0 0)
(0.484908683515762 0.0991258198105613 3.58337461704305e-16 -2.19535968364465 -0.483595967575112 -1.23496400971939e-15 7.61136759734558e-18 1.67338166099922e-18 4.32170034866073e-33)
(0.61239454034287 0.182063243575071 -7.85010898405079e-16 -1.96545517959092 -0.606253868862659 1.30710584480065e-15 0 0 0)
(0.633562238095035 0.243547460180804 1.30733260575898e-15 -1.57631335334071 -0.62009745810198 -2.62711145486484e-15 -6.52537651074001e-21 -2.59185115386507e-21 1.81415178063638e-35)
(0.527816282864613 0.248239149093018 -2.29612830727575e-15 -1.06581119794907 -0.509801754578235 5.24810138796761e-15 8.01774066278348e-18 3.83039959951809e-18 -3.9193279134861e-32)
(0.248126400480823 0.140187152149671 -2.42967271641091e-15 -0.390763819417345 -0.225743149049506 3.70015379396384e-15 -3.0582999009518e-18 -1.76308642107245e-18 2.90319563181543e-32)
(-0.273759387193686 -0.157184259083235 1.67944857027338e-16 0.508886269849885 0.29460316989625 1.60337764013997e-17 2.76555040596064e-21 2.08784006395181e-21 1.84501602619726e-35)
(-1.07180649381296 -0.700361965227574 -1.50972887911144e-15 1.65839469640092 1.08672968637244 2.47049169129915e-15 5.39525179796967e-21 3.76011888002941e-21 1.79853896991266e-35)
(-2.15166257739348 -1.5047293812159 -1.91920830492972e-15 3.07333297154868 2.1528671139067 2.39527431939981e-15 -8.80072047014428e-21 -6.31298631356605e-21 -3.96647068623348e-35)
(-3.48723163323469 -2.54730360696664 2.5645611502376e-15 4.74708891230808 3.47047789051399 -3.46622527560836e-15 0 0 0)
(-5.05268433182631 -3.78245264003521 -1.8178025924487e-15 6.69286632113479 5.01171283403817 2.36781425634149e-15 -1.62309296076923e-20 -1.21074340689531e-20 -9.57826504184534e-36)
(-6.70208737299962 -5.07362426207822 2.59737148766815e-15 8.77123363163065 6.64125041338187 -3.40919330387289e-15 -3.71071321446287e-21 -2.86007263249396e-21 1.0054624088857e-36)
(-8.40251024156757 -6.42428797825171 8.0304498382012e-16 10.8802188427307 8.32156028281659 -1.05059181614724e-15 -9.32632653934044e-17 -7.13291023001183e-17 9.00117541223495e-33)
(-10.2830203317717 -7.97125234607479 -2.6306387255604e-15 13.1260599481294 10.1803497498536 3.31628814825697e-15 0 0 0)
(-12.4982652559572 -9.86082146031714 8.01283354665229e-16 15.6646361016075 12.3667614652367 -1.0173308198644e-15 -1.3589972120108e-16 -1.07283776684235e-16 8.81298205457219e-33)
(-15.2103653995791 -12.259739296765 -2.12114287635512e-16 18.6492689967037 15.0417927149154 -1.80309344974432e-17 -2.00176635136404e-20 -1.56568584073244e-20 -4.94984175347954e-36)
(-18.8278023042212 -15.5465644857521 4.2924123486215e-15 22.51092546745 18.5973539884504 -5.10990608161422e-15 -2.78303371939037e-20 -2.26238622626111e-20 4.33524624698614e-36)
(-23.9439871761331 -20.1244449927654 1.75615212121482e-16 28.0965222761558 23.6117039180096 2.95696932389746e-18 -2.50460023318539e-16 -2.10479945801102e-16 5.32644297707522e-35)
(-30.863086402205 -25.6518769752407 6.91279217931453e-16 36.5942352683093 30.3877305917781 -8.28307005152929e-16 7.9057506848472e-21 6.71407499347894e-21 9.95279901431133e-37)
(-38.8716754870171 -30.8856493176674 -3.42156664912513e-17 48.2457454909827 38.265136031934 -1.92137836546409e-18 1.65413707672376e-20 1.27941402319756e-20 1.19096292128828e-36)
(-48.43950495257 -35.2022424445584 4.38157699954639e-16 65.7493272606114 47.6416549170311 -5.98653132200393e-16 -5.54107340436277e-16 -4.01493887932545e-16 5.03593222626143e-33)
(-56.5128229894875 -35.1731474758016 -4.63014875785518e-17 89.8169586047702 55.6249777346377 6.47202262428219e-19 5.35321082680378e-21 3.46359563621578e-21 1.740171971564e-37)
(-56.6045871872169 -26.6692439512245 8.4411863446109e-17 119.326792584809 55.749359952413 -1.77665026957148e-16 -1.44405652047902e-20 -5.32080034801768e-21 4.10611541074569e-38)
(-35.6041875918295 -10.2369557048292 4.64190973830058e-18 125.162234592209 35.2736180169096 -1.79317480823765e-18 -4.40885840968844e-16 -1.24223168246446e-16 5.71801539165089e-36)
(-12.2421386477886 -1.7195585585358 3.23681634596046e-17 93.6649861894925 12.1995128568896 -2.62506092584591e-16 1.19664394739564e-20 2.57880552330678e-21 -1.19373715606132e-40)
(-1.61889742270134 -0.100236807726215 -4.05323387997038e-19 53.0477510973668 1.67111343176026 1.65312753498937e-17 -2.24601298998814e-17 -7.07015734076789e-19 -7.00030012446674e-36)
(-0.0536776218075532 -0.00692596600743472 6.79787180776246e-19 34.2209881795907 0.0427943957952889 -3.4340452662932e-21 2.08096120840617e-21 3.61152402449086e-23 -3.59374647809956e-39)
(0.178651516378375 -0.0175628846202204 7.04120945034712e-23 42.432103264789 -0.15265593461552 8.93540332826306e-25 0 0 0)
(1.04374792838543 -0.0794044113418298 -5.28236770408396e-19 47.6015758170979 -1.073528506653 -6.44801026975577e-18 -1.20022506372768e-20 7.24013459578361e-22 3.75578401928805e-39)
(3.5341610744221 -0.405254888827202 -9.29836686063844e-20 34.0873629278309 -3.48096110180829 -6.4594187710328e-19 5.12896365583369e-17 -6.00897040143973e-18 -3.00310373052087e-35)
(0.0188614567997507 0.199198055156158 -6.98471009195095e-17 2.7195225964489 0.0569162684347483 -2.4996246733167e-16 -9.67452686522971e-18 -1.77746472873605e-19 8.80742924055942e-34)
(-6.24336868326838 3.12898831906183 3.48364895760611e-16 -12.8040394845398 6.34854588083956 6.90467482334777e-16 -2.86843348928677e-21 1.36495833360572e-21 -1.71826928518819e-40)
(-6.63359484017471 4.1886775156401 8.29092440488193e-16 -10.7535272842474 6.69640567972082 1.31903590752808e-15 9.13985698004547e-17 -5.67187497153746e-17 -1.99428126658051e-33)
(-4.65422077361121 3.40756324586787 3.57519684262409e-16 -6.486633313858 4.70066941562148 5.13932690414136e-16 0 0 0)
(-3.57997125274831 2.86117851219475 1.07907811221431e-15 -4.53423328669223 3.6043811218052 1.34024071581666e-15 -3.94727133863374e-17 3.13798197852627e-17 1.16695280560082e-32)
(-2.58550344625149 2.16067874002996 1.13554202987969e-15 -3.12405210939124 2.60374845364953 1.34764936413605e-15 -4.75073226958933e-21 4.00761231031614e-21 6.94482906482912e-42)
(-2.04841850508281 1.72626547018958 -4.60837515436191e-16 -2.43903518433504 2.05573506998745 -5.39626911157485e-16 4.34566711794591e-21 -3.66590833794167e-21 -6.35268703731684e-42)
(-1.58177886930005 1.30877998238138 -1.42333243917236e-14 -1.91255559093482 1.58557540965514 -3.94867737458326e-16 0 0 0)
(-1.40031967291741 1.13478977633305 1.82046527937433e-13 -1.72262012033199 1.39884971404906 2.43282354812822e-13 -8.45388462139586e-15 6.88766304507869e-15 1.20864185427322e-29)
(-1.29449761344492 1.03247949450796 2.07620934836537e-13 -1.61599022021531 1.29110930855629 2.45138391730633e-13 -7.91383091822854e-15 6.34544659069039e-15 -1.00476114871931e-29)
(-1.32750905527379 1.0483093628196 1.25850321185438e-14 -1.67095494926674 1.32119634670394 -2.20047797373257e-15 0 0 0)
(-1.44208329134536 1.13262652582594 1.90051754336408e-16 -1.82494013739811 1.43472662212415 2.52726008893094e-16 -4.52733480351515e-17 3.56252039433649e-17 -1.7829300757305e-32)
(-1.64457460421016 1.2866166598396 1.05335211679158e-16 -2.09010128714741 1.63698012626892 -1.20438650105193e-17 0 0 0)
(-1.86293453814348 1.44494169113366 1.29982336325361e-16 -2.38736024308392 1.85623250471132 -1.55057073507929e-17 -3.18946741783383e-20 2.4363393731366e-20 1.59182464901326e-35)
(-2.04947174755445 1.55068812233779 3.4621973828439e-16 -2.68827285289786 2.04407872251833 3.55098863323326e-16 6.71286573778018e-17 -5.08583936698954e-17 -1.2993122941698e-32)
(-2.17225327146919 1.5724180117847 3.53904477662077e-16 -2.9710056407585 2.16848806745642 6.79441240449026e-16 2.43527285499724e-17 -1.76778117035885e-17 -2.47462118104249e-33)
(-2.20366886289741 1.49048325194 -6.55798877278302e-17 -3.21299424711169 2.20132682780537 7.9844355079074e-18 0 0 0)
(-2.12310734544471 1.30219457890641 4.17116209586828e-16 -3.3896014466979 2.12021195787722 6.72654572371138e-16 0 0 0)
(-1.94537017388536 1.04302963393789 -1.56747011797668e-18 -3.51716955825693 1.9412526064409 -2.70617938710218e-18 0 0 0)
(-1.70650494939676 0.770401368973092 1.0330506010538e-18 -3.61444115817368 1.7011892278933 2.02419496859519e-18 -3.84896378078526e-20 1.65885416456613e-20 1.06294324520704e-40)
(-1.4177509872729 0.51354145125571 -4.31056698534473e-16 -3.66013109734639 1.41128811186909 -1.11118111825986e-15 3.68823883164263e-20 -1.58958376702019e-20 -1.01855688338149e-40)
(-1.09612029009001 0.294282601863735 1.63630734171874e-16 -3.64697960203401 1.08770325240105 3.89832463029215e-16 0 0 0)
(-0.764365151922424 0.13012595305518 5.45789935613087e-18 -3.62183820066953 0.761759377485702 2.28924506540167e-17 1.06807950759674e-17 -2.32404606225433e-18 -2.03666639655419e-33)
(-0.479155863457044 0.0322903730821608 -8.07153294693456e-17 -3.65060053013928 0.466507962125889 -2.9438601563899e-16 0 0 0)
(-0.283745436336273 -0.00450976019264196 2.69984390878371e-18 -4.37332021262359 0.282832851536023 7.44130333508805e-17 -4.3576252195219e-20 1.3928454132327e-21 -8.04588590495738e-39)
(-0.190614657329486 -0.00552679273567303 1.64811341815028e-19 -5.98803151274901 0.187744617737097 1.38588561104684e-18 -2.00848815209774e-20 -4.60583146298589e-22 1.58223657289174e-38)
(-0.168097943100413 -0.00138356759323101 -7.87480337679978e-20 -7.49748001319414 0.158828478739437 -4.65331856878831e-19 6.14582588831311e-20 -8.8070392070258e-22 -7.30901170338614e-39)
(-0.137147806884747 -0.00124701822648828 -3.92042048261756e-22 -8.66787165482819 0.129021243939528 -1.90843303894179e-18 -8.99274216440096e-20 6.35358732887395e-22 -7.20958122790477e-41)
(-0.115612630639261 -0.00104153459289936 8.14402569710159e-20 -9.63481886083747 0.105245428697122 1.30846423903995e-18 8.99274216440126e-20 -6.35358732887417e-22 7.20958122790501e-41)
(-0.0966033412747554 -0.000861879077434458 6.19053341358578e-15 -10.4198726634029 0.0856951817074068 -6.05185124321902e-16 0 0 0)
(-0.0816895637533667 -0.000706745118210751 6.36623761626491e-15 -11.0703000283666 0.0699100862146135 -7.75810699425037e-14 1.11733372198195e-14 -5.60721112376624e-17 -3.76948285578204e-30)
(-0.0692875208058623 -0.000582733959059163 -6.19061408083397e-15 -11.6093281607374 0.0571049296899358 -7.59187767728816e-14 1.19233563638889e-14 -4.81266941594015e-17 -6.40163956174443e-30)
(-0.0590118008672347 -0.00049216641268883 -6.3662376162648e-15 -12.0584764024281 0.0464728439755633 5.78126774919174e-16 0 0 0)
(-0.0501735568912402 -0.000424415611201028 6.42053292121511e-31 -12.4309102322776 0.0374872267515111 -9.08719441176029e-19 0 0 0)
(-0.0424422751377228 -0.000375351353515925 1.47825596315328e-14 -12.7372339433168 0.0297091714501543 -1.17917969196851e-15 6.6338553158052e-31 -1.44730061512474e-33 -1.15191444757635e-51)
(-0.0355028557054707 -0.000338671022691629 1.51393803505635e-14 -12.9847503843045 0.0228550923812884 1.87408439118798e-15 2.16947923487947e-14 -4.10224555039592e-17 -1.33894020278323e-28)
(-0.029179194797997 -0.000310732847268648 -1.47825596315329e-14 -13.1792754518459 0.0167144436978586 6.58892823160414e-15 2.21184831576718e-14 -3.54078624962766e-17 -1.3676006458112e-28)
(-0.0233366943456925 -0.000288399483998388 -1.51393803505631e-14 -13.3252830825779 0.0111563897111695 1.09701003099069e-15 0 0 0)
(-0.0178904654326072 -0.000270192066832742 -1.38930604348515e-33 -13.4265076610683 0.0060807194395115 1.00969210811362e-18 3.60004158590819e-31 -4.992004046296e-34 2.42903867359924e-50)
(-0.0127729564255937 -0.000254922757575181 -3.57677881436118e-31 -13.4860363550598 0.0014165807013331 2.33433640244816e-32 0 0 0)
(-0.00793722595140611 -0.000241803095699696 0 -13.5065272351124 -0.00289506089729318 -1.29129610177831e-18 0 0 0)
(-0.00335385380246781 -0.000230109942375438 2.61048218881277e-14 -13.4902899894722 -0.00689454100214831 -1.41912188617306e-15 0 0 0)
(0.00098900794848477 -0.000219213912833941 2.69005230074495e-14 -13.4394915527675 -0.010600179580772 -9.1461714087491e-14 3.74505900173903e-14 -8.5343570342402e-18 -3.21040724924128e-28)
(0.00510018819895125 -0.000208439776075838 -2.61047629263044e-14 -13.3562913228275 -0.0140183522853604 -8.84299811688441e-14 3.74074523039881e-14 -1.84177550717616e-18 -3.35339704212996e-28)
(0.00897945666144654 -0.000197297463062498 -2.69005819780547e-14 -13.2428982038485 -0.0171564754506234 1.26808053317635e-15 7.43298061371189e-20 1.08331612458828e-23 4.09616537530195e-43)
(0.0126187878551257 -0.000185695441827309 -5.8961822573412e-20 -13.1013990175788 -0.0200170224403218 7.05998614827821e-19 -7.43298061371246e-20 -1.08331612458836e-23 -4.09616537530227e-43)
(0.016014890989695 -0.000173893695174521 5.89706063746067e-20 -12.9338636984305 -0.0226035013686455 -1.48721146077948e-18 7.228637942537e-31 -1.92509763757948e-34 -1.4653679876257e-61)
(0.0191677794199426 -0.000162047337211958 -8.94715141902556e-31 -12.7423221545108 -0.0249227057522262 7.52003600547956e-19 7.15193102672857e-31 -1.00081221125841e-34 -1.50914110725059e-61)
(0.0220798583621459 -0.000150301699223297 -1.89161307012722e-30 -12.5287517260959 -0.0269829542618404 5.82036184250344e-32 0 0 0)
(0.0247555265029669 -0.000138742165564907 9.98209516650362e-31 -12.2950673797268 -0.0287949344197994 -4.0681058422765e-19 -6.95709720951602e-31 -7.56127196558792e-35 -1.60258991266721e-61)
(0.0271997195673938 -0.000127384649389803 9.71705176320514e-31 -12.0431182213956 -0.0303687564554044 8.24685358339755e-19 6.84115083451873e-31 1.58477371139498e-34 -1.6521454825997e-61)
(0.0294177397525034 -0.000116266098532952 5.39825132053033e-32 -11.7746908723318 -0.0317149958966039 -8.46498657435489e-19 0 0 0)
(0.031415577681348 -0.000105416528752822 -8.21205225048884e-44 -11.491505880809 -0.0328441736711266 8.68752512602538e-19 6.5774917698816e-31 3.13431300728738e-34 -1.75660045210496e-61)