/*--------------------------------*- C++ -*----------------------------------*\
  =========                 |
  \\      /  F ield         | OpenFOAM: The Open Source CFD Toolbox
   \\    /   O peration     | Website:  https://openfoam.org
    \\  /    A nd           | Version:  7
     \\/     M anipulation  |
\*---------------------------------------------------------------------------*/
FoamFile
{
    version     2.0;
    format      ascii;
    class       volScalarField;
    location    "20000";
    object      k;
}
// * * * * * * * * * * * * * * * * * * * * * * * * * * * * * * * * * * * * * //

dimensions      [0 2 -2 0 0 0 0];

internalField   nonuniform List<scalar> 
15600
(
1.12472619220799e-06
9.92488643742114e-07
5.74556488334485e-07
2.27232097801781e-07
5.7766405313381e-08
3.52194709419094e-08
2.89936239891957e-08
1.42550059398454e-08
8.996648592265e-09
7.59889127155467e-09
7.56420422250603e-09
8.73917553745809e-09
1.11340069591819e-08
1.50972883919049e-08
2.14693242157529e-08
3.14281429112488e-08
4.63229468835182e-08
6.74906740621316e-08
9.64646646939914e-08
1.34376368369358e-07
1.81087591680054e-07
2.3511420539184e-07
2.95027699358464e-07
3.56952400680024e-07
4.13741349711103e-07
4.55375701043446e-07
4.80262863195023e-07
5.21732131417411e-07
6.85353237635575e-07
9.44864227844917e-07
1.21606834920072e-06
1.49185954115107e-06
1.76725620439667e-06
2.04078014273168e-06
2.31076593783936e-06
2.57701953110722e-06
2.83881756980749e-06
3.09579470780858e-06
3.34727919099684e-06
3.59265316149245e-06
3.83119481593355e-06
4.06227608264356e-06
4.28537687852568e-06
4.50025616999397e-06
4.70682932009598e-06
4.90554599005519e-06
5.09606726989024e-06
5.27410481499506e-06
5.43813618113612e-06
5.58774914379652e-06
5.72270813379406e-06
5.842921397675e-06
5.94843289083565e-06
6.03938946179847e-06
6.11604003946618e-06
6.17872501726132e-06
6.22786736685193e-06
6.26396365555511e-06
6.28757258630817e-06
6.29928784067167e-06
6.29973267998252e-06
6.28951708628037e-06
6.26925479574494e-06
6.2395428148163e-06
6.20101240054705e-06
6.15435246698308e-06
6.10026064661771e-06
6.0394332181157e-06
5.97249172603549e-06
5.90000118653607e-06
5.82238489108378e-06
5.73997438943909e-06
5.6529821748242e-06
5.56162034486417e-06
5.46616318073713e-06
5.3668779134827e-06
5.26401036717952e-06
5.15766932857463e-06
5.04781930706103e-06
4.934228335783e-06
4.81658439202672e-06
4.69438111341258e-06
4.5669422624558e-06
4.43329670239258e-06
4.29199107988703e-06
4.14085871035911e-06
3.97701182401104e-06
3.79602600346389e-06
3.59277723286333e-06
3.35975849148051e-06
3.08977773635266e-06
2.76504678775977e-06
2.58805840194385e-06
2.75932469800245e-06
2.99687412651683e-06
3.30523290399607e-06
3.59005199595643e-06
3.86780225505518e-06
4.13123997996472e-06
4.39950185068194e-06
4.59668509216478e-06
4.70405627618675e-06
4.68841947509779e-06
4.54925433266825e-06
4.24966893319808e-06
3.88949696705971e-06
3.52751878746994e-06
3.19173509467599e-06
2.89144720171061e-06
2.66446897140865e-06
2.52310089909288e-06
2.43617096425913e-06
2.40125484051918e-06
2.49749372191177e-06
2.63840609835224e-06
2.58347957405047e-06
2.08230550772158e-06
1.52413551307797e-06
1.10744608081341e-06
1.03867475539131e-06
3.63660100669479e-05
3.21121771742236e-05
1.86130289903094e-05
7.40004716390777e-06
1.89983714227821e-06
1.14784408494331e-06
9.46848780420874e-07
4.69220844327109e-07
2.94859959048987e-07
2.47797273769664e-07
2.45783390571242e-07
2.83042240358695e-07
3.59757435138763e-07
4.86919763618352e-07
6.91426154476994e-07
1.01125979891903e-06
1.4902655101277e-06
2.17193024095477e-06
3.10631777002796e-06
4.33135363090509e-06
5.84436592651017e-06
7.59760311881031e-06
9.54483128443056e-06
1.15561951872164e-05
1.33991661908824e-05
1.47529033437413e-05
1.55699141764672e-05
1.69371564026904e-05
2.22356025211578e-05
3.06256528854969e-05
3.93926521851027e-05
4.83047641083983e-05
5.72017291322462e-05
6.60363383252935e-05
7.4754997353156e-05
8.33517447507666e-05
9.18033336300542e-05
0.000100098165714064
0.000108214694909017
0.000116133157245607
0.000123830421781101
0.00013128639895459
0.000138484475598798
0.000145417049097143
0.000152081522346721
0.000158492581176982
0.00016462969759471
0.000170331874700891
0.000175582468869973
0.000180368901270932
0.000184684181669983
0.000188525873972662
0.000191895801732267
0.00019479904348996
0.000197243883038145
0.00019924148401483
0.000200805596136225
0.000201952276143445
0.000202699504897362
0.000203066349112777
0.000203072754327766
0.000202738247119505
0.000202082425729395
0.00020112439542375
0.00019988435808044
0.000198384296338802
0.0001966464662283
0.000194693014719962
0.00019254373874008
0.000190216571294505
0.00018772498551524
0.000185079487732696
0.000182286869699219
0.000179353914827526
0.000176289341144737
0.000173101654853134
0.000169798622075587
0.00016638367409533
0.000162855602691487
0.000159206990355132
0.000155427812435139
0.00015150185696652
0.000147407421975282
0.000143113465483521
0.000138573423826152
0.000133718032460489
0.000128454979353786
0.000122642430536065
0.000116116833631251
0.000108635112642214
9.99657711543719e-05
8.95603213258446e-05
8.39036344475701e-05
8.94900967383062e-05
9.72081975260047e-05
0.000107156945084969
0.000116370721140394
0.000125340316525113
0.0001338611054883
0.000142471106038211
0.000148775225591293
0.000152169620394605
0.000151618033309319
0.000147081095254827
0.000137450325590505
0.000125883122071756
0.000114248590702826
0.000103441013739392
9.37792080917869e-05
8.64736409950547e-05
8.19063985310933e-05
7.90830690045078e-05
7.79503836159639e-05
8.09893011647173e-05
8.53959869011666e-05
8.34920812795331e-05
6.71859731409886e-05
4.92040616137549e-05
3.58046385016375e-05
3.36121599236998e-05
0.000265296856817314
0.000234791624523854
0.000136327756749153
5.45274959331744e-05
1.4138657682767e-05
8.45360391542416e-06
6.99206817116772e-06
3.49466305807587e-06
2.18838826284055e-06
1.83041073476151e-06
1.8095885690306e-06
2.07698309678325e-06
2.63315519666319e-06
3.5564988318129e-06
5.04163203024826e-06
7.36513494583661e-06
1.0849235245393e-05
1.58134003919235e-05
2.26251850764747e-05
3.1569220170562e-05
4.26364659120262e-05
5.54763729461238e-05
6.97468310214922e-05
8.44648591979246e-05
9.77952337971502e-05
0.000107639800710128
0.000114050703149431
0.000124116909821825
0.000162457567523261
0.000222913234194523
0.000285875522598568
0.00034961801326896
0.000413015075903325
0.000475757044288796
0.000537484336837436
0.000598177375634392
0.000657690067558272
0.000715960011435877
0.000772853359024525
0.000828249583751524
0.000882004127791076
0.000933993308811649
0.000984116316228431
0.00103233542311826
0.00107864360880405
0.00112316565383803
0.00116486366578111
0.0012035384060171
0.0012390992782767
0.00127148225637495
0.00130065812071171
0.00132662567394491
0.00134940927527415
0.0013690527960347
0.00138561919386241
0.00139918851197691
0.00140985610952923
0.00141773094478795
0.00142293306493866
0.00142558863017435
0.00142582820967538
0.00142377936332465
0.00141956934535706
0.00141332262576746
0.00140517098106125
0.00139525722728018
0.00138372603039448
0.00137072067812728
0.00135636967962138
0.00134078859511579
0.00132406456994885
0.00130626475403131
0.00128743287887969
0.00126761289371692
0.00124686089178776
0.00122523186482926
0.00120277518760782
0.00117951181290487
0.00115543107690201
0.0011304814285079
0.00110459274761817
0.00107765282196788
0.00104951077102949
0.00101995305115008
0.000988657395403805
0.000955147400739344
0.00091878618520089
0.000878589081798144
0.000833422451677304
0.000781543792470542
0.000721273032250143
0.000648625679965771
0.000608771710206087
0.000648140166553044
0.000702529001524339
0.000771742761932064
0.000836481550945678
0.000899464649250674
0.000959626529788357
0.00101980804478832
0.0010645285114838
0.0010891104822698
0.00108659715753374
0.00105620865652457
0.000990747819377043
0.000910685208232733
0.000829094861389827
0.000752535514247768
0.000683653331282147
0.000631014605465325
0.000597535135968841
0.000576642335216228
0.000568004313430006
0.000588482767521435
0.0006186310502182
0.000605381217352157
0.000487547249365497
0.00035817946311562
0.00026164304729681
0.000245952828552797
0.000990062684207272
0.000879541027429236
0.000513751531699576
0.000207593761028859
5.44289136443729e-05
3.20814899979049e-05
2.66175715092991e-05
1.34275704761459e-05
8.38237275220347e-06
6.97753913104997e-06
6.87557400424713e-06
7.86338782157956e-06
9.94055003125342e-06
1.33937786473566e-05
1.89463584664217e-05
2.76283556980077e-05
4.06450737176092e-05
5.91781998147891e-05
8.45717586788445e-05
0.000117855637055312
0.0001589537056928
0.000206483434321969
0.000259097288188342
0.000313202382371429
0.000361232102872745
0.000397062353988423
0.000422351667182198
0.000459774876726374
0.000595284459421065
0.000804314520819248
0.00101742605880533
0.00122909179245994
0.00143590683189396
0.00163747684604507
0.00183304215065912
0.00202296180101973
0.00220709586290391
0.0023855622865848
0.00255821683197486
0.00272494746764064
0.00288554904928587
0.00303986249362037
0.00318777158652735
0.00332934358018801
0.00346468615250569
0.00359167387578378
0.00370954739283122
0.00381860842690001
0.00391874581588181
0.00400991942345365
0.00409216196863857
0.0041655622070732
0.0042302578384627
0.00428642224033555
0.0043342643286148
0.0043740244806963
0.00440597171287392
0.00443040025798349
0.00444762427952869
0.00445796731739389
0.00446175777282336
0.0044593134720587
0.00445094784081079
0.00443696695590986
0.00441769514636277
0.00439348330053992
0.00436468752276067
0.00433165936940137
0.0042947149634012
0.00425413576401175
0.00421013271473361
0.00416286352908529
0.0041124271032408
0.00405892313286217
0.00400248114317331
0.00394322912110129
0.00388127857131029
0.00381666611286656
0.00374933996414244
0.00367913703860746
0.00360583708602597
0.00352909717284281
0.00344845561132737
0.00336327171408408
0.00327257330647534
0.00317493652564234
0.00306843930606095
0.00295007934251531
0.00281633864046518
0.0026615517252418
0.00247992339027609
0.00225589065032789
0.0021280103000282
0.00224715743048832
0.00241768632398839
0.00263350681735454
0.00284196499758473
0.00304852485994707
0.00325030882193903
0.00345384685101591
0.00361475334311121
0.00371504046605136
0.00373222006239191
0.00365970609946396
0.00347395261003717
0.00323099331534197
0.00297249941245676
0.00272192688267282
0.00249073712805419
0.00230928476659589
0.00219029613456624
0.0021146719161725
0.00208148195812106
0.00214636994638873
0.00224400010638821
0.00219899307235086
0.00178050100120762
0.00132301933496717
0.000978842654919175
0.000923298610776386
0.00257380068198294
0.00229932895593476
0.00136475877185428
0.00056308611629844
0.000149954410930381
8.65398458063956e-05
7.20166584292278e-05
3.66970048167918e-05
2.28446620044767e-05
1.89225925690773e-05
1.85845155218902e-05
2.1172553661322e-05
2.66792865016355e-05
3.58417004309937e-05
5.05521704978681e-05
7.34869553747564e-05
0.000107745638065309
0.000156245012678595
0.000222152104754026
0.000307611381165961
0.000411696002577772
0.000530036179527169
0.000658512143605479
0.000788146657601853
0.000901728634576912
0.000986710879711269
0.00104857869846714
0.00113999190367206
0.00144083869835471
0.00188281066044439
0.00231494058700484
0.00273081840129913
0.00312593650940451
0.00350275548157384
0.00386153668357682
0.00420454537007393
0.00453258572151621
0.00484679628505392
0.00514763326384113
0.00543551827875196
0.00571060905574828
0.00597306260843442
0.00622301651268426
0.00646092550037233
0.00668443332837045
0.00689191740418909
0.0070845589010062
0.00726248307966467
0.00742571433615665
0.00757436446077227
0.0077086292133135
0.00782876668964845
0.00793508686390631
0.00802793562085153
0.00810769582400683
0.00817478259101127
0.00822964119756676
0.00827274282894014
0.00830457810471682
0.00832564407145713
0.0083364371198931
0.0083374346223063
0.00832910231746935
0.00831189335245454
0.00828628405250668
0.00825278462993836
0.00821191110707787
0.00816416915471445
0.00811001411586785
0.00804984700324051
0.00798396831328434
0.00791259701940409
0.00783586642345107
0.00775390757802123
0.00766688958845382
0.00757497925481126
0.00747831524839017
0.00737692517674445
0.00727069824105361
0.00715935382332257
0.00704251500594236
0.00691960573459692
0.00678985007009951
0.00665219508875731
0.00650503225414339
0.00634603289654408
0.00617202741168609
0.00597802087752019
0.00575805028725859
0.00550211163780008
0.00519940927077464
0.00481628425859098
0.00458435604945738
0.00477614069713911
0.00508076928831845
0.00547238179851745
0.00587244134753479
0.00628255849494359
0.00670266511118429
0.00713609757496212
0.00751091813820493
0.00778825057377537
0.00792500157146902
0.00789891966072801
0.00766113958708319
0.00729116977326772
0.00686011059967124
0.00641330395011617
0.00597745182183893
0.0056196671772215
0.00537719431018242
0.0052202302095984
0.00514880020258747
0.00528414723330456
0.00548412375041939
0.00537967955532804
0.00440130883937696
0.00333914368266293
0.00253905944910709
0.0024187909481948
0.00523350765963325
0.00471730293333998
0.00289187127031555
0.00124210368454043
0.000340629691977767
0.000190600038209435
0.000158964317844156
8.19104984180015e-05
5.08677824342242e-05
4.19215403413238e-05
4.10318768326513e-05
4.65417777886909e-05
5.84191666838036e-05
7.81716291946227e-05
0.000109751386030553
0.000158615379102056
0.00023082820991735
0.000331485296727725
0.000465390960628937
0.000634286162041098
0.000833045049652512
0.00105026988146859
0.00127668875623764
0.00149700405678696
0.00168660881753444
0.00183037187618254
0.00194315559865516
0.00211291285865944
0.00259717567703625
0.00326601928595623
0.0038981641517261
0.00449365387871055
0.00504893924346119
0.00557175231349326
0.00606409436594273
0.00653063277535884
0.00697334340124006
0.00739451059267424
0.00779529135663276
0.00817671083355677
0.00853936046850227
0.00888375748708309
0.00921027904850158
0.00951835069016913
0.00980466907696037
0.0100709220329703
0.0103177168033956
0.0105452416685019
0.0107536784421945
0.0109433001496667
0.0111144640649166
0.0112675889138481
0.0114031419976985
0.0115216229856489
0.0116235652451771
0.0117095311363762
0.0117801105427237
0.0118359162634865
0.0118775770721927
0.0119057243146605
0.0119209830287713
0.0119239537635991
0.0119152191213012
0.01189534491792
0.0118649192370625
0.0118245641020138
0.0117749056389118
0.0117165530045889
0.0116500565331272
0.011575898496753
0.011494445220731
0.0114059635070799
0.0113106196596623
0.0112085715162852
0.0111000145862377
0.0109851412297737
0.0108641071234257
0.0107369388882054
0.0106034954957892
0.0104634352183605
0.0103162979287632
0.0101613795663831
0.00999772934818906
0.00982408476248693
0.00963849467359685
0.00943817233957113
0.00921931839740965
0.00897592447566775
0.00870080478802867
0.00838160621289265
0.00800489376036263
0.00752467903316324
0.0072188151746916
0.00743614922948078
0.00783702462946735
0.0083661852709637
0.00893215910246043
0.00953363471246332
0.0101703019083555
0.0108388124743208
0.0114530126182664
0.0119569889657712
0.0122942841487121
0.0124284756608788
0.0122940851140151
0.0119714229866549
0.0115435958252342
0.0110657755982307
0.0105719935422925
0.0101565316252927
0.00988291664711196
0.00971716402746086
0.00965724540902434
0.00989716909864034
0.0102117090131059
0.0100412098458788
0.00834227904155838
0.00648453137364126
0.00511341486594534
0.00495190688548171
0.00876401793788299
0.00799983881108424
0.00515361743270709
0.00235811474132764
0.000685207374472194
0.000367312649854851
0.000306395805709255
0.000159902856843577
9.91163158393061e-05
8.12570235159464e-05
7.92391827827174e-05
8.94069121640502e-05
0.00011165118819305
0.000148530207949471
0.000206956856342761
0.000295995119001213
0.000424786623615954
0.000599100527901707
0.000822362156779049
0.00109129063412613
0.00139181185287499
0.00170388906973414
0.00201530227045381
0.00230928609225978
0.00256172648517031
0.00276283711989225
0.00294114938149867
0.00321286294671166
0.00386746846714306
0.00471697897248763
0.00550581872510989
0.00624026469560961
0.00691841060692122
0.00755274361448608
0.0081467761957029
0.00870708142991493
0.00923657868713435
0.00973842737454385
0.0102143475600208
0.0106658377689368
0.0110938451119907
0.0114991801645582
0.0118824124163575
0.0122399374592556
0.0125729091008872
0.0128823659398842
0.0131687817000577
0.0134324408018993
0.0136736532407077
0.013892820443866
0.01409042693035
0.0142670175406937
0.0144231827978478
0.0145595429789848
0.0146767490042156
0.0147754780439151
0.0148564322520938
0.014920334125011
0.0149679193352496
0.014999923592342
0.0150170726514027
0.0150200649021899
0.0150095763158417
0.0149862628680793
0.0149507998101117
0.014903894385741
0.0148462562719708
0.014778572692409
0.014701467036289
0.0146154853912553
0.0145210492915899
0.0144184687079897
0.0143079437244475
0.0141896583701496
0.0140638313596786
0.0139306779758848
0.0137903712501687
0.0136429465881332
0.0134882542883943
0.0133259267450278
0.0131554674550465
0.0129761089883856
0.012786811693348
0.0125862253553971
0.0123722332474217
0.0121418553012572
0.0118910331435348
0.0116133465510638
0.0113011533938832
0.0109411471754136
0.010519005485932
0.00998381909866732
0.00962925529654707
0.00984372482437648
0.0103070630435452
0.010932901999526
0.0116279259186386
0.0123832376338275
0.0131973494251535
0.0140600944230358
0.0148791769537996
0.0155872186588402
0.0161214037312748
0.0164376856442075
0.0164670727803736
0.0162856217938569
0.0159815761245465
0.0156147989730347
0.0152228383079172
0.0149113621493483
0.0147585748430749
0.0147256682428666
0.0147933326464422
0.0151989350818907
0.01565173925508
0.0154705557396626
0.0131079965082222
0.0104087164973766
0.00847541982634678
0.00833180737418757
0.0126132945712671
0.0116732251289215
0.00798071933902172
0.00395924556585165
0.00125699701449515
0.000643819314119808
0.0005349928845275
0.000283433258791471
0.000175503852964446
0.000143095393852589
0.000138955015760056
0.000155731656669178
0.000193092498871129
0.000254599084160712
0.000350495813944426
0.000493064283700968
0.000692570252926466
0.000951508649337547
0.00126733071181641
0.00162818526656672
0.00201147054077571
0.00239380753053887
0.00276563472470718
0.0031136338661885
0.00341907190469703
0.00368056833283811
0.00394045434201438
0.00433279465156664
0.00514049728364688
0.00612975277168002
0.00704052552326238
0.00788228197234485
0.00865611110761552
0.00937772410594617
0.0100518967082585
0.0106864186363447
0.0112848821695267
0.0118510045110702
0.0123869000640032
0.012894383716076
0.0133746539093978
0.0138287284556854
0.0142556670137232
0.0146534180045936
0.0150239234839157
0.0153679853260596
0.0156860678220257
0.015978540685897
0.0162458135178954
0.0164883874362051
0.0167068468631328
0.0169018368229666
0.0170740467319197
0.0172241945118698
0.0173530266385956
0.0174613140545834
0.0175498508131787
0.0176194495365602
0.0176709341340613
0.0177051270829432
0.0177228387759275
0.0177248507458094
0.0177119187974247
0.0176847757820199
0.0176441699720155
0.0175908792656505
0.0175256827063707
0.0174493325235359
0.017362513819135
0.0172658279677971
0.0171597461563359
0.0170446190834984
0.0169206801623423
0.0167881384631195
0.0166472340779901
0.0164982038120858
0.0163412387190029
0.0161763880876756
0.0160035045872765
0.0158222114377065
0.0156319990599787
0.0154320679049381
0.0152213308844791
0.0149984087860234
0.0147611033551922
0.0145063649831933
0.0142300480854714
0.013925600189623
0.0135852663338238
0.0131954639722904
0.0127417662747303
0.0121731772325306
0.0117848375532814
0.0119840446886804
0.0124878190987087
0.0131844731760722
0.0139794663597972
0.0148561529368997
0.0158107986066138
0.0168269645130506
0.0178095297019073
0.0186830662473234
0.0193815842175114
0.0198573223147862
0.0200442973722169
0.0200148559353181
0.0198606790359246
0.0196460082441102
0.0194136149479958
0.019274979728963
0.0193174984887312
0.0195012723818328
0.01978446861209
0.0204093517207918
0.0210416258384526
0.0209448383722796
0.0181469120607135
0.0146558066733294
0.01216652209816
0.012034967292131
0.0162947862028686
0.0152644644331983
0.0110772610388398
0.00598301097690963
0.00213260468771301
0.0010506543224575
0.000863966333802317
0.000466111305310674
0.000288685042693433
0.000234028020679463
0.000226053776885057
0.000251164277434515
0.000308303642148719
0.000401306296273943
0.000543027325955885
0.000746985082395553
0.00102115045252769
0.00136099201549238
0.0017561640496377
0.00218773837355362
0.0026298546379211
0.00306172109896336
0.00347888379141943
0.00387264364158417
0.00423055609799407
0.00455968143071114
0.00491396710345763
0.00543473355615214
0.00637583362660961
0.00747407246663312
0.00848217188062124
0.0094099092080161
0.0102620719224311
0.0110558624181808
0.0117970581491323
0.0124940542146884
0.013150901980615
0.0137716333161715
0.0143586331098891
0.0149139196444868
0.0154388677542562
0.0159346119919472
0.0163983145236561
0.0168308305866164
0.0172336038828149
0.0176073504647043
0.017952563159022
0.018269685557627
0.018559209004269
0.0188217166686696
0.0190578764416787
0.0192684181501685
0.019454115822709
0.0196157715229653
0.0197542143974228
0.0198702968125599
0.0199648927936337
0.0200388936453839
0.0200932006502326
0.0201287128166242
0.0201463158632819
0.0201468658555453
0.0201311904789686
0.0201000914023882
0.0200543813763041
0.0199949003532823
0.0199224884727605
0.0198379555294068
0.0197420418556097
0.0196353994904914
0.019518546148296
0.0193918719751497
0.0192556431623381
0.0191100928843129
0.0189554815044152
0.0187920665529336
0.0186200578070408
0.0184395215871971
0.0182503195583093
0.0180520750060004
0.0178442790351883
0.0176261176877279
0.0173964794981261
0.0171539896992669
0.0168964143813377
0.0166207012987404
0.0163227089789644
0.0159958986799597
0.0156327260833102
0.0152197349819787
0.0147422669888695
0.014151737856549
0.0137383992062277
0.0139179971757906
0.0144483024950303
0.0151985012907239
0.0160726596530018
0.0170468729499086
0.0181143606530909
0.0192529577840431
0.0203660483252402
0.0213722218437219
0.0222036861558625
0.0228109554521816
0.0231333929437162
0.0232403912084216
0.0232257604633758
0.0231574438011056
0.0230842429462152
0.0231215729061727
0.023364003467516
0.0237754769736606
0.0242987717516531
0.0251585207945743
0.0259962312627351
0.0260558777818461
0.023095639739398
0.018952064212356
0.0158463154183646
0.0156076350783336
0.0195768502804085
0.018519624945657
0.0141873982216746
0.0082858659839632
0.00336356395533749
0.00161442725046607
0.00130562636547738
0.000720089540194813
0.000446910677599487
0.000360120414636471
0.000345476252125408
0.000379655802711044
0.000459792900896115
0.000588450458617709
0.000779394982475261
0.00104484632316484
0.00138783193185775
0.00179584256279701
0.00225238616508289
0.00273526511786485
0.00321992397710445
0.00369060147932998
0.00414758635900685
0.00458636743110547
0.00500038366986173
0.00540418367037137
0.00585988281716897
0.00650695197901231
0.00756139282767439
0.0087473541493953
0.00983636373255922
0.0108365891241951
0.011756357623428
0.012613050493514
0.0134132447436093
0.0141655257501112
0.0148742713155621
0.0155436769151971
0.016176323655249
0.0167743658474484
0.0173393098843604
0.017871615104972
0.0183687264584474
0.0188325558916264
0.0192643074305452
0.0196646769200528
0.0200341990562234
0.0203733835869889
0.0206827927297516
0.0209630809807813
0.0212149897729701
0.0214393244887328
0.0216369351937071
0.0218086999132086
0.0219555226363471
0.022078329585413
0.0221780674247603
0.0222556990794883
0.0223121964953826
0.0223485288795892
0.0223656515256371
0.022364489673089
0.0223459379351725
0.0223108616301139
0.0222601324892855
0.0221946470506208
0.0221153013522898
0.0220229581480088
0.0219184090008277
0.0218023539495177
0.0216753554336133
0.0215378424747297
0.0213901137269406
0.0212324259179439
0.0210650591137663
0.0208882912478784
0.0207023516539387
0.0205073260949789
0.0203030899650296
0.0200892726424331
0.0198653756521296
0.0196305824811691
0.0193837721709099
0.0191235972956886
0.0188478172208416
0.0185534196902688
0.0182363234421988
0.0178903295478683
0.0175079499464663
0.0170758397206487
0.016579699999008
0.0159743793189908
0.0155419322278484
0.0157007323976093
0.0162481700239905
0.0170397483442919
0.01797797148388
0.0190322827929574
0.0201923152367277
0.0214306245817607
0.022649647784424
0.0237633802688905
0.0247029448880156
0.0254183006802156
0.0258548234497231
0.0260794672805475
0.0261869635505839
0.0262478493284129
0.0263165349661877
0.0265110893380468
0.0269317217439638
0.0275485312309724
0.0282977062374413
0.0293773834391916
0.030419093623587
0.0306592610126598
0.0277423861947452
0.0231727233482561
0.0194023422314049
0.0188670696564486
0.0224538194728309
0.0213801799706726
0.0171629321153732
0.0107136420497326
0.00494796013538782
0.00235716808374764
0.00185938636626255
0.00105249768834356
0.000656148955977665
0.000525450851481927
0.000499793726377693
0.000541946872713351
0.0006456029636952
0.00081014379108394
0.0010484642536042
0.00136976549406563
0.00177123095581479
0.00223350633492409
0.00273652600679741
0.00325789304312079
0.00377658314323585
0.0042819951131267
0.00477812428673616
0.00526402854455347
0.00573832025857564
0.00622161018543529
0.00678033642983842
0.00754587061791113
0.0086964642504949
0.00995637484437866
0.0111155194444682
0.0121797752069009
0.0131603786472733
0.0140741132399108
0.0149281985997843
0.0157311630815132
0.0164876294962737
0.0172018696850609
0.0178766168120871
0.0185141229092616
0.0191160657090548
0.0196817022444074
0.0202099156591196
0.0207027528533031
0.0211613004323136
0.0215862647641722
0.0219782276359409
0.022337759911653
0.022665487753151
0.0229621301488953
0.0232284957884761
0.0234654598036035
0.0236739429242643
0.0238548939708822
0.0240092868191275
0.0241381167125317
0.0242423982537458
0.0243231614438712
0.0243814445662004
0.0244182829399855
0.0244346977335142
0.0244316799090416
0.0244101878358444
0.0243711470757211
0.0243154846779046
0.0242441501431838
0.0241580920232802
0.0240582230560542
0.0239453834738958
0.0238203197806554
0.0236836381416331
0.0235358063479053
0.0233771554733933
0.0232079655854614
0.0230285362739756
0.0228391659082899
0.0226401043372753
0.022431458859573
0.0222131223855278
0.0219847347314472
0.0217458156381059
0.0214955548859265
0.0212328325089929
0.0209563463151697
0.020663868814452
0.0203524574304439
0.0200183338765886
0.0196554836620299
0.0192563492031888
0.0188080722855513
0.018296916765743
0.017681696461816
0.0172344551355203
0.0173726007738938
0.0179304828006688
0.0187544236023114
0.0197453458681314
0.0208666254019311
0.0221039565137761
0.0234249702746503
0.0247313749041101
0.025933589298826
0.0269621350256979
0.0277672328290364
0.0283003194079563
0.0286262707485229
0.028839754238313
0.0290128140912371
0.0292046048850257
0.0295347821514364
0.030107819474487
0.03090026083198
0.031847911231474
0.0331200606708598
0.0343471942000813
0.0347592365593746
0.0319916234408179
0.0272284198629845
0.0228473973182819
0.0218358755425586
0.025020091659676
0.0238919856625155
0.0199447889640053
0.0131482889128895
0.00682723991540226
0.00329361526217317
0.00250998071739513
0.00146190412645811
0.000917938099833781
0.000730577582670987
0.000688011479315037
0.000734899973059474
0.000859695210471344
0.00105707482579508
0.001337845711087
0.00170739794225057
0.0021570977976234
0.00266235169845687
0.00320163754519864
0.00375419012491253
0.00430317413839844
0.00484248123740933
0.00537893424834396
0.00591462589179255
0.00645251876719746
0.00701762986106382
0.00767727115082189
0.00855145466713646
0.00978505787974531
0.0111101697133246
0.0123323005515821
0.0134552104849718
0.0144922397494155
0.0154592015176193
0.0163638166083367
0.0172144216083844
0.018015827980522
0.018772335161438
0.0194868000134841
0.0201615451900136
0.0207984152088245
0.0213953247528775
0.0219530301174855
0.0224732905214243
0.0229571393335669
0.0234053093850436
0.0238184318240105
0.0241971353212844
0.0245421054015652
0.024854121038003
0.0251340540863283
0.0253828457196021
0.0256014839275114
0.0257909850333219
0.0259523896413701
0.0260867589093946
0.0261951723460582
0.0262787240880776
0.0263385159490671
0.0263756467077542
0.0263912010219523
0.026386233366768
0.0263617638731852
0.0263187761280004
0.0262582500529863
0.0261811856966384
0.0260885819299442
0.0259813995467175
0.0258605258096561
0.0257267528852937
0.0255807301977822
0.0254229645323112
0.025253819587362
0.0250735988247771
0.0248826214676082
0.024681206621792
0.0244696257130003
0.0242480095151335
0.0240162717089394
0.0237740658351958
0.0235209366374499
0.0232560872568786
0.0229784063918951
0.0226866524434553
0.0223786246685795
0.0220516039142331
0.0217021167279205
0.0213240104645723
0.0209100117486068
0.0204478263541994
0.0199244231170916
0.0193027221565218
0.0188441473135497
0.018962369684599
0.0195257634572267
0.0203750962900434
0.0214098365913333
0.0225878260221817
0.023890599466373
0.0252811459109485
0.0266605162167867
0.0279363482168878
0.0290389629862899
0.0299194864294795
0.030535233482445
0.030949254214706
0.0312553844389332
0.0315262644262198
0.0318248898653115
0.0322716526688254
0.0329741612434354
0.0339148385817609
0.0350327332002171
0.0364685332680569
0.0378567443334339
0.0384188217041018
0.0358356775352094
0.0310452077802713
0.0262050282128592
0.0246130718343798
0.0273865517456257
0.0261389715949539
0.0225250880883199
0.0155180223636176
0.00890838786058499
0.00443322086022786
0.00323429719535696
0.00193751771125271
0.00122822203798863
0.000971897464764834
0.000905590299413564
0.000952466035225172
0.00109421066609257
0.00131998136258758
0.00163769308986298
0.0020484307302093
0.00253797908396654
0.00307802498945566
0.0036471183745381
0.00422704741358309
0.00480506480879661
0.005378782762692
0.00595723207378588
0.00654506581742448
0.00714871794546971
0.00779596436973231
0.00855236314729452
0.00952558344912889
0.0108327257615258
0.0122174110079141
0.0134977184058342
0.0146758179612669
0.015766345218477
0.0167840195916315
0.0177369245063464
0.0186331393372431
0.0194776191213285
0.0202746645804713
0.0210272364536754
0.0217377041738686
0.0224077423226587
0.0230349126542914