/*--------------------------------*- C++ -*----------------------------------*\
  =========                 |
  \\      /  F ield         | OpenFOAM: The Open Source CFD Toolbox
   \\    /   O peration     | Website:  https://openfoam.org
    \\  /    A nd           | Version:  7
     \\/     M anipulation  |
\*---------------------------------------------------------------------------*/
FoamFile
{
    version     2.0;
    format      ascii;
    class       volScalarField;
    location    "20000";
    object      k_conv;
}
// * * * * * * * * * * * * * * * * * * * * * * * * * * * * * * * * * * * * * //

dimensions      [0 2 -3 0 0 0 0];

internalField   nonuniform List<scalar> 
15600
(
-2.28558698190322e-06
-5.47733492439182e-08
-1.63536620558164e-07
-1.45024074237115e-08
4.30023712703818e-09
-4.47493526056292e-08
-2.49791322297724e-08
-8.16731983826326e-09
-2.2635247605181e-09
-1.59852663783821e-09
-3.6540410322583e-10
-1.12740874455928e-10
-1.92097080062319e-10
-3.41941122889817e-10
-6.35150599358976e-10
-1.1582821036787e-09
-1.98092672406492e-09
-3.16922828046311e-09
-4.68082601173583e-09
-6.23540515851997e-09
-7.43482406151732e-09
-8.22204566672735e-09
-8.24219892650182e-09
-4.29435604073918e-08
-1.07120700643235e-07
-1.46878854836805e-07
-1.26305112804044e-07
-2.16446724183207e-08
-5.3072711821253e-08
-7.21531874236679e-08
-8.77984487679148e-08
-9.9840944244845e-08
-1.09423401441639e-07
-1.16627273887474e-07
-1.22307248406797e-07
-1.26426807456188e-07
-1.29312664922881e-07
-1.30929171062262e-07
-1.31391565601364e-07
-1.30714875366157e-07
-1.29013501565393e-07
-1.26409198243623e-07
-1.23122922167796e-07
-1.193079198569e-07
-1.15335870392278e-07
-1.10808378084272e-07
-1.60987450250429e-07
-3.99339655196574e-07
-6.37832808380085e-07
-8.72962699860254e-07
-1.10168049752524e-06
-1.32126668843277e-06
-1.52953732095121e-06
-1.72454146869025e-06
-1.90471855770585e-06
-2.06881283548572e-06
-2.21593276933725e-06
-2.34550616872542e-06
-2.45737658084204e-06
-2.5516004963212e-06
-2.62866026014994e-06
-2.68897971712793e-06
-2.73328279417547e-06
-2.76203013409389e-06
-2.77574125843477e-06
-2.77542734313859e-06
-2.76218350252851e-06
-2.73754561260231e-06
-2.70274660190268e-06
-2.65932349885181e-06
-2.60820502760301e-06
-2.55040154034294e-06
-2.48618204627426e-06
-2.41575991787493e-06
-2.33979294576898e-06
-2.25889027012971e-06
-2.1740249209157e-06
-2.08572381504845e-06
-1.99446493155479e-06
-1.89993019816468e-06
-1.80195173498721e-06
-1.69989197960085e-06
-1.59319985223375e-06
-1.48042376673805e-06
-1.36005487487591e-06
-1.22873737994583e-06
-1.08221002735393e-06
-9.15405378792054e-07
-7.18622456516807e-07
-4.95874774244538e-07
-2.48072474501589e-07
1.71357127672851e-08
-1.71726835699116e-08
-2.84053935415643e-07
-5.56215099674404e-07
-1.35696724144408e-06
-2.07320993040961e-06
-3.09095082403653e-06
-4.22315328906074e-06
-5.80914167221579e-06
-7.05994876101258e-06
-8.04671128015981e-06
-8.23471201395077e-06
-7.67981154072427e-06
-5.69824991708851e-06
-4.12280456661463e-06
-3.02120258053385e-06
-2.37018769618017e-06
-2.05771073503479e-06
-2.73293604256425e-06
-4.18006473794734e-06
-5.29941262550841e-06
-6.39028300602297e-06
-1.03129360079656e-05
-1.14687817520592e-05
-2.3693060842922e-06
-7.41995339545484e-07
-6.35376730840163e-07
-2.9532044743379e-07
-2.58622840292311e-08
-4.72855585591294e-05
-4.8483677278464e-06
-1.11994308077513e-05
-1.57211465854842e-06
5.07438834481573e-07
-8.89532951230868e-07
-5.27924286397377e-07
-1.61840862218478e-07
-5.28201710389395e-08
-3.50869324805875e-08
-1.26929352616874e-08
-1.07126749046524e-08
-1.72975354064688e-08
-3.00922081324295e-08
-5.41743699447459e-08
-9.73052681730751e-08
-1.65832027820641e-07
-2.66000653567889e-07
-3.95828705910259e-07
-5.37592681438215e-07
-6.65121396042947e-07
-7.6427815506212e-07
-8.03769978778047e-07
-1.0205668386892e-06
-2.20495330375173e-06
-2.76680094077244e-06
-7.53278014191306e-07
-1.80354326072777e-06
-4.05262077063045e-06
-5.49223123202006e-06
-6.67586781291362e-06
-7.61721544896541e-06
-8.39243023798272e-06
-9.0020432762869e-06
-9.50060961482494e-06
-9.88459647733187e-06
-1.01770215056309e-05
-1.03762618229224e-05
-1.04918388342667e-05
-1.05262694693155e-05
-1.04890324505697e-05
-1.03907463934518e-05
-1.02501172811219e-05
-1.00797641561237e-05
-9.91112545081167e-06
-9.6906350065245e-06
-1.46010317355455e-05
-1.94951334220532e-05
-2.43252048843191e-05
-2.90299455281227e-05
-3.35560590205168e-05
-3.78574011685614e-05
-4.18968199001693e-05
-4.56422757702456e-05
-4.90687180974127e-05
-5.21568675872961e-05
-5.48940538389736e-05
-5.72734898256624e-05
-5.92951327657452e-05
-6.09631272258463e-05
-6.22874682344659e-05
-6.32780180387379e-05
-6.39483149819064e-05
-6.43089348285892e-05
-6.43726289997495e-05
-6.41600057191293e-05
-6.36939086917268e-05
-6.30028057735033e-05
-6.21110265501051e-05
-6.10451771656413e-05
-5.98224869530962e-05
-5.84591511793775e-05
-5.69604274010358e-05
-5.53319370493259e-05
-5.35864884893808e-05
-5.17367442167407e-05
-4.97995028052388e-05
-4.77835773839707e-05
-4.56943390724676e-05
-4.35242876688828e-05
-4.12658570993807e-05
-3.89036116956037e-05
-3.64202174739891e-05
-3.37796435849285e-05
-3.09387287331657e-05
-2.78157687485374e-05
-2.43055397925388e-05
-2.02674787539807e-05
-1.55038963088674e-05
-9.9779283946442e-06
-3.70212346888963e-06
1.25684220159569e-06
-9.94018183097804e-07
-8.41828108553823e-06
-1.69911395456334e-05
-3.43174158641624e-05
-5.10986424019355e-05
-7.30764491066817e-05
-9.85626418481493e-05
-0.00013243084664448
-0.000159364590817942
-0.000180136239315897
-0.000185832131262565
-0.000175403057665974
-0.000138037285047068
-0.000105007886280027
-8.08279743561929e-05
-6.53730053722925e-05
-5.78429452862949e-05
-6.97802484158535e-05
-9.93657528601214e-05
-0.000124910495434153
-0.000154091182013067
-0.000231411880677412
-0.000269647352971405
-8.60290765813439e-05
-4.54467751364856e-05
-4.04156980847802e-05
-1.86089085718918e-05
-2.00865434201814e-06
-0.000254973284036545
-4.71044273626467e-05
-8.42260048244758e-05
-1.24836807768148e-05
8.11532271977312e-06
-4.8784805894638e-06
-2.96417734705539e-06
-8.73677958642574e-07
-3.30629920222614e-07
-2.25215694914947e-07
-1.12347021769705e-07
-1.23479866462867e-07
-1.89718745946222e-07
-3.17611464894784e-07
-5.54334315541514e-07
-9.82294367665404e-07
-1.67733230679573e-06
-2.71176588997427e-06
-4.08862291479464e-06
-5.68406744210441e-06
-7.27404853724476e-06
-8.64311724139075e-06
-9.44913263895263e-06
-9.1449793034671e-06
-1.2976567910276e-05
-1.34829960823983e-05
-6.72210597572558e-06
-1.62599721814395e-05
-3.50894196058094e-05
-4.74116486013363e-05
-5.85320579041573e-05
-6.74575623982343e-05
-7.52723398844273e-05
-8.16361059099384e-05
-8.71035116597495e-05
-9.15640070760337e-05
-9.52701856718241e-05
-9.82029437396645e-05
-0.00010047803315185
-0.000102126898060788
-0.000103248341107259
-0.000103947181640492
-0.000104414978817522
-0.000104762603248044
-0.000105334089189443
-0.000123726821351305
-0.000145462443906454
-0.000166490731214108
-0.000186743684523613
-0.00020605085354455
-0.000224270403125825
-0.000241287657210518
-0.000257014668267056
-0.000271380591955333
-0.000284335734295577
-0.000295847072830889
-0.000305901292677538
-0.000314501348131544
-0.000321667206242166
-0.000327429906107514
-0.000331831440501955
-0.000334912551465375
-0.000336721143332971
-0.000337300406350751
-0.000336704885850834
-0.000335013308311839
-0.000332312265552601
-0.000328700533382644
-0.000324263620608495
-0.000319084216227584
-0.000313213946790058
-0.000306694873906474
-0.000299538523541696
-0.000291766155343366
-0.000283424168183379
-0.000274559005144312
-0.000265223888814776
-0.000255437774950614
-0.000245197537889487
-0.000234452763811422
-0.000223140172485933
-0.000211163003895662
-0.000198400815601895
-0.000184630390618702
-0.00016956854245427
-0.000152727524277227
-0.000133452772846588
-0.000110836921540425
-8.36948875618875e-05
-5.11919944482664e-05
-1.27574173648896e-05
1.21008284677882e-05
-5.19470236213976e-06
-5.96664161629615e-05
-0.000115694517355589
-0.000209118712756378
-0.000302296043153517
-0.000419837645410485
-0.000565866875068485
-0.000744537870534917
-0.00089618461573103
-0.00101831128134182
-0.00107147604425971
-0.00104017858659491
-0.000874105975106477
-0.00070714796018793
-0.000575381482156343
-0.000484488811481517
-0.000438916094212877
-0.00049808710119373
-0.000664822320808729
-0.000821371978336103
-0.00101056477890888
-0.00142001016721584
-0.00167421924992911
-0.000699067954214739
-0.000322659061121745
-0.000248644363866018
-0.000100505337529498
1.54996772602808e-06
-0.000683991125978545
-0.000193927530623795
-0.000290011044999561
-5.92607367447739e-05
5.23831949814523e-05
-1.4438976264259e-05
-9.31515403411748e-06
-2.65476186241551e-06
-1.15243805393863e-06
-8.24888019545948e-07
-5.00298245276385e-07
-6.16704430334022e-07
-9.21667851334923e-07
-1.49711967706988e-06
-2.55786881515646e-06
-4.48315557292679e-06
-7.65313257199322e-06
-1.24115309876204e-05
-1.88406083593529e-05
-2.65223354838502e-05
-3.44832285619077e-05
-4.15985858702138e-05
-4.63621297815508e-05
-4.66270258513747e-05
-3.99277817215255e-05
-3.0688298283405e-05
-2.83247006083117e-05
-6.16610088532588e-05
-0.000126947596528268
-0.000163834955821973
-0.000202224632753086
-0.000231380104936052
-0.000258164553837721
-0.000279720620383169
-0.00029877744239672
-0.000314584002816935
-0.000328365144360899
-0.000340023128560705
-0.000350108142418835
-0.00035873832864865
-0.000366275253949454
-0.00037304343142772
-0.00037974144087645
-0.000386598359919628
-0.000420428274370176
-0.000461467229317632
-0.000493152347051146
-0.000522714789013127
-0.000550088542788525
-0.000575243916417627
-0.000598166619153839
-0.000618861903908857
-0.000637346403445618
-0.000653647260740137
-0.00066780370241982
-0.000679863246748417
-0.000689885692007413
-0.000697937222140008
-0.000704087823092453
-0.000708408149838692
-0.000710961596747326
-0.000711805111648837
-0.000710996250635203
-0.000708600475621279
-0.000704702890495804
-0.00069940826103708
-0.000692823982166346
-0.000685054876294388
-0.000676184820489436
-0.000666271587031155
-0.000655334662929964
-0.000643375009932038
-0.000630376711488506
-0.000616356383308981
-0.000601360841940002
-0.000585431561753687
-0.000568598680437439
-0.000550830058180144
-0.000532046130675902
-0.000512101590662729
-0.000490801133101753
-0.000467888516543536
-0.000443035859323269
-0.000415668525620431
-0.000385046849153509
-0.000349958436464748
-0.000308708045958492
-0.000258853482641783
-0.000197139562762821
-0.0001198266726453
-2.26186909993991e-05
4.29818437951221e-05
4.01059106439642e-07
-0.000170198633806848
-0.000315232325796878
-0.000527432127953114
-0.000740364058082063
-0.00102635861716079
-0.00135503609568447
-0.00176513731982804
-0.00214372639130896
-0.00248180556173011
-0.00270591151510555
-0.00275889615552305
-0.00252077911982105
-0.00221351238646939
-0.00193554501085582
-0.00172323053472819
-0.00161840518116609
-0.00178819402376655
-0.00229039671151813
-0.00280473002071217
-0.00343641426938203
-0.00457832844651214
-0.00539767828001381
-0.00279218277859076
-0.00106180135625516
-0.000492875305548569
-8.23264249685261e-05
0.000154285743541077
-0.00102509224112919
-0.000508829500235417
-0.000669261410222507
-0.000243334921091593
0.000212333305481827
-2.79867164568026e-05
-2.11470544852949e-05
-5.81469085056009e-06
-2.89599301876533e-06
-2.19843265366794e-06
-1.51622672780038e-06
-2.01841777828674e-06
-2.97562344930873e-06
-4.74040143135775e-06
-7.97845919319712e-06
-1.381934752604e-05
-2.3393611568732e-05
-3.7604249160152e-05
-5.65779147222684e-05
-7.89422536958058e-05
-0.00010150319400802
-0.000120857074210177
-0.000133176397147809
-0.000132821459454006
-0.000112678143998887
-8.37970021383039e-05
-5.83395580326578e-05
-0.000126314639791107
-0.000241980972340923
-0.000294703976589133
-0.00037230631807449
-0.000426686306176903
-0.000480489835077529
-0.000522819201655599
-0.000561215548184471
-0.000593151797644697
-0.000621680940431163
-0.000646397373638396
-0.000668527306375296
-0.0006882094228381
-0.000706072587037143
-0.000722558516357383
-0.000739131090377319
-0.000776211291724458
-0.000829073409252562
-0.000854009734047655
-0.000876467787045746
-0.00089605549297622
-0.000912939563197631
-0.000927295290648198
-0.000939281155210247
-0.00094904698932675
-0.000956726710486616
-0.000962450852851037
-0.000966344033940824
-0.00096852681301394
-0.000969116569694877
-0.000968222341107728
-0.000965939318661375
-0.000962347918743313
-0.000957503692171684
-0.000951450772644867
-0.000944228927520423
-0.000935901278165019
-0.000926553102857471
-0.000916274678259964
-0.000905146504092304
-0.000893228442585705
-0.0008805529692083
-0.000867108946064798
-0.000852851294737694
-0.00083771624276952
-0.000821651957542325
-0.000804656376880108
-0.000786752469071871
-0.000767948619174133
-0.000748220002282036
-0.00072746661831191
-0.000705529817388748
-0.000682192213421527
-0.000657154413751628
-0.000630049075441401
-0.000600409859696485
-0.0005674261262841
-0.000530065500311205
-0.000486652452924927
-0.000434822866926251
-0.000370992011606904
-0.000290431107104064
-0.000186139885639233
-4.95206909648548e-05
7.5609843790254e-05
3.47814168288303e-05
-0.000255594137810901
-0.000464112128558627
-0.000742495341207863
-0.00106171247578053
-0.00141108545617259
-0.00183572117629503
-0.00236330931970667
-0.00288176382158676
-0.00338572030235461
-0.00380892160615605
-0.00407085619032117
-0.00402413596047169
-0.00383902402359403
-0.00362996366840481
-0.00346043887111047
-0.00343080810793458
-0.00381883315210948
-0.00483440892134003
-0.00597542353836279
-0.00738835407144909
-0.0094872330406386
-0.011228893016585
-0.00701111489636045
-0.00255478728382713
-7.28306399493606e-05
0.00084823449762346
0.00100674328835732
-0.000509387248119947
-0.000939323507859435
-0.00102549992580062
-0.000724639338763904
0.000651686649635147
-3.2678516486473e-05
-3.80515139757884e-05
-1.00145476265555e-05
-5.83194459967216e-06
-4.74838004355396e-06
-3.59392710458754e-06
-5.11754110359657e-06
-7.49337543558924e-06
-1.17684956551637e-05
-1.94908168457453e-05
-3.30964319092435e-05
-5.47054535696753e-05
-8.54024580297276e-05
-0.000124159216015523
-0.000166523137753873
-0.000204929581241393
-0.000233685648705489
-0.000248130236851823
-0.00024165610946703
-0.000208656726821409
-0.000150661354696803
-8.81574465436194e-05
-0.000190251173385162
-0.000331026984646134
-0.000416134905070092
-0.000558717345557629
-0.000649070197008098
-0.000736789230156106
-0.000801032751277174
-0.000857305936813742
-0.000901692570219293
-0.000939843767819286
-0.000971352562153243
-0.000998343530975562
-0.00102113991567594
-0.00104071403966851
-0.00105752866908291
-0.00107273030149558
-0.00113730641564123
-0.00114921191656081
-0.00115968077721616
-0.00116735078228177
-0.00117227356228615
-0.00117475843602886
-0.00117509801411243
-0.00117354591442362
-0.00117032283103672
-0.00116561565532688
-0.00115959633758953
-0.00115241891447931
-0.00114422555874637
-0.0011351449104754
-0.00112528843760224
-0.00111474449226016
-0.00110357688511651
-0.00109181747336815
-0.00107948235466093
-0.0010665822556368
-0.00105315801360958
-0.00103927426468485
-0.00102499362093953
-0.00101035968038955
-0.000995388363321058
-0.000980063403879045
-0.000964320708732507
-0.000948065321226015
-0.000931187807954245
-0.000913606434595707
-0.000895298831990104
-0.000876267252971739
-0.000856493416335479
-0.000835916295552621
-0.000814395590816111
-0.000791731376422794
-0.000767674703069658
-0.00074187918627361
-0.000713935599728198
-0.000683335542162149
-0.000649188646720815
-0.000610385048264188
-0.000565111770686788
-0.000510855050987131
-0.00044359164286893
-0.000358314230280762
-0.000246257037956495
-9.85990191913846e-05
8.07271523780595e-05
6.69347675197569e-05
-0.000283071199630823
-0.000520002867926988
-0.000856272126151389
-0.00116180209952384
-0.00151518227397267
-0.00194203788542503
-0.00245995047016567
-0.00298155581564865
-0.00350869168100135
-0.00399906424222992
-0.00438090870966177
-0.00453327087832431
-0.00454683220669369
-0.00451399385331389
-0.00450588667987257
-0.00466266690868064
-0.00529227950833809
-0.00676937160148782
-0.00859509092465984
-0.0109558792848219
-0.0138961714936834
-0.0168423447559595
-0.0124372687689176
-0.00530995939024771
0.00114234679019062
0.00384757132555866
0.0036074363477271
0.00139613341580452
-0.00125844756940981
-0.00077028521382803
-0.00095571182808132
0.00112378919912654
7.47651782752838e-06
-5.47658858902442e-05
-1.34823545297484e-05
-9.79956576490609e-06
-8.75160051202493e-06
-7.13406856606462e-06
-1.08667853546367e-05
-1.58251956726478e-05
-2.44587544910189e-05
-3.95063820872361e-05
-6.47766590237267e-05
-0.000102389444327323
-0.000151636075534571
-0.000207956092174953
-0.000262621748667797
-0.000305866729473949
-0.00033407448496103
-0.000344680432212024
-0.000332122035643738
-0.000289642099964224
-0.000220957961376521
-0.000168703965861252
-0.00032654646374264
-0.000481879414229008
-0.000622273334766836
-0.000820616914135692
-0.000933708579420919
-0.00103929530639431
-0.00111064583228657
-0.00117081143909003
-0.00121517716828107
-0.00125141639529781
-0.00127920609804257
-0.00130128012106144
-0.00131811497535398
-0.00133091702406156
-0.00134011481802883
-0.00139076692479498
-0.00139058028625546
-0.00139000100531363
-0.00138729954949916
-0.0013820095025941
-0.00137436219972395
-0.00136473570341154
-0.00135347825559871
-0.00134088764084166
-0.0013272127508189
-0.00131265876615675
-0.001297407421053
-0.00128161641000025
-0.00126542687890417
-0.00124896106323673
-0.00123231946557414
-0.00121557553336587
-0.00119877296840404
-0.0011819210612472
-0.00116500899274203
-0.00114801987939315
-0.00113096749417535
-0.00111389206972799
-0.00109683068269266
-0.00107979538044542
-0.00106276938746013
-0.00104570057224416
-0.00102848958794105
-0.00101100700351686
-0.000993112557989735
-0.000974698583235499
-0.000955723540083121
-0.000936173950627754
-0.000916012901332536
-0.000895158561499538
-0.0008734482697009
-0.000850660832932137
-0.00082653296420486
-0.000800695921388591
-0.000772725520265326
-0.000742106950135666
-0.000707931304024366
-0.000669089394098988
-0.000623749425099597
-0.000569441792967898
-0.000501996057450861
-0.000416617087668668
-0.000303674064040417
-0.000156495020148653
5.9506298557637e-05
8.12288862543566e-05
-0.000297147029919101
-0.000563425389161793
-0.00087156728724297
-0.00117182128208846
-0.00150642852616888
-0.00190200992489036
-0.0023692912620343
-0.00284180066654439
-0.00332698228330078
-0.00379969922708361
-0.00420176637717688
-0.00444059437517385
-0.00455320966689684
-0.00460353983394634
-0.00466067392383729
-0.00488126974031486
-0.00554979612886939
-0.00713687094765744
-0.00928840065823188
-0.0123349464761887
-0.0157860607164932
-0.0200185101578173
-0.01698724565428
-0.00946242404084234
0.00107646320281121
0.00788208727040021
0.00825062752166601
0.00431020855040732
-0.00137922753850662
0.000429291052692855
-0.000309082186394257
0.00172230544109227
0.000168652628097777
-5.6591539072259e-05
-1.1694150800449e-05
-1.36462456084394e-05
-1.40557897349539e-05
-1.33306844695894e-05
-2.00590733353866e-05
-2.89628582212567e-05
-4.37193247235158e-05
-6.79510317268335e-05
-0.000105879680884842
-0.000157598453893083
-0.000219247229362556
-0.000283387364987421
-0.000340694989601242
-0.000383864842582076
-0.00041219716517871
-0.00042363343041386
-0.00041373866733114
-0.000378122534527016
-0.00033048937378291
-0.000334146982427074
-0.000550003793657782
-0.000700860609629787
-0.000888332632113518
-0.00111085425151146
-0.001230143532458
-0.00133791361860312
-0.00140581079647305
-0.00146095389908987
-0.00149856510536706
-0.00152727298801614
-0.00154686194617911
-0.00156031240603156
-0.00156819192499583
-0.00157181226636289
-0.00157278772563669
-0.00160143606813998
-0.001591767529755
-0.00158073058638117
-0.00156749078445868
-0.00155196840742996
-0.00153448023986239
-0.00151543915798523
-0.00149522426796173
-0.00147415789283844
-0.00145250226939423
-0.0014304693166068
-0.00140824047632806
-0.00138596972076326
-0.00136379110976813
-0.00134181693443748
-0.00132013529837804
-0.00129880568527441
-0.00127785509615522
-0.00125727505029021
-0.00123703249421094
-0.00121708657037753
-0.00119742455599044
-0.00117806385031303
-0.00115902067134947
-0.00114028232781901
-0.0011218085535238
-0.00110352189643263
-0.00108529926056985
-0.00106698695048187
-0.00104842228279921
-0.001029474170716
-0.00101008331978476
-0.000990223843057554
-0.000969845522553034
-0.000948854312669251
-0.000927074484239829
-0.000904272289886543
-0.000880176367822378
-0.000854404505756114
-0.000826525705115512
-0.000796027430621048
-0.000762001300142369
-0.000723356718771592
-0.000678272216878782
-0.000624367542055867
-0.000557410053774087
-0.000467811773308479
-0.000344494288111946
-0.000199550804927345
1.36254325594309e-05
4.22834014766815e-05
-0.000311405372083944
-0.000571322696406346
-0.000865859985254061
-0.00115391714580674
-0.00146509434335365
-0.00182458292300734
-0.00223844575750217
-0.00265518564739989
-0.00308689209794724
-0.00351853309187211
-0.00390238364433654
-0.00416236002578681
-0.00430219592940832
-0.00435825110868745
-0.0043896505455703
-0.00454709635903067
-0.00506972532227226
-0.0064502619305378
-0.00847862653208035
-0.0116892340478893
-0.0152118710355938
-0.0203834902638974
-0.0192562390159208
-0.0138969349913619
-0.002173585747128
0.00931603353946031
0.013027023462953
0.00615814470220566
-0.00150577616293069
0.00215122597565968
0.00151026213784051
0.00264023896715123
0.000344056089054655
-1.45590509388256e-05
4.44648179786317e-06
-1.44041033959675e-05
-1.95561611931003e-05
-2.16848293058162e-05
-3.26818987876697e-05
-4.65492908419472e-05
-6.80419201513478e-05
-0.000100816142627492
-0.000148531893895121
-0.000208796698477631
-0.000276431398473756
-0.000343889877433662
-0.000403595917067734
-0.000450352646353091
-0.000483872040658424
-0.000502165632383855
-0.000503593818860849
-0.000489218669954764
-0.000484584804721171
-0.000558349503246039
-0.00080439811893273
-0.000941643692478445
-0.00116462650589832
-0.00138933794197191
-0.00150659169257332
-0.0016083920949968
-0.00166870715289959
-0.00171552892111246
-0.00174450591430568
-0.00176439566097971
-0.00177515033250452
-0.00177974792205712
-0.00177881044312498
-0.00177355706637817
-0.00179566691625598
-0.0017775533710801
-0.00175980956558477
-0.00174034248067017
-0.00171877784144485
-0.00169522578645526
-0.00167004886715496
-0.0016436782615402
-0.00161651310124329
-0.00158889191003394
-0.00156108451473485
-0.00153330514895191
-0.00150573145581705
-0.00147851138276176
-0.00145177040205855
-0.00142561068592758
-0.00140010898572323
-0.00137531308018605
-0.0013512369623217
-0.00132785851041761
-0.00130512659006943
-0.00128297938019174
-0.00126137924964153
-0.00124032305786554
-0.00121981019673081
-0.00119980870279058
-0.00118026133772
-0.00116107289921314
-0.0011421039606197
-0.00112318336322101
-0.00110413106726343
-0.00108479449901162
-0.00106509781911986
-0.00104500488911856
-0.00102445570435782
-0.00100334900189657
-0.00098150129835432
-0.000958670577240335
-0.00093457994108233
-0.000908837358583552
-0.000881007330834607
-0.000850579919601687
-0.000816653613018437
-0.00077815644482677
-0.00073328091584332
-0.000679737578275819
-0.000603363128863674
-0.000509493081206294
-0.00039692219573682
-0.000252181482558973
-3.67767432873047e-05
-1.56351939682849e-06
-0.000328081830204991
-0.000575214614226109
-0.00085425611708852
-0.00112805542518566
-0.00141648943184765
-0.00174244342465325
-0.00210903937230285
-0.00247551514423098
-0.00285819922935132
-0.00324797295275682
-0.00360442886022907
-0.00385890209699824
-0.00399462637681342
-0.00402458826632764
-0.00399528246841293
-0.00403923070404138
-0.00434755678424939
-0.00539318594444068
-0.00705497012206907
-0.0100248387311317
-0.0132639468996031
-0.0188212438433287
-0.0193277315715158
-0.0172616615346846
-0.00728962344266695
0.00602337592125486
0.0153207588777817
0.00816234247607562
-0.00174628021520667
0.00394717492461851
0.00386834714384909
0.00425861491258469
0.000825396714059275
0.000113563018179313
4.99543697136551e-05
-6.43980546210063e-06
-2.26169426984805e-05
-3.04539647249939e-05
-4.71708908800245e-05
-6.61870412101487e-05
-9.35817649347899e-05
-0.000132728770319984
-0.000187026001282692
-0.000252765186929956
-0.000325092118225829
-0.000396689981658446
-0.000461343466308315
-0.000514852067423715
-0.000556791769912755
-0.000586394440090275
-0.000605897923758276
-0.000622278866636069
-0.000669028200263431
-0.000804474613276629
-0.00105290238313855
-0.00118117114354602
-0.0014274896686607
-0.00164258714226487
-0.00175435250609299
-0.00184690292474461
-0.0018988322891725
-0.00193683302628633
-0.0019574119558212
-0.00196894406680069
-0.00197161306000594
-0.00196825951508607
-0.00195954804062881
-0.00194371573664437
-0.00195387178943005
-0.00193000648132413
-0.0019055635943171
-0.00187930771453692
-0.00185111754614053
-0.00182120540082719
-0.00178995855919796
-0.00175781686867418
-0.00172519341884882
-0.00169243841900356
-0.00165982632014578
-0.00162757134964698
-0.00159584577001657
-0.00156479052398572
-0.00153452215436469
-0.00150513317135897
-0.00147669024488625
-0.00144923145975391
-0.00142276073747297
-0.00139724544367715
-0.00137261962814045
-0.00134880281363353
-0.00132573408772234
-0.00130339184260887
-0.00128176180595125
-0.00126079687610067
-0.00124042750448863
-0.0012205462391965
-0.00120100238021854
-0.00118161212520493
-0.00116218149174596
-0.0011425380674522
-0.0011225904668783
-0.00110229376393803
-0.00108158058866081
-0.00106034558948785
-0.00103840090599429
-0.00101549867656111
-0.000991357573916661
-0.000965577556823407
-0.000937719072339213
-0.000907272282223849
-0.000873345172620912
-0.000834879088781023
-0.000790076965196622
-0.00072664092556561
-0.000648819384432198
-0.000563415138050083
-0.000450798402489829
-0.000306241330381957
-8.93356577442122e-05
-4.75658508267167e-05
-0.000348574142144742
-0.000579107934498786
-0.000841829680263588
-0.00110066681492011
-0.00136793838094876
-0.00166398394249571
-0.00199010788721427
-0.0023134653701676
-0.00265433827122701
-0.00300710180413635
-0.00333626675309489
-0.00357509895835541
-0.00369431594096275
-0.00368848003322968
-0.00359218595887813
-0.0035157319796047
-0.00360836146519433
-0.0043081208525236
-0.00554000917527917
-0.00807794076647003
-0.0108641142469492
-0.0163796252620907
-0.0180847211804435
-0.0193844520506188
-0.0118733522596973
-0.000610078144047553
0.013906052042192
0.00901556887097776
-0.00231095565920416
0.00576948482989149
0.00581173069507145
0.00675843336195855
0.00178820636180068
0.000368300229350062
0.000144033461715287
1.86341597313592e-05
-1.88587881723222e-05
-3.67767609243841e-05
-6.03576008066825e-05
-8.43115411213392e-05
-0.000116787710480343
-0.000161351249595198
-0.000221420744015024
-0.000292348240985844
-0.00036969663009558
-0.000446229506457941
-0.000517166187275202
-0.00057919647073388
-0.000631913320329811
-0.000676416554431045
-0.000718751296417748
-0.000770491152893966
-0.000867377608161056
-0.00104899244006473
-0.00128453489828004
-0.00141069824395912
-0.00166847980347733
-0.00186911638255276
-0.00197427340127044
-0.00205685109709244
-0.00210088539034024
-0.00213062315381151
-0.00214367654076337
-0.00214778367371108
-0.00214340480913208
-0.00213318609813248
-0.00211808075117759
-0.00209844136534142
-0.00209429076363368
-0.00206538239731739
-0.00203542271912525
-0.00200368022209708
-0.00197018260777696
-0.00193519952303893
-0.00189912959860497
-0.00186241478998942
-0.00182547794784445
-0.00178867795372744
-0.00175229187932676
-0.00171653233528021
-0.00168156523660749
-0.00164752389884466
-0.00161451585911008
-0.00158262443327716
-0.00155190725865544
-0.00152239429267568
-0.00149408160694966
-0.00146692842592576
-0.0014408565675103
-0.00141576873262019
-0.00139158219743377
-0.00136825861220709
-0.0013457725324504
-0.00132406485569667
-0.00130305717015378
-0.0012826339182515
-0.00126263677113394
-0.00124287291182793
-0.00122313696974653
-0.00120323816634218
-0.00118307040381677
-0.00116258100376979
-0.00114169695200163
-0.0011203108800455
-0.00109823287123349
-0.0010752107536079
-0.00105095916121968
-0.0010250711373141
-0.000997102886609056
-0.000966540887867885
-0.000932504392093723
-0.000893940557690122
-0.00084158289808474
-0.000773076119679461
-0.000704823646270264
-0.000619107946492951
-0.000506244337079933
-0.000361637246566611
-0.00014978849009407
-9.51129132759785e-05
-0.000373027314735057
-0.00058462267043107
-0.000830427203265387
-0.00107391396666102
-0.00132140842059135
-0.00159073497242053
-0.00188207438196853
-0.00216860483515781
-0.00247426443521253
-0.00279543745532129
-0.00309969914924042
-0.00331910242658302
-0.00341690390983105
-0.00337368378071841
-0.00321398294740957
-0.0030256947550378
-0.00292431090106415
-0.0033106683676166
-0.00413321826686705
-0.00618801568522522
-0.00848958107516057
-0.0137334164115215
-0.016311153775336
-0.0206563875132145
-0.0153002746170327
-0.00771929386281506
0.00924729254062282
0.00813650572440122
-0.00345494563079814
0.00767546171039785
0.00673990923140904
0.0097963311117471
0.00343113345107554
0.000765370649377509
0.000302882655722641
7.0157285930687e-05
-2.95545965635393e-06
-3.67040009245797e-05
-6.87756873880733e-05
-9.83771092126704e-05
-0.000136700737790384
-0.000187524879542824
-0.000253492280460171
-0.000329248476421428
-0.000411241937936043
-0.000492833889883198
-0.000570899481793182
-0.000642950397106273
-0.000708566035922289
-0.000770749972621204
-0.000838663816910851
-0.000926471187057201
-0.00106735846814451
-0.00128080538463751
-0.00149829084148629
-0.00162642973003705
-0.00188633704363826
-0.00207162563368762
-0.00217002139092338
-0.00224303130506563
-0.00227999179234249
-0.0023023073892934
-0.00230877342779534
-0.00230640654445226
-0.00229595872756491
-0.00227984896074545
-0.00225937527061975
-0.00225471932755986
-0.00222108369710644
-0.00218787745125748
-0.00215339467380701
-0.00211721836708701
-0.00207946764031043