/*--------------------------------*- C++ -*----------------------------------*\
  =========                 |
  \\      /  F ield         | OpenFOAM: The Open Source CFD Toolbox
   \\    /   O peration     | Website:  https://openfoam.org
    \\  /    A nd           | Version:  7
     \\/     M anipulation  |
\*---------------------------------------------------------------------------*/
FoamFile
{
    version     2.0;
    format      ascii;
    class       volScalarField;
    location    "20000";
    object      nut;
}
// * * * * * * * * * * * * * * * * * * * * * * * * * * * * * * * * * * * * * //

dimensions      [0 2 -1 0 0 0 0];

internalField   nonuniform List<scalar> 
15600
(
4.81619312770635e-11
4.26437150551566e-11
2.48817644057559e-11
9.86627539832576e-12
2.48519826205514e-12
1.57390684772304e-12
1.43103541817201e-12
8.09944707148791e-13
6.02496664340741e-13
6.08092338015376e-13
7.2735508471096e-13
9.96869351585969e-13
1.48084878551213e-12
2.30731857136944e-12
3.72353758980331e-12
6.11945333401206e-12
1.00581121937756e-11
1.63576782822731e-11
2.61392017505089e-11
4.07413193232907e-11
6.14159540986336e-11
8.89780607427415e-11
1.23391515652155e-10
1.62601303113445e-10
2.01847538101368e-10
2.33329238650226e-10
2.52740307022156e-10
2.75099817781396e-10
3.59506505231055e-10
4.9563570000576e-10
6.37897879662202e-10
7.82566242004113e-10
9.2702765132042e-10
1.07050670857509e-09
1.21212980595394e-09
1.35179514853917e-09
1.48912329616862e-09
1.62392260375701e-09
1.75584069758722e-09
1.88455347562019e-09
2.00968231042539e-09
2.13089774223974e-09
2.24792695752839e-09
2.36064352029473e-09
2.46900303358336e-09
2.57324137060094e-09
2.67318075354538e-09
2.76657169871504e-09
2.85261559643525e-09
2.93109621120802e-09
3.00188997343135e-09
3.06494875313527e-09
3.12029560745561e-09
3.16800756689987e-09
3.20821520901267e-09
3.24109708974617e-09
3.26687508209838e-09
3.2858096642233e-09
3.29819390798599e-09
3.30433923355338e-09
3.3045725773893e-09
3.29921391020044e-09
3.28858517195699e-09
3.27299952691718e-09
3.25278810575789e-09
3.22831228356771e-09
3.19993800876558e-09
3.16803051960849e-09
3.13291585200978e-09
3.094890389483e-09
3.05417617277897e-09
3.01094711884054e-09
2.96531469259843e-09
2.91739015147201e-09
2.86731737173458e-09
2.81523653145545e-09
2.76127657952042e-09
2.7054945808428e-09
2.64787191855535e-09
2.58828691268385e-09
2.52657588934662e-09
2.46247323231517e-09
2.39562421608536e-09
2.32551942349988e-09
2.25139648703867e-09
2.17211885586462e-09
2.08617172841935e-09
1.99123424299621e-09
1.8846185581993e-09
1.76238680934438e-09
1.62076635572519e-09
1.45042330418884e-09
1.3646358962944e-09
1.45210597110852e-09
1.53556361630307e-09
1.61248839399055e-09
1.63536407564451e-09
1.61765821830029e-09
1.56345177556522e-09
1.49209341850506e-09
1.39366033954607e-09
1.27466649512529e-09
1.13632970023443e-09
9.87780647697504e-10
8.27463805134226e-10
6.74575874711416e-10
5.3911069312044e-10
4.24508180743209e-10
3.29824602418709e-10
2.56208716396436e-10
2.01908182385038e-10
1.63147961674744e-10
1.36435134212478e-10
1.23268549459964e-10
1.17906524834028e-10
1.11145204771469e-10
9.04124012468678e-11
6.60042685598747e-11
4.75830281856472e-11
4.44771203293237e-11
9.2243960661022e-09
8.17028901831234e-09
4.76894739332621e-09
1.90285792537555e-09
4.84610510190584e-10
3.04231105672007e-10
2.77018059390839e-10
1.57942438344666e-10
1.16922970931283e-10
1.17367083628397e-10
1.39844382175215e-10
1.9104453302573e-10
2.83148537176862e-10
4.40379912040636e-10
7.09638484702461e-10
1.1651527333993e-09
1.91440266331868e-09
3.11347097225559e-09
4.977024077465e-09
7.76339889155113e-09
1.17168228001263e-08
1.69964314291871e-08
2.36012721073933e-08
3.11319759677077e-08
3.86685982355417e-08
4.47173152568819e-08
4.84456495497665e-08
5.26298569977629e-08
6.86293744513327e-08
9.4569707631089e-08
1.21651472744349e-07
1.4917877782914e-07
1.76655645168075e-07
2.03936431743595e-07
2.30855394836372e-07
2.57397581166601e-07
2.83493509069002e-07
3.09110797820022e-07
3.3418563346219e-07
3.58659742026827e-07
3.82463749636727e-07
4.05537459689386e-07
4.27830934124598e-07
4.49321801617961e-07
4.70002617612208e-07
4.8991888864574e-07
5.09006506330547e-07
5.26766849710287e-07
5.4314682151137e-07
5.58105525117433e-07
5.71619203356324e-07
5.83677955524047e-07
5.9428500042924e-07
6.03453584046058e-07
6.11206840864539e-07
6.17576938973302e-07
6.226041169352e-07
6.26335952798478e-07
6.28826195833853e-07
6.30132128633511e-07
6.30314064861069e-07
6.29431160114212e-07
6.27543030028931e-07
6.24707907116496e-07
6.20987615216737e-07
6.16449799149415e-07
6.11163182876938e-07
6.05196437061437e-07
5.98610988899345e-07
5.91462751450349e-07
5.83793706726643e-07
5.75636723284551e-07
5.6701309479525e-07
5.57944048102486e-07
5.48457067171407e-07
5.38579014851242e-07
5.28334558428909e-07
5.17734851271634e-07
5.06776625393827e-07
4.95437100351571e-07
4.83685462420775e-07
4.71471535453281e-07
4.58728061100353e-07
4.45358580581985e-07
4.31218279222483e-07
4.16091313359687e-07
3.99690018383917e-07
3.8157235567482e-07
3.61228096356446e-07
3.37902189396922e-07
3.10875716078835e-07
2.7833772048066e-07
2.6180434695972e-07
2.78673278640501e-07
2.94782573687071e-07
3.09518090065072e-07
3.13928146610111e-07
3.10532266137993e-07
3.00179454706808e-07
2.86452754797625e-07
2.67509429547172e-07
2.44595464845151e-07
2.17985856434854e-07
1.89407530626683e-07
1.58644101667953e-07
1.29345015150551e-07
1.03396569886143e-07
8.14415786819017e-08
6.33068109788455e-08
4.92061479975807e-08
3.87952598559365e-08
3.13526668837113e-08
2.6222554832712e-08
2.36712420417972e-08
2.259235042677e-08
2.12355022700386e-08
1.72061915938976e-08
1.25720521016209e-08
9.08985969626723e-09
8.52084353139125e-09
2.03611660795105e-07
1.80402096741802e-07
1.05090656094277e-07
4.23220908609634e-08
1.09319587989938e-08
6.80800623605917e-09
6.21380491549665e-09
3.57072611739082e-09
2.63266863765763e-09
2.62921585403651e-09
3.12149719461803e-09
4.24962453702716e-09
6.28132260802781e-09
9.7462594474674e-09
1.56711581603271e-08
2.56856649009085e-08
4.21610113962773e-08
6.85367671140326e-08
1.09558066474921e-07
1.71001021315878e-07
2.58396349096874e-07
3.75264811071878e-07
5.21656863276255e-07
6.88644177682702e-07
8.54261278588883e-07
9.8660012059902e-07
1.0682796212594e-06
1.14558650212181e-06
1.47836910727364e-06
2.03058432748376e-06
2.60579959927931e-06
3.1886903451927e-06
3.76912093067392e-06
4.34421721919769e-06
4.91075645139979e-06
5.46883270112779e-06
6.01729911230856e-06
6.55583264309128e-06
7.08338117005298e-06
7.59899407648169e-06
8.10142970111865e-06
8.58960801038591e-06
9.06261262352627e-06
9.52007816104804e-06
9.96186196866258e-06
1.03889461866375e-05
1.07915975915371e-05
1.11677720754462e-05
1.1516384072933e-05
1.18365796183114e-05
1.2127826422499e-05
1.23898487635401e-05
1.26226157336404e-05
1.28262850440515e-05
1.3001202494076e-05
1.31478909441719e-05
1.32670324014827e-05
1.33594588111273e-05
1.34261296098791e-05
1.34680819595682e-05
1.34864213417775e-05
1.34822403778705e-05
1.34566496896816e-05
1.34107471496718e-05
1.33457190537904e-05
1.32628827374116e-05
1.31635933544734e-05
1.30492156906777e-05
1.29209805860262e-05
1.27800146107346e-05
1.26271690150813e-05
1.24631113254676e-05
1.22882814579679e-05
1.21031229370384e-05
1.19082140977682e-05
1.17041277101471e-05
1.14913916017428e-05
1.12702581508741e-05
1.10406762714002e-05
1.08021886216973e-05
1.05541657210536e-05
1.02955670626919e-05
1.00249821271583e-05
9.74038860692088e-06
9.43871776050756e-06
9.11539199987831e-06
8.76429288311665e-06
8.37593879232e-06
7.93942094134068e-06
7.43815884807135e-06
6.85632871467864e-06
6.15156004189923e-06
5.7879286133955e-06
6.1583371936669e-06
6.5065916331648e-06
6.81853798040971e-06
6.90944677600472e-06
6.83010578020197e-06
6.60106026048404e-06
6.29514810471421e-06
5.87774366866634e-06
5.37355996309521e-06
4.78972867851739e-06
4.16261605704147e-06
3.49023749328462e-06
2.84901408573999e-06
2.27997683705018e-06
1.79751720451557e-06
1.39853351140097e-06
1.0875309253128e-06
8.56999220918495e-07
6.91678622936621e-07
5.77453478319195e-07
5.19141536776455e-07
4.92575432630509e-07
4.60343498890273e-07
3.69827231256741e-07
2.7116217075409e-07
1.98379887017753e-07
1.87993860551556e-07
1.62698818485476e-06
1.44405204928086e-06
8.40424269891859e-07
3.45229241259379e-07
9.1267229344732e-08
5.64203469983602e-08
5.16935159465098e-08
2.99583956706885e-08
2.20051936836136e-08
2.18598380143435e-08
2.58516434846574e-08
3.50482942597815e-08
5.16209937909375e-08
7.98187082055889e-08
1.2788104999866e-07
2.08879979755588e-07
3.41901892910301e-07
5.54455802495106e-07
8.8447801932351e-07
1.3784876841515e-06
2.080743624966e-06
3.01656867639302e-06
4.18352076919609e-06
5.50888497927232e-06
6.79077491309683e-06
7.78294585433508e-06
8.33282158181969e-06
8.7205131619687e-06
1.1043359997024e-05
1.50248756761162e-05
1.9118408024778e-05
2.32272055260687e-05
2.72780196288896e-05
3.12580948099353e-05
3.51487978682265e-05
3.89576723366031e-05
4.26810384499867e-05
4.63218206197345e-05
4.98766075190442e-05
5.3342707259899e-05
5.67147316880994e-05
5.99881022961307e-05
6.31586084022278e-05
6.62253611672108e-05
6.91869543727478e-05
7.19983095688504e-05
7.46418592327365e-05
7.71201490756571e-05
7.9427535686322e-05
8.1559889712253e-05
8.35147679885193e-05
8.52910171297941e-05
8.68887080216017e-05
8.8308817007493e-05
8.95532542735303e-05
9.06248154683076e-05
9.15271062714753e-05
9.22645129519767e-05
9.28420931468805e-05
9.32653084268247e-05
9.35399811745433e-05
9.36718377964784e-05
9.36666975009423e-05
9.35303158879319e-05
9.32690286673535e-05
9.28900106660048e-05
9.24007402450465e-05
9.18088267934965e-05
9.1121167443755e-05
9.03441027324195e-05
8.94823803337819e-05
8.85396645074684e-05
8.75182654239963e-05
8.64205547480014e-05
8.52497692267243e-05
8.40091781434313e-05
8.27018134943703e-05
8.13290409938261e-05
7.98903089418003e-05
7.8382482684102e-05
7.68012748478827e-05
7.51396632490666e-05
7.33880724103425e-05
7.15328884093647e-05
6.95532806098198e-05
6.74181589238492e-05
6.50856090177446e-05
6.24897219174133e-05
5.95536799127966e-05
5.61557798860085e-05
5.21748078253193e-05
4.72265615309011e-05
4.4581716977022e-05
4.71875759216718e-05
4.95905736558123e-05
5.16814933109352e-05
5.22664972007355e-05
5.16635993074868e-05
5.00126847803961e-05
4.77993734332518e-05
4.47940263950891e-05
4.11330753327094e-05
3.68595100428572e-05
3.22167111020564e-05
2.71996807645071e-05
2.2349805364589e-05
1.7990197376283e-05
1.42520568410508e-05
1.11328685927485e-05
8.67924360740184e-06
6.84216797317995e-06
5.51252682900581e-06
4.58434272682117e-06
4.08844376682556e-06
3.83442388458719e-06
3.54049911738824e-06
2.79275759552192e-06
2.05091241682126e-06
1.53776241192119e-06
1.4939658801027e-06
7.30295190512521e-06
6.53942586748978e-06
3.82633809891524e-06
1.63353066452905e-06
4.5048450232707e-07
2.76402687149739e-07
2.54524516032219e-07
1.48808400528667e-07
1.08899369557396e-07
1.07569973559694e-07
1.26663213195119e-07
1.70850021874201e-07
2.50449310466657e-07
3.85252709704047e-07
6.13592247249503e-07
9.95895917447197e-07
1.62024765163565e-06
2.61150970509538e-06
4.13996440950007e-06
6.41150962851312e-06
9.60788546580794e-06
1.37946041333524e-05
1.89030772749478e-05
2.45486308448384e-05
2.97647971322483e-05
3.34168145296397e-05
3.48165157014232e-05
3.55447029482805e-05
4.41966079782768e-05
5.92383770876451e-05
7.42013309668789e-05
8.89745715344896e-05
0.00010322523820301
0.000116994871294263
0.000130235428554932
0.000143021008096525
0.000155360278836303
0.000167291983247325
0.000178822961942361
0.000189963556446152
0.000200711061075625
0.000211064389189722
0.00022101972730447
0.000230582453232098
0.000239658955440888
0.000248189597525494
0.000256207844881443
0.000263708216477819
0.000270682844869299
0.000277127582565198
0.000283042255605673
0.000288429533108521
0.000293294701560859
0.000297644774077665
0.000301488662455205
0.000304837012522037
0.000307702102364874
0.000310097766655591
0.000312039170179611
0.000313542134500214
0.000314623037421297
0.000315297629219866
0.000315581567962186
0.000315490007736336
0.00031503950771777
0.000314248761335708
0.000313137186331849
0.000311724502594967
0.000310028501186141
0.000308065448437772
0.000305847278003252
0.000303382886993701
0.000300677309617707
0.000297735713126284
0.0002945655817478
0.000291174543684943
0.000287569626388876
0.000283753264956885
0.000279722428854285
0.000275466660242622
0.000270972020196108
0.000266216379145884
0.000261169662977201
0.0002557898250008
0.000250012496973319
0.00024374181717277
0.000236847568464816
0.000229122098030713
0.000220318870733471
0.000210031724264286
0.000197836077246899
0.00018213228137199
0.000173347510535373
0.000181492140553281
0.000189022478804301
0.000195428721246081
0.000197254308832225
0.000195303445298566
0.000190119975635204
0.00018303038168183
0.000173262510498405
0.000161071596745762
0.000146479377117203
0.000130172530762275
0.000112024188672509
9.38625449418477e-05
7.69660154049892e-05
6.19971197128702e-05
4.91270732519629e-05
3.87253300416346e-05
3.07428258623339e-05
2.48340643601451e-05
2.06029601363179e-05
1.82176206316031e-05
1.68485001194366e-05
1.53373244484974e-05
1.17599841013916e-05
8.52655708624407e-06
6.55684717028161e-06
6.60259127463231e-06
2.20045326916999e-05
2.01541900605412e-05
1.19866904273598e-05
5.43299455164851e-06
1.61912847474139e-06
9.86909776272757e-07
9.14393841080438e-07
5.39419692911312e-07
3.9326298248968e-07
3.86071862134763e-07
4.52293299276276e-07
6.06085234030114e-07
8.82583343179743e-07
1.34694969122399e-06
2.12498691886966e-06
3.41226467949432e-06
5.4907343554175e-06
8.74635589509697e-06
1.3687435595813e-05
2.08892016908769e-05
3.07439369072897e-05
4.31455736548593e-05
5.75747544440341e-05
7.26135630946489e-05
8.53803781852021e-05
9.29138013015868e-05
9.42638474633825e-05
9.547634548696e-05
0.000117993410982626
0.00015571985236499
0.000191439419739072
0.000226100332538426
0.000258588450573582
0.000289397858327612
0.000318449770530638
0.000346071807389363
0.000372336308146797
0.00039740957053972
0.000421351997559167
0.000444235569430706
0.000466091576894163
0.000486951940594961
0.00050683189206802
0.000525690350653502
0.000543363307591118
0.000559946455322421
0.00057546016957388
0.000589905802526175
0.000603285290581932
0.000615606142754553
0.00062688160429724
0.000637128689006713
0.000646367733309468
0.000654620826335386
0.000661912327718622
0.000668268529844856
0.000673717691974472
0.000678289905879487
0.00068201680920895
0.000684930475648949
0.000687063219900194
0.000688445587610744
0.000689107330725543
0.000689076689252712
0.000688384086896422
0.000687063449414503
0.00068514973409834
0.000682678208514245
0.000679680581301952
0.000676185624987291
0.000672214236479919
0.000667781583319353
0.000662895507214697
0.000657563979550635
0.000651798944023504
0.000645612617297226
0.000639016156085958
0.000632012403203096
0.000624594043101721
0.000616739990593605
0.000608422571421266
0.00059959859549723
0.000590209425058353
0.000580174334673582
0.000569369432002984
0.000557610877621353
0.000544648326369741
0.000530078892037783
0.000513421528639899
0.000493862986154485
0.000470541401796445
0.000439815990735451
0.000421936395593733
0.000437324427708767
0.00045220484195642
0.000464810700504319
0.000468777239505135
0.000465566932687183
0.000456166574053516
0.000442849062866157
0.000423924527830806
0.000399549109846841
0.000369504904257022
0.000334922511719459
0.000295122490431829
0.000253778786642239
0.000213787916702482
0.000176891257525409
0.000143794325119881
0.00011592930481255
9.37156033313083e-05
7.66678826203253e-05
6.39181449113285e-05
5.63531688224013e-05
5.16128116195826e-05
4.66127278406779e-05
3.46911544659428e-05
2.43030869252881e-05
1.8758165919681e-05
1.94373760075522e-05
4.91547310132359e-05
4.66474942425489e-05
2.85048998451652e-05
1.38746402430579e-05
4.69681526531942e-06
2.85912732349928e-06
2.66787921888908e-06
1.58815078430939e-06
1.15324144191502e-06
1.12431388264912e-06
1.30886891127532e-06
1.73856760965658e-06
2.50767628720213e-06
3.782091654533e-06
5.88132095868187e-06
9.29178890335861e-06
1.46984071608625e-05
2.29822098214033e-05
3.52228836593558e-05
5.24646747551586e-05
7.49859761577134e-05
0.000101716813438455
0.000130913332013411
0.000159172193746038
0.000180846242403603
0.000191451867910666
0.000191931591316517
0.000196621558812388
0.000243891258296049
0.000316377398517129
0.000381331331353573
0.000443384993377782
0.000499875811014715
0.000552641910840818
0.00060155832182325
0.000647507855472996
0.000690685254495274
0.000731505697757166
0.000770132775556989
0.000806758312410885
0.000841482944584841
0.000874404555139082
0.000905578284783453
0.000934765188400411
0.000962104575677159
0.000987675736530021
0.0010115064500787
0.00103361688118223
0.00105402770076125
0.0010727663878828
0.00108986703908365
0.00110536774055576
0.00111930989776172
0.00113173605430353
0.00114269089879197
0.00115222075508695
0.00116037388505727
0.00116720030639401
0.00117275148209072
0.0011770788213773
0.00118023332181621
0.00118226278198324
0.00118321319354022
0.00118312776227159
0.00118205261026398
0.00118003869291242
0.00117713826556233
0.00117340376672739
0.00116888234373793
0.00116361652729793
0.00115763715365512
0.00115096621804561
0.0011436144953449
0.00113559280171035
0.00112691755300013
0.00111760561249688
0.0011076722755274
0.00109712057045129
0.00108593812937347
0.00107409190134896
0.00106153889542952
0.00104821246673648
0.00103402195858477
0.00101884439519045
0.00100248991589996
0.00098467830288635
0.000965027667152277
0.000942920620064258
0.000917619680838474
0.000887859260462543
0.000852293481000716
0.000804906950241558
0.000776351548383336
0.000798911068629225
0.000822514959341076
0.000842567104869821
0.000850130326027421
0.000846886673281597
0.000834320417194083
0.000815542610445654
0.000787690695242129
0.000750550202632441
0.000703496002202513
0.000648014814989731
0.000582440234389889
0.000512367490316299
0.00044258120763708
0.000376122635041018
0.000314305846789444
0.000260295769558984
0.000215661914849804
0.000180169151657763
0.000152258074714893
0.000135029746202585
0.000123513796913891
0.000111947526651634
8.18986530192762e-05
5.46996834870761e-05
4.09817750948087e-05
4.25733943203814e-05
8.86498949395436e-05
8.74990459239403e-05
5.52256326930957e-05
2.87064101527505e-05
1.14749077510469e-05
7.13712535438485e-06
6.71638073216367e-06
4.03504486678442e-06
2.91767696358046e-06
2.82162522965578e-06
3.25799725150158e-06
4.27615283847134e-06
6.08481911953639e-06
9.02383393747908e-06
1.37532765284674e-05
2.12560568173716e-05
3.28670658649626e-05
5.01472041607179e-05
7.47975622073711e-05
0.000108012317189022
0.000149038538709638
0.00019478453764545
0.000241759714439035
0.000284179577154028
0.000314002114123478
0.00032693845318637
0.00032845574315342
0.000343289109151072
0.000427108341942824
0.000542435022710257
0.000641297019776071
0.000734734461089479
0.000817889884322838
0.000894898791566011
0.000965469382278108
0.00103129342163383
0.00109268679335634
0.0011503923590466
0.00120469291851471
0.00125593135815952
0.00130429242148527
0.0013499559905244
0.00139287610080923
0.00143296108311805
0.00147045321945629
0.00150543491755112
0.0015379527810856
0.00156805051636162
0.00159577104911735
0.00162116523293074
0.00164429104928391
0.00166521047671898
0.00168398854217658
0.00170069060045451
0.00171538384020946
0.00172813662246497
0.00173901908257589
0.00174810291641003
0.00175546103206905
0.00176116570930464
0.00176528800926065
0.00176789429280248
0.00176904794874437
0.00176880825105737
0.00176723808797522
0.0017644064663419
0.00176038399587148
0.00175524123505787
0.00174904173583847
0.0017418425773238
0.00173368524158603
0.001724598973809
0.00171459774196646
0.00170369531944421
0.00169191262040496
0.00167927123429587
0.00166579060011094
0.00165147390203142
0.00163630334147079
0.00162023322513605
0.00160320454206987
0.00158512591522017
0.00156587261655807
0.00154527802479771
0.00152308268694865
0.001498906424297
0.00147223060527856
0.00144221600373278
0.00140785925929234
0.00136742670317582
0.0013190591821494
0.00125435244822131
0.00121407138497753
0.0012429340633567
0.00127627500100188
0.00130507424549473
0.00131793956743534
0.0013163736859427
0.00130237099988875
0.00127972100140458
0.00124425147511569
0.00119513730716516
0.00113128643059248
0.00105449957819765
0.000961922083714525
0.000860981047097562
0.000758474490512998
0.000658803608453947
0.000563733528041788
0.000478451593697058
0.000406120032672848
0.000347185755659735
0.000298749945570011
0.000268157026302495
0.000246679365218489
0.000226422278543995
0.000166468920908353
0.00010673994482167
7.55283784506216e-05
7.63121698241848e-05
0.000139057029667797
0.000141930126439572
9.25632052987769e-05
5.03121462418593e-05
2.40805141003501e-05
1.58799284113128e-05
1.51247264780522e-05
9.17660756479044e-06
6.60661160459014e-06
6.32819930234239e-06
7.22661440888165e-06
9.33593608553456e-06
1.30415343420082e-05
1.89140159885148e-05
2.81070719777597e-05
4.23164368157241e-05
6.37367860882992e-05
9.46057358484023e-05
0.000136953715954527
0.000191339639042523
0.00025485987358806
0.000321812802298967
0.000387107235982953
0.000442932896190585
0.000480135070273912
0.000496574207565212
0.000503812948043061
0.000537083436040368
0.000666578671413478
0.000827451026090285
0.00096195170129768
0.00108823133392844
0.00119900513276521
0.0013012264003988
0.0013942577405589
0.00148072805740848
0.00156103090297659
0.0016362666446538
0.00170683085651082
0.00177322682466668
0.00183572557749466
0.00189458958804147
0.00194959099071575
0.00200098486550677
0.00204898967734679
0.00209370386684402
0.00213519842075072
0.00217354231387347
0.00220880232299976
0.00224105429279775
0.00227038160241647
0.00229687162748584
0.00232061443616239
0.0023416995879945
0.00236021807665777
0.0023762615532046
0.00238992320318719
0.00240129752417511
0.00241047991122921
0.0024175645187522
0.00242264339012011
0.00242580237527481
0.00242712309879733
0.00242668176252057
0.0024245588064295
0.00242084200204477
0.00241562107331548
0.00240898535116366
0.00240101549409407
0.00239178370750725
0.0023813426929138
0.0023697293102559
0.0023569610560123
0.00234305478660247
0.00232803591432402
0.0023119307969742
0.0022947629589618
0.00227653572369386
0.0022572255928932
0.00223677373908988
0.00221510476171935
0.00219210161235062
0.00216760385692111
0.00214140066049769
0.00211316021898627
0.00208240062310496
0.00204846335238794
0.00201028468382971
0.00196660648031807
0.00191522846963554
0.0018536909021954
0.00177129794018025
0.00171838351427017
0.0017524537494128
0.00179636485306706
0.00183518542025432
0.00185508087856259
0.00185700138033093
0.00184341398402309
0.00181861559645306
0.00177705915249343
0.00171710367137805
0.00163718781745121
0.00153940811461882
0.0014197002558942
0.00128719625193573
0.00115081965185275
0.00101641968497334
0.000886097106585768
0.000767179428843399
0.000664615834897253
0.00058001214072317
0.000508106661808945
0.00046231796319338
0.000428850582901085
0.000399706868372247
0.000300892489469389
0.000190151357288076
0.000125880595772396
0.000120920369372067
0.000200213112944407
0.000209024834162511
0.000140819355516662
7.79062827097906e-05
4.39396819244751e-05
3.18919687071761e-05
3.11074418693355e-05
1.91051662375008e-05
1.37001997550355e-05
1.29741745121121e-05
1.46000827901536e-05
1.84830442335227e-05
2.52167085880099e-05
3.55976007669242e-05
5.14137362375041e-05
7.52913942497642e-05
0.000110397799293353
0.000159361763419042
0.000223902415488519
0.000302962489837151
0.000390743775003003
0.000479105491605714
0.000561968429969225
0.000630275408523427
0.000675224236506496
0.000698190679794281
0.000717157799657779
0.000776681088847709
0.000956900185903454
0.00116253252258155
0.00133317875598258
0.00149258240455348
0.00163136527251122
0.0017593078738751
0.00187531530805837
0.00198297325763394
0.00208271284654088
0.00217599175649309
0.00226330877594972
0.00234532691482647
0.0024224031843529
0.00249477990576927
0.00256228903076256
0.00262535989508664
0.00268420800610458
0.00273895638319515
0.00278970347961199
0.00283654459564924
0.00287957163583372
0.00291888664920946
0.00295459958625883
0.00298682441267575
0.00301567737809747
0.00304127338641833
0.00306372828838756
0.00308315803432956
0.00309967978532023
0.00311341170843777
0.00312447247249743
0.00313297885705124
0.0031390445776746
0.00314277570227561
0.00314427276476596
0.00314362961064284
0.00314094482820259
0.00313632544846544
0.00312988084019496
0.0031217195267071
0.00311193975600814
0.00310062926444145
0.00308785242638812
0.00307365403033354
0.00305805546234164
0.00304107677934915
0.00302274784598742
0.00300309977036747
0.00298216003561603
0.00295993207149523
0.00293638648226267
0.00291145092496316
0.00288503352002564
0.00285699086857441
0.00282712551694263
0.00279518255727337
0.00276075576515472
0.00272326117821951
0.00268189878563656
0.00263541352652539
0.00258225671302223
0.00251973582685086
0.00244480502728117
0.00234460268954238
0.00227830400702893
0.00231636680609442
0.00237145181425248
0.00242146663768555
0.00245003246762695
0.00245720470795765
0.00244583477458725
0.00242054797635945
0.00237439995831529
0.00230476263202917
0.00220962732772073
0.00209136507619171
0.00194477826842386
0.00178055190564706
0.00160981870675212
0.0014399866390713
0.00127347335795716
0.00111983572815867
0.000985868868272313
0.000874911150230075
0.000778288405743084
0.000716840166829507
0.000670269101853045
0.000633237325441491
0.000491643058613544
0.000315622497995219
0.000197611999868909
0.00017844373046129
0.00027414826781752
0.000288735504916382
0.000201304871305745
0.000110499350765093
7.08391411592515e-05
5.80115881101429e-05
5.90231041396887e-05
3.68971163586881e-05
2.63920913793539e-05
2.46650771255769e-05
2.72427888124176e-05
3.3648663575158e-05
4.46453547436388e-05
6.11825864504828e-05
8.58457890878802e-05
0.000122406801444812
0.000174929537873739
0.000245823243678715
0.000335684340774232
0.000441069922239577
0.000553191450546792
0.000662149271273791
0.000761588399479794
0.000842068448015506
0.000896334308044714
0.000929898995766951
0.000966657320475022
0.00105872722212223
0.00129124006358736
0.00153956220239357
0.00174653150915125
0.00193889046126247
0.00210595745597555
0.00225997131273989
0.00239938880872173
0.00252869221622208
0.00264833460830545
0.00276011269570485
0.00286462385419773
0.00296268571674576
0.00305475198118198
0.00314094335807309
0.00322133600879868
0.00329641456119547
0.00336640708374171
0.0034314668176975
0.00349172183793528
0.00354729488909526
0.00359830436751914
0.00364487970771951
0.00368715856402515
0.00372528261547231
0.00375939535034494
0.00378963805410732
0.00381615236304462
0.00383907939136012
0.00385856103455419
0.00387473980966824
0.00388775824810481
0.00389775629935386
0.00390486984791559
0.00390922572985391
0.00391094390780243
0.003910136434468
0.00390692045545008
0.00390142254328096
0.00389377201320542
0.00388409677136388
0.00387251291796663
0.00385912395425745
0.00384400625195811
0.00382721278309184
0.00380876917708157
0.00378869879191437
0.00376703585211738
0.0037438161352772
0.00371907090241439
0.00369280364715236
0.00366497896035968
0.00363551071174359
0.00360429076845134
0.00357114900250899
0.00353584998605456
0.00349809567398992
0.00345740412545701
0.00341309039106948
0.00336424523264653
0.00330939701126988
0.0032466721875244
0.00317293179272527
0.00308453416994064
0.002966642437533
0.00288641189023425
0.00292718473741543
0.00299378532868739
0.0030560105397308
0.00309474748146129
0.00310884026437247
0.00310138997652994
0.0030771626679265
0.00302782153315943
0.0029496156017747
0.00284012144540046
0.00270195216216469
0.00252890488445725
0.00233304537085988
0.00212775049532112
0.00192208157105625
0.00171881648172935
0.00152981942908254
0.00136370487606377
0.00122617101095433
0.00110427682092671
0.00102718061210406
0.00096672209335719
0.000922953155327211
0.000738045760890392
0.000490955347313773
0.000297785912109123
0.000252774174927354
0.000364548770168543
0.000381794588809766
0.000276803779372192
0.00014759208722558
0.00010312917677946
9.55526036385021e-05
0.000103572871955691
6.65567439337083e-05
4.76283500718428e-05
4.38684475643659e-05
4.73868757344643e-05
5.69135493764566e-05
7.32635900434522e-05
9.74515281253128e-05
0.000133072611312577
0.000185171700278758
0.00025834537423072
0.000353957482575699
0.000470800532396184
0.000602721516703194
0.000738353803116275
0.000866850408479296
0.000982190846017066
0.00107532281233269
0.00114132245024178
0.00118987480152069
0.00124986245306909
0.00137904413764955
0.00166314081800946
0.00195205380966749
0.0021954274616455
0.00242041705784359
0.00261602937808016
0.00279637889452567
0.00295959226175102
0.00311093310447038
0.00325088738934753
0.00338156090825509
0.00350365124604655
0.00361812244208554
0.00372552973020065
0.00382581514088108
0.00391940561200152
0.00400677118419853
0.00408816397548305
0.00416377144736113
0.004233753172267
0.00429826069108971
0.00435744039674988
0.00441145033049578
0.00446045698947873
0.00450463085363171
0.00454414364647025
0.00457916398063373
0.00460986009191969
0.00463639898102945
0.00465894787251398
0.00467767412766889
0.0046927445314352
0.00470432254177076
0.00471256651096938
0.00471762440291457
0.00471963595866657
0.00471873182762441
0.00471504792427405
0.00470873042689529
0.00469992866617226
0.00468878988954158
0.00467544808759403
0.00466002259019204
0.0046426019526392
0.0046232475165689
0.0046019894786812
0.00457885457671226
0.00455388126026791
0.00452710983818396
0.00449857513029766
0.00446828065258086
0.00443618496212672
0.00440218797755989
0.0043661658930242
0.00432792181107584
0.00428718175808367
0.0042436063731639
0.00419663744272818
0.00414551489696797
0.00408922145822748
0.00402601010080389
0.00395373350205436
0.00386882419141126
0.00376704437234061
0.00363180594404584
0.00353735438793602
0.00357953192565175
0.00365772066761767
0.0037329804010096
0.00378322064849491
0.00380577868052359
0.0038038304281423
0.00378208676118959
0.00373084140761155
0.0036451210893868
0.00352212467719903
0.00336466410511505