/*--------------------------------*- C++ -*----------------------------------*\
  =========                 |
  \\      /  F ield         | OpenFOAM: The Open Source CFD Toolbox
   \\    /   O peration     | Website:  https://openfoam.org
    \\  /    A nd           | Version:  7
     \\/     M anipulation  |
\*---------------------------------------------------------------------------*/
FoamFile
{
    version     2.0;
    format      ascii;
    class       volScalarField;
    location    "20000";
    object      omega;
}
// * * * * * * * * * * * * * * * * * * * * * * * * * * * * * * * * * * * * * //

dimensions      [0 0 -1 0 0 0 0];

internalField   nonuniform List<scalar> 
15600
(
23353.0126883352
23273.9723182748
23091.4688751563
23031.1934978361
23244.1838526038
22377.1000125332
20260.5914717554
17599.9741883944
14932.2795041683
12496.2786019556
10399.6031395201
8766.62074478918
7518.66569234571
6543.21799305954
5765.84060129953
5135.77621984148
4605.53093772256
4125.93235405979
3690.42121541119
3298.28220100222
2948.54316500934
2642.38401499462
2390.9885359554
2195.26162364752
2049.77159296994
1951.64439603765
1900.22267858099
1896.51936386231
1906.37228440442
1906.3683827334
1906.36838273344
1906.36838273332
1906.3683827332
1906.36838273352
1906.3683827334
1906.36838273321
1906.36838273332
1906.36838273348
1906.3683827334
1906.36838273328
1906.36838273339
1906.36838273328
1906.36838273316
1906.36838273324
1906.36838273332
1906.3683827334
1906.36838273336
1906.36838273328
1906.36838273332
1906.36838273336
1906.36838273344
1906.36838273332
1906.36838273352
1906.36838273352
1906.3683827334
1906.3683827334
1906.3683827334
1906.36838273339
1906.36838273333
1906.3683827334
1906.36838273332
1906.3683827334
1906.36838273348
1906.3683827334
1906.36838273308
1906.36838273332
1906.36838273344
1906.36838273328
1906.36838273333
1906.36838273347
1906.36838273348
1906.36838273316
1906.36838273332
1906.36838273344
1906.36838273344
1906.3683827334
1906.36838273324
1906.36838273316
1906.36838273321
1906.36838273335
1906.36838273332
1906.36838273324
1906.36838273348
1906.3683827334
1906.36838273316
1906.36838273328
1906.36838273345
1906.36838273332
1906.36838273317
1906.3683827334
1906.36838273348
1906.37228440434
1896.51936386225
1900.22267858041
1951.64439603741
2049.77159297026
2195.26162364888
2390.98853595858
2642.3840149922
2948.54316500493
3298.28220100026
3690.4212154132
4125.9323540787
4605.5309377365
5135.77621985378
5765.84060128691
6543.21799304744
7518.66569235026
8766.62074480408
10399.6031395196
12496.2786019308
14932.279504147
17599.974188317
20260.5914716546
22377.1000126262
23244.183852668
23031.1934978468
23091.4688751587
23273.9723182952
23353.0126883352
3942.37300809163
3930.36000345269
3902.96378952658
3888.91207547578
3920.33829710184
3772.93466559862
3418.00380272315
2970.83449669913
2521.83088319129
2111.30127893635
1757.54926117299
1481.55111206755
1270.56081138801
1105.6811409995
974.335763042638
867.920376385947
778.449350641977
697.591292903976
624.13155365126
557.919758009457
498.80125578473
447.01166538779
404.42020417368
371.200183348571
346.512850278775
329.91478265169
321.389316092724
321.816500535244
323.995413027199
323.842101796125
323.815662042058
323.804530452203
323.803573204936
323.808442467599
323.817415686307
323.824895218488
323.828696930445
323.826169839418
323.816119166775
323.797582046219
323.770349212751
323.734332841031
323.68972075887
323.636753377004
323.575905001025
323.507798638047
323.433385521009
323.353443358424
323.268887740876
323.180640852784
323.089533356455
322.996392425678
322.901977323447
322.807003951927
322.712165261677
322.618076293557
322.525326566584
322.434430342246
322.345834572895
322.259951342494
322.177094957458
322.097569943499
322.021624110906
321.949495328293
321.88139212837
321.81744014279
321.757710113725
321.702182625701
321.650858922766
321.603635779375
321.560481643118
321.521334977801
321.48617266951
321.45501943697
321.427786597637
321.404380935535
321.384659335008
321.368502983076
321.355789772127
321.346524598493
321.34067386943
321.338289958191
321.33944808542
321.344354242604
321.353315717528
321.367036915037
321.386508157431
321.413301336174
321.450171795804
321.498694152005
321.561852483266
321.768537771968
320.482205211356
321.129091296018
329.762361153672
346.205758320753
370.692218576126
403.630573028489
445.936933355565
497.363364994917
556.149463004476
622.127726247666
695.540691442203
776.532457649321
866.406781880821
973.235202958806
1104.95532713158
1270.12535136894
1481.34468695831
1757.37472885108
2111.24758115417
2522.37135991752
2972.6464150138
3421.42169902666
3779.86288668661
3931.72152077293
3904.75560930153
3913.76532773126
3938.96492333548
3944.69864396298
1302.95512438398
1301.49055229606
1297.23956263869
1288.39324390442
1293.33250726012
1241.71506639476
1125.24745566604
978.698153592769
831.24333671845
696.181232876475
579.718146840122
488.745082932952
419.203941745946
364.90910702537
321.714067248175
286.74106643726
257.328628656926
230.728717705826
206.513183414512
184.614220006595
165.004134389072
147.832600631179
133.702508164943
122.653849310322
114.479300710778
109.10175101618
106.761095952552
108.343551178318
109.889720181491
109.77787584461
109.707409072299
109.643137282379
109.578621514136
109.515021989776
109.450416072707
109.379351741924
109.299879444741
109.209623005001
109.107972657462
108.994634739208
108.87018221849
108.735265646853
108.590795735183
108.437704570759
108.277309221627
108.111605706715
107.941725578668
107.768890508004
107.594473267782
107.419735884507
107.245773100676
107.073597044122
106.904092127107
106.738061046728
106.57623358253
106.419236204354
106.267631438939
106.121884488846
105.982372156727
105.849417493451
105.723243664243
105.604063080021
105.492033908379
105.387314367645
105.290016626129
105.200148029996
105.117652386629
105.042380371298
104.974206144096
104.912915669877
104.858386576393
104.810485914704
104.769156149569
104.734364866916
104.705951837181
104.683740230127
104.66749626959
104.657035989312
104.652201414061
104.652998396752
104.659409072449
104.671536342371
104.689540362001
104.713794522055
104.744883837976
104.784018147776
104.83289381746
104.894400924196
104.972699877602
105.072210534088
105.198140618022
105.440843549909
105.179547100348
105.245969191096
107.971890835053
113.183026060624
121.063462540971
131.691174074917
145.374605278636
161.999055117484
181.111761841315
202.679506649158
226.859855842624
253.736746808029
283.86257991993
319.649247362775
363.641791406313
418.652746331057
488.835859640792
580.226815420286
697.241165900278
833.685350528849
983.636491520159
1133.56902854575
1255.91129649831
1315.06411801518
1318.31084398172
1320.90498508527
1318.89906396305
1308.30245110768
608.524815006971
609.078480147063
611.300208840569
601.321487923698
596.368642229573
568.615609521816
514.911222847403
448.207261288143
380.927015354811
319.194457272355
265.962742690912
224.358645339351
192.567970921136
167.802498292233
148.156106527278
132.269046226143
118.879346854838
106.73204166767
95.6177053936613
85.4963293544805
76.3927394925445
68.4497707404646
61.9328318138434
56.8540427962975
53.1945333920677
51.0169749886234
50.6853126561203
52.7233739788975
53.9042881497558
53.5321914242393
53.2170909568788
52.9160424003862
52.639702274179
52.3856894030727
52.150920140462
51.9271732546258
51.7113908905981
51.4997522694191
51.290914904308
51.0837864745787
50.8782985195953
50.6744233817252
50.4724797960384
50.2729395734336
50.0771595442623
49.88553060887
49.6979500639807
49.5150550494119
49.3373712531867
49.1653365103953
48.9992616539522
48.8394012318336
48.6859332447549
48.53900647284
48.3987361908287
48.2651959961887
48.1384356215253
48.0184646971419
47.9052564281629
47.7987731192845
47.6989381096606
47.6057006775878
47.5190004512117
47.4388107619164
47.3650815225985
47.2976940043329
47.2364995257131
47.1812953142781
47.13191329613
47.0881400705436
47.0498515912208
47.0169336222655
46.9893579736469
46.9671034246171
46.9500525277504
46.9380751989848
46.9309971246821
46.9286993456162
46.9310985750951
46.938256005939
46.9502243702062
46.9671678078308
46.9893198999104
47.0171383942575
47.051314873756
47.0931953100132
47.1446661154294
47.2090329736808
47.290757591959
47.3958643374649
47.5310498234866
47.7674126000435
47.7328026896094
47.6218027011696
48.7529412498543
50.9564768477253
54.3745066111821
59.007210121059
64.9896888401616
72.2571574256918
80.697218669932
90.3175956575541
101.255281419975
113.596514798506
127.720344959722
144.564718244086
165.228838254742
190.984846119386
223.72824284269
266.069817953546
320.117270308447
383.612086030226
454.041523977502
524.984583083861
585.22484053163
621.096913017454
637.542264342092
645.088168619964
636.536988634198
618.018539160288
352.432922388089
351.610218163904
356.674903412529
344.704956279948
332.873628628201
313.093359181104
282.945861372787
246.60573385924
209.777725044002
175.909614392316
146.723859699198
123.924793389325
106.525693570186
93.0342591451919
82.3872379816955
73.7897947841047
66.4994872583455
59.8293823583122
53.6603899889208
47.9779956654761
42.8498033248725
38.4234425579242
34.8362403659114
32.1055240344521
30.2951379298986
29.5273769687439
30.1172784623096
32.072061632666
32.6006624549762
31.7836300217799
31.1981005844513
30.6921219647634
30.2826766382153
29.9393934351514
29.6504317329294
29.3980963078954
29.1746755056485
28.972077388122
28.7861984161762
28.6134792401233
28.4518901207772
28.2997175950195
28.1559324526341
28.0200223816205
27.8914398006678
27.7687601450788
27.651608030521
27.5398437586245
27.4332654503546
27.3316874150927
27.2349059571266
27.142736061993
27.0549956125265
26.971532242514
26.892208012006
26.8168964240204
26.7454825115496
26.6778536271376
26.6138962616029
26.5535095776783
26.4965883878686
26.443061569906
26.392866894138
26.34597974146
26.3023647812769
26.2619480021498
26.2246435923942
26.1903350129727
26.1589308235845
26.1303143343793
26.1044282146577
26.0812239537043
26.0607174961553
26.0429207386768
26.0277848585108
26.0152524288234
26.0052333839923
25.9976750500663
25.9925465070272
25.9899104197105
25.9898236018816
25.9924117246183
25.997851330429
26.0064882906757
26.0188283901568
26.035880794496
26.0590701930848
26.0909834926479
26.1350753482408
26.1965741464689
26.2814009614929
26.4438803616264
26.4460449146276
26.3159643309016
26.879180298861
28.0019321808216
29.7709154355133
32.1681908137322
35.2549230494598
38.9885958243103
43.3499325191532
48.3527246958909
54.1031900014702
60.6803879011409
68.3882621946921
77.6792252733499
89.1316844658499
103.445191967278
121.673273536605
145.116056368781
174.908914823297
210.204424611868
249.905846952128
290.056936641762
325.496258512225
350.75736797464
374.261461701819
391.616879930352
387.237857337164
366.339645691532
237.837709755469
234.06065533617
241.256857999336
228.622295261376
210.378421040475
193.128128621109
173.846662895636
151.849291923179
129.348005531029
108.584811411847
90.7196213127793
76.7908128683736
66.191104936711
58.0360422545455
51.6480290094832
46.4839026278473
42.0395879632386
37.8998180160436
34.0013260607633
30.3643083841789
27.0962385905427
24.3424711389903
22.1744542128903
20.6160391115318
19.7540565336446
19.6996770182869
20.6140068641904
22.1302234378883
22.0111924505569
20.9736859902811
20.3623901338566
19.8746009272094
19.5249990177907
19.2529148131628
19.0425458804321
18.8707448451913
18.7286150951756
18.606775329119
18.5006631077811
18.4062497382534
18.3212074446935
18.2436021842912
18.172256309525
18.1063827371695
18.0444077470509
17.9855090379516
17.9295064175089
17.8761450105146
17.8251958237229
17.7764635367355
17.7297658580624
17.6849498512056
17.6418800166791
17.6004528455775
17.5605813012117
17.5221944673867
17.4852325878508
17.4496423445072
17.4153729230943
17.3823836694962
17.3506348229541
17.320110664056
17.2908030288344
17.2627301190819
17.2358999327766
17.2102942051282
17.1858866068271
17.1626292716862
17.1404875372651
17.1194093293104
17.0993778425792
17.0803804597067
17.0624473036277
17.0455983978089
17.0298136994794
17.0150659009138
17.0013027369597
16.9884939501023
16.976619634623
16.965715500773
16.9558106706404
16.9469702609236
16.9392912476797
16.9329875097184
16.928366947431
16.9260907890325
16.9271031435264
16.9331860039957
16.9467081193068
16.9715213487791
17.0120923043144
17.1086981639313
17.1087757540649
17.0037362615217
17.3306959641592
17.9991236472964
19.054165496366
20.4774738992664
22.2951493748911
24.4751843984294
27.0166311840239
29.9262059934377
33.272316570284
37.1085108524723
41.6575676629258
47.1726701236518
53.9955485009885
62.5569389524026
73.5216326060062
87.6097000815724
105.456469315716
126.743607562272
151.087698531012
175.627552193765
197.852213291
215.417769159523
240.472799766529
266.819247841882
272.596739352879
254.762107990179
178.294494898632
171.495574220733
180.797598332246
169.958622351128
145.887657011265
128.470196775042
114.84620575771
100.684933964322
85.9458498774708
72.2725430771057
60.5401977998771
51.4256170812423
44.5237643960904
39.2719747474791
35.188839003465
31.8555578564879
28.9001807452331
26.0680122824293
23.3473830459823
20.8004841203904
18.5609619850475
16.7513020919113
15.3941713915536
14.5080999256961
14.1652182048283
14.4309750019333
15.3239462108579
16.3403391068489
15.8573476317405
14.9093424327915
14.4384116184905
14.0741450180129
13.8402588292426
13.6666138892632
13.5427869587291
13.4470668677132
13.3730648323802
13.3128523870728
13.2630994085836
13.2206109374484
13.1836838564375
13.1508694653691
13.1213530801469
13.0941306021471
13.0681314887604
13.0431126972335
13.0189794627935
12.995570260555
12.9727645970141
12.9504620957455
12.9285742435123
12.9070326708834
12.8857815218911
12.8647867350526
12.8440237160649
12.8234784685857
12.803142541734
12.7830108022387
12.7630785923763
12.7433467665237
12.7238168706282
12.7045062494429
12.6854369084006
12.6666479698743
12.6481678398162
12.6300048254834
12.6121601058297
12.5946184181991
12.5773711229786
12.5603968733535
12.5436966546393
12.5272735914638
12.5111598206285
12.4953754098988
12.4799115270121
12.4647530578894
12.4498658627189
12.4352299606609
12.4208312826959
12.4066913904589
12.3928265951324
12.3792736684248
12.3660929897938
12.3534323934171
12.3415039405308
12.330783836372
12.3219608600698
12.3163565457635
12.3157269072049
12.3230647723533
12.3419992296329
12.4036934898762
12.4032151627686
12.3214275166651
12.5311557273102
12.9757047674146
13.6778156979469
14.6220716708692
15.8180827811187
17.240171442854
18.8896187852338
20.7677229373471
22.9161270011511
25.3662188949615
28.2725536597296
31.7850412090027
36.1099293164102
41.5151802053387
48.4332011746354
57.2862254911498
68.4338486624002
81.7324614528821
97.1595935003322
112.559902609072
126.720574107132
138.194707845623
160.05142972421
190.288422781017
206.809485600354
195.704559319078
142.282115279087
133.409741850998
144.51114364543
137.922002256081
109.543104116064
90.2070906915294
79.654937065361
70.2429014171885
60.1519137159976
50.7138199462605
42.6504398357036
36.4186366932687
31.7334821426608
28.2140701972888
25.4845318654756
23.1964135181465
21.0718612903249
18.9743110361255
16.9434761563862
15.0740703369727
13.4963114788353
12.2895151713537
11.4396012219174
10.9565715361061
10.8886907154788
11.257679532545
11.9969110729594
12.6214159903917
12.0355815582151
11.3004369464437
10.9785720284819
10.7280689688311
10.5834676201947
10.4790890258504
10.4114090956879
10.3621514616226
10.3276457976248
10.3017065593967
10.2822054264877
10.2667901651662
10.2543369025846
10.2438365048579
10.2346985531886
10.2259706681695
10.2172060186117
10.2083359080435
10.1993169198299
10.1900675515049
10.1805415801228
10.170701358058
10.1605168199442
10.1499702645811
10.1390516053341
10.1277648663823
10.1161187553665
10.1041282428684
10.0918103711566
10.079183194056
10.0662639678385
10.053072796843
10.0396301809982
10.0259675128606
10.0121191231681
9.99813053305702
9.98403672491629
9.9698564935104
9.95560215695699
9.94127312816954
9.92687222001116
9.91239288358919
9.89784405192123
9.88323624352688
9.86860051672298
9.8539558520336
9.83929895505218
9.82462122564949
9.80989970643042
9.79512184102793
9.78027984278987
9.76539129814345
9.75047079132928
9.73554703557708
9.7206699469188
9.70596135150942
9.69159683954168
9.67796571423524
9.66563800158124
9.65569661796878
9.64959121031205
9.64985102429565
9.65973812787355
9.70475024766157
9.70687366418701
9.64173807926381
9.78458332953772
10.102469818546
10.6070617388024
11.2856653817572
12.1400112625084
13.1489320676787
14.3134487345104
15.6325688565771
17.132340398851
18.8310386512684
20.8377556889167
23.2465697157792
26.1850323041079
29.8207356365498
34.4375737512578
40.2861647508011
47.5659827997024
56.1695635950726
66.2241747838362
76.1097033413886
85.2994972636468
92.5034343217685
109.010810917097
137.303862184066
161.085440303927
157.707051442231
117.180600231404
107.549149825477
119.672401178032
118.91782449805
88.561426837727
66.1624092529923
57.1227740915536
50.7934225169536
43.6963847689881
36.9817715116585
31.280730380084
26.9029559685695
23.6401357435099
21.2174028253772
19.3199535826986
17.6523625003792
16.0213671758256
14.3859355174115
12.823047826032
11.4337958642612
10.3188257959032
9.51398165980668
8.98687357932165
8.74318361740703
8.8111791033731
9.18227600476479
9.75355461296647
10.1189744301548
9.56501295351931
9.03264632101333
8.81766919189261
8.64697506369994
8.55882234529236
8.49649408803291
8.46117457766691
8.43777772169395
8.42449816690926
8.41649700625986
8.41245226796619
8.41061021468037
8.4102264213841
8.4105877560636
8.41115628957425
8.41127330683426
8.41078121249025
8.40966611541157
8.40791328082287
8.4054887917358
8.40238567798308
8.39859914557106
8.39412917255608
8.38898348501075
8.38317452462302
8.37672416373647
8.36965642827212
8.36199903405542
8.35378005745485
8.34502740441032
8.33576772684498
8.32602921679767
8.31584043505598
8.30523791257435
8.29426018356623
8.28295317203459
8.27135284288564
8.25948175733631
8.24735662924837
8.23498387809793
8.2223717023778
8.20952138308347
8.19644573054422
8.18315910227553
8.16969084542974
8.15605891658356
8.14226335074352
8.12829976465049
8.11415302583796
8.09981648663853
8.08528824755922
8.0705860814271
8.05572690897823
8.04073934730932
8.02567288417554
8.01063995902571
7.99580373959685
7.98150995266133
7.96826995217493
7.95703156305532
7.94908703889851
7.94669420556126
7.95292622486827
7.98947344516696
7.99495519605392
7.94200541980305
8.04307792504493
8.28172517228135
8.66412879284039
9.17978474893258
9.82652882645378
10.5866010505976
11.4605348373824
12.4466694702072
13.5620885515929
14.818003903942
16.2945613679175
18.0550488501438
20.181928963399
22.7833483977762
26.0515949940988
30.1384161734248
35.1541480667971
40.9913436363882
47.8221869108061
54.4182203537934
60.6183885466028
65.1874657244575
76.7571160720101
99.66830888114
125.883702099855
129.073663596822
97.7800604191414
88.600117875269
100.74892169206
106.356839214482
76.549574508047
50.6217494846219
41.9715118639961
37.6908282944629
32.6207417110999
27.7567111726668
23.6626228146048
20.5407614630095
18.23366040383
16.5306213323363
15.1592753126299
13.8773671755734
12.5711920051047
11.2689676887852
10.0596778295962
9.02839529519024
8.24049974201049
7.70310827989258
7.38046149537971
7.27676721808034
7.40551567836624
7.7402689935129
8.1709810866803
8.37789418648789
7.90196609747267
7.52439521431256
7.37812816804871
7.26029537205815
7.20645328273479
7.16932532435735
7.15252773012178
7.14357881306646
7.14177729314261
7.14326093782997
7.14720140139127
7.15225060583487
7.15789592597992
7.16360391698012
7.16887370546977
7.1733235229469
7.17690558508627
7.17962397674724
7.18147975318506
7.1824654610536
7.18259357481251
7.18187566017985
7.1803265226314
7.17796613612329
7.17481762169047
7.17091071476886
7.16627604333095
7.16094645152173
7.1549543697363
7.14833152941912
7.14110836046129
7.13331621414887
7.12498690993598
7.11615838728019
7.10687004816384
7.09716614024118
7.08708166071923
7.07664029620408
7.06586048525486
7.05475234389153
7.04332690197824
7.03159007094169
7.01955677945628
7.00724358114974
6.99467815098473
6.98187762378301
6.96884430559741
6.95557685228768
6.94206595443902
6.92830970428977
6.91431120789824
6.90008973539105
6.88566545734728
6.87106938180886
6.85635358414236
6.84162730120326
6.82704984581833
6.81294171806142
6.79978064044289
6.78843352961594
6.78009659464698
6.77683729329272
6.78160418274583
6.81325641663779
6.82171131679489
6.77817190105654
6.85157080837091
7.0369535880034
7.33785030256887
7.74550151695602
8.25579693547996
8.85362520845084
9.53910385026061
10.3105543011901
11.1796883474903
12.1539280585584
13.2944839365555
14.6468447214799
16.2670264923292
18.2278422703567
20.6651633516725
23.6740877893213
27.3177525030893
31.4872329878616
36.3588947601289
40.9817764106663
45.3834042767144
48.4166990492613
56.4279017240272
73.4191114240757
98.1840285219313
105.731199452488
81.9039261184632
74.0476304667286
85.2584043498176
96.9566063108218
69.8478278310073
40.6327108175739
31.502686843816
28.5252017559288
24.861574876592
21.3034343580888
18.3459090704356
16.1060444942443
14.4606973648739
13.2414112917507
12.2133451709657
11.1902727454503
10.1253966445234
9.085822404342
8.15208120964417
7.38634143670126
6.8269007764002
6.46681239245243
6.2738932079321
6.25130719118992
6.40198663274794
6.69063007246707
7.01420895101328
7.12730386093721
6.73497089792436
6.46701694085461
6.3643394844161
6.28182739058413
6.24911895059007
6.22756278390456
6.22166717854171
6.22106675561169
6.2256594935424
6.23230700392402
6.24047613996204
6.24910121401526
6.25781268882529
6.26617547681018
6.27376827624277
6.28038508778915
6.28601945810818
6.29068148141278
6.29438101201584
6.29712516439543
6.29893567585493
6.29983209055257
6.29983641471558
6.29897439355175
6.2972740874652
6.29476842650647
6.29149062590685
6.28747526473528
6.2827561976214
6.27736638810692
6.27133762190223
6.26470232221377
6.25749351071391
6.24974908009586
6.24150803777714
6.23281245659066
6.22369586357587
6.21418210261208
6.20429032345755
6.19403286587175
6.1834224910653
6.17246817231057
6.16118616601333
6.14959441290633
6.13771913878641
6.12557684316064
6.11317151681252
6.10050416020199
6.08756996877297
6.07437085826933
6.06091402591512
6.04722045252986
6.03331335763721
6.01922654888506
6.00501508625521
5.99078706479946
5.97670045636351
5.96305843047612
5.95031946016639
5.9392945588259
5.93110363195363
5.92766359764601
5.9318249556286
5.96017108031387
5.97089250977332
5.93491779040669
5.98923464179388
6.13689755270396
6.38027690026844
6.71202880413771
7.12711290132807
7.61252257438666
8.16804247980354
8.79219288209031
9.49330355903009
10.2767299946534
11.1907409337106
12.269916010237
13.5541052871241
15.0944759723665
16.9911128939386
19.3060576888796
22.077958363976
25.2006127660206
28.8405141065511
32.2436583017441
35.5295430156167
37.6608892431291
43.3463954893835
55.4600739394383
76.7242384183355
86.3849147122492
68.6330436613691
62.5781149413303
72.0538896153851
89.0853240173615
66.2008572995999
34.4691315229221
24.2339588542926
21.9647783238043
19.2729350995606
16.6538280525895
14.5190301882394
12.9125661834663
11.7342763296402
10.8471857356181
10.0535016025537
9.22062031984503
8.34966681345324
7.52167090545257
6.80041190459919
6.2287308829581
5.82806524492268
5.58629400187332
5.47646546509404
5.50032587792126
5.65354581944002
5.89778844975548
6.14249282548654
6.20100142821505
5.88348128660362
5.6915284088491
5.61726623494948
5.55904629797948
5.5397847863815
5.52829287471844
5.52907804896584
5.53352355396117
5.54181853224325
5.55138164615367
5.56185494645697
5.5723778044372
5.58267326126111
5.59235717488175
5.60111207940908
5.60882802842649
5.61551333832062
5.6211801442361
5.62584327778767
5.62951785857127
5.6322297419996
5.6340022387172
5.63486076552564
5.63483369544876
5.63395128307572
5.63224753304261
5.62975646199334
5.62651295027298
5.62255107008167
5.61790397767055
5.61260383398964
5.60668331594162
5.60017581938034
5.59311872103817
5.5855502636337
5.57751046031582
5.56903142337183
5.56013687831796
5.55084636022602
5.54117376951982
5.53113312888132
5.52073565897316
5.5099985867279
5.49894082918983
5.48758742373288
5.47595439092993
5.46404705030546
5.45186830096722
5.43941692741746
5.42669796292406
5.41372190609158
5.40051128129553
5.38709183611856
5.37349986253508
5.35979291024186
5.3460784173865
5.33251322612025
5.31938841429845
5.30715123883936
5.29656159091963
5.28867505554989
5.28528186925457
5.28913948117682
5.31491011742178
5.32718671836126
5.29744393357979
5.33823253101067
5.45813106453302
5.6591562006437
5.93513914452694
6.28066889880804
6.68444367019141
7.14597950006525
7.66403845903166
8.24472886331303
8.89226546685452
9.64568996858856
10.5324929216606
11.5821982402896
12.8322104463871
14.3589853855579
16.204700580069
18.3953505532142
20.8304603102755
23.6621342168548
26.2789128187328
28.8400796085605
30.4191438945244
34.6065473648657
43.200155370318
60.4618243514743
70.5576885975749
57.5378651792188
53.4221902173495
60.6050271253176
81.9410133685486
64.2107492966235
30.9779023349843
19.2626882735059
17.2254929975437
15.1827348003599
13.2378655464079
11.7028356420476
10.5558233498037
9.71099346495942
9.05699881692431
8.43167290195253
7.74806631608791
7.03651044041554
6.3770496555872
5.81712635860328
5.38637901809364
5.09669747310213
4.93497343690321
4.87897910260821
4.92875931674493
5.07527711978282
5.28064971012849
5.46788783382978
5.49524636521523
5.24042899856885
5.10126091409011
5.0463810510526
5.00543093226349
4.99508617455681
4.99043054172562
4.99551036994714
5.00317290556488
5.0137176611976
5.02500639200328
5.03678435717247
5.04834568120705
5.05947425130515
5.06982123479061
5.07916678739115
5.08745053064563
5.0946853115399
5.10088404918662
5.10606442823971
5.11024593850438
5.11345598015793
5.11571952544987
5.11706353684642
5.11751752383583
5.11711266202978
5.11588313530548
5.11386303798209
5.11108703247249
5.10758899908506
5.10340195746727
5.0985581229114
5.09309018319204
5.0870316421567
5.08041932239274
5.07329071908794
5.06568412384399
5.05763049244716
5.04915344582605
5.04027286901439
5.03100393549255
5.02136174568867
5.01135932694946
5.00101472560838
4.99034762974423
4.97938214114396
4.96813393416161
4.95660942691098
4.94481311380856
4.93274671031261
4.92041782649765
4.90783962309951
4.89503589500286
4.88203436175017
4.86887327811137
4.85561194374066
4.84235705336357
4.82926413799094
4.81661778446318
4.80485119723495
4.79467679790059
4.78709518354105
4.78378339087278
4.78740218596628
4.81094269525742
4.82415363296423
4.79961808803014
4.83062944542983
4.9294846341551
5.0982798381204
5.33184239773841
5.62471123495846
5.96698858539359
6.35797109539627
6.79664270427675
7.28760604957138
7.83444794946425
8.46938939562522
9.21505710306858
10.0941039290247
11.1348683494727
12.3975733501468
13.9121107367265
15.6979686151938
17.6617512926678
19.9400893103271
22.0273079840921
24.0942917805056
25.3167952941679
28.5136639126357
34.7043944489712
48.3149076778532
57.8681095080814
48.3424836877736
46.063873154678
50.6814060877346
75.1411107309996
62.9914759408065
29.3324201404057
15.9696456791917
13.8064996648859
12.1708383529606
10.7005038232056
9.59917120813738
8.78518897931283
8.17964711004794
7.69230504845658
7.19292692442256
6.62989311613092
6.04849596725703
5.52125358591564
5.08293354863522
4.75490665829968
4.54377916514146
4.43708217662274
4.41627782199418
4.47970125236012
4.61553495618555
4.78826875798525
4.9336650450773
4.94389713755214
4.7402809420784
4.63823445280592
4.59728612045571
4.56901795957624
4.56487326811805
4.56510702547421
4.57310796837906
4.58295655197586
4.5949609169724
4.60734375916877
4.61991051024244
4.63207586011274
4.64366338681411
4.65436070772827
4.66402335104503
4.67261700484619
4.68015529570249
4.68665161368102
4.69212531075218
4.69659823208145
4.70009807864893
4.70265046300558
4.70428301479507
4.70502572479817
4.70491015674023
4.70397037783154
4.70224035168229
4.69975443625599
4.69654628399554
4.69264877699865
4.6880941707047
4.68291518540149
4.67714542907092
4.67082131942297
4.66397978796324
4.65665780802397
4.64888549773492
4.64068650604628
4.63208115498686
4.62308578580036
4.61371652796779
4.60398797244449
4.59391893696734
4.58352978855279
4.57284392608058
4.5618767925794
4.55063574997986
4.53912667397494
4.52735372564569
4.51532667689718
4.50306084612787
4.49058102062658
4.47791639372746
4.46510664813544
4.45221208196796
4.43933836558838
4.42664160883226
4.41439956455702
4.40302763093173
4.39319638337299
4.38585660389493
4.3825808214964
4.38592651061373
4.40740634295721
4.42103708045544
4.4008840794259
4.42473633298725
4.50727837065884
4.65090621093779
4.85130619967374
5.10315517769438
5.39772831545622
5.73414233710994
6.11156579238553
6.53356086332973
7.00337834662335
7.54804404828408
8.18667983767599
8.93719738562743
9.82177644462099
10.8890913223893
12.1612670006633
13.6545081704104
15.2827767422122
17.1674657531488
18.8833701815838
20.5977669731389
21.5775500153384
24.0920183595826
28.6652366950554
39.2715375129232
47.8559173187346
40.7984923936753
40.112453402212
42.1906742837061
68.5165371083393
61.9580427827817
28.9354834437395
13.9038429503999
11.3597016030901
9.95315277573243
8.80557326634943
8.01153798148501
7.43683191385044
7.00295630911828
6.63633935001733
6.23352607060812
5.76837693904045
5.29196082421131
4.86754973779061
4.52100957433212
4.2685934456349
4.11391207007758
4.04560961267206
4.04788334027826
4.1175574854334
4.24143819860668
4.38731275720811
4.50216297579669
4.50370595673135
4.34151788629008
4.26606708320239
4.23567149338043
4.21700775229959
4.21740762732227
4.22132619738133
4.23145073412412
4.24290108092097
4.25594083138946
4.26909124665187
4.28219251977893
4.29475589177442
4.30663100650769
4.31754525434022
4.32740752268709
4.3361976113208
4.34392878753102
4.3506149263754
4.35627640083953
4.36093631367155
4.36462212352876
4.36735963272371
4.36917677775042
4.37010380883663
4.37017252615138
4.36941688235836