/*--------------------------------*- C++ -*----------------------------------*\
  =========                 |
  \\      /  F ield         | OpenFOAM: The Open Source CFD Toolbox
   \\    /   O peration     | Website:  https://openfoam.org
    \\  /    A nd           | Version:  7
     \\/     M anipulation  |
\*---------------------------------------------------------------------------*/
FoamFile
{
    version     2.0;
    format      ascii;
    class       volScalarField;
    location    "20000";
    object      p;
}
// * * * * * * * * * * * * * * * * * * * * * * * * * * * * * * * * * * * * * //

dimensions      [0 2 -2 0 0 0 0];

internalField   nonuniform List<scalar> 
15600
(
1.17672044760512e-09
0.0236423882367981
0.0109941933997058
0.0785710939333059
0.114350521897544
0.13792303597766
0.146496668042916
0.155069017600204
0.158771050462324
0.162734166148137
0.164888872236851
0.1670891594899
0.168701022820327
0.170280753421223
0.171641394169403
0.173044722940529
0.174556970225452
0.176251086158102
0.178140762511822
0.180232254419766
0.182463821216466
0.184632021949877
0.186671495803612
0.188550858414912
0.190160981208772
0.191340659819188
0.192365529559207
0.191756822420479
0.191472033928274
0.192351519678953
0.193855085278071
0.196180660319472
0.199180622402622
0.202822784427198
0.207025375603986
0.21174127423551
0.216918970544462
0.222519957164633
0.228507678113542
0.234850725324305
0.24151918553688
0.248485410634521
0.255722793040967
0.26320589831293
0.270909885181267
0.278810521026619
0.286883855460115
0.295106349088137
0.303454874521022
0.311906960895424
0.320440961528831
0.32903615601209
0.337672891464555
0.346332580159626
0.354997780283627
0.363652205291996
0.37228076201743
0.380869551969928
0.389405897742495
0.397878290101168
0.406276415478102
0.414591018945063
0.422813938873337
0.430937943643266
0.438956744425106
0.446865050676029
0.454658471364162
0.46233355824313
0.469887581965515
0.477318587664313
0.484625106732964
0.491806226653494
0.498861335428275
0.505790189362482
0.512592993087288
0.519270303530681
0.525823114690904
0.532252634824864
0.538560341412249
0.544747726250323
0.550816482143712
0.55676833001358
0.56260521865446
0.568329103213448
0.5739422593543
0.579447070646559
0.584846098456784
0.590143663454396
0.595341985875169
0.600453733692838
0.605474132105254
0.610450919690508
0.615263307759538
0.620328279211138
0.625320208852422
0.630617135965587
0.635937540345241
0.641415069744046
0.646813879643097
0.652083770042608
0.656696691013134
0.660319399274465
0.662289811727552
0.662270384254971
0.659640645360552
0.654921691280279
0.647736413647341
0.637599908811399
0.62330869513868
0.603431813947446
0.573598029519671
0.52706272822056
0.456106423105384
0.359998747606157
0.21549147881893
0.0436809497336872
-0.146181820403522
-0.161523323790975
-0.125366945488302
-0.0251848006582574
-1.64840533208889e-05
0.0236535967599815
0.010992666243121
0.0783027981434768
0.114060998771181
0.137705247838003
0.146366248507913
0.154975584903858
0.158721359488501
0.162702103582809
0.16487999306703
0.167090013838868
0.168712816504421
0.17029904077529
0.171665299742063
0.173069309318
0.174579246816413
0.176269052277204
0.178153659796601
0.180240695787635
0.18247191672868
0.184644160583568
0.186688385009168
0.188572123132679
0.190185664039041
0.191364919501311
0.192387738653861
0.191772862619805
0.191493936692947
0.19237816205299
0.193884305462409
0.196212928422781
0.199215321380263
0.202859518372623
0.207063637200485
0.211780629722604
0.216958998821484
0.222560280279056
0.228547943484992
0.234890609305983
0.241558388392055
0.248523656635076
0.255759828528071
0.263241490653134
0.270943821381636
0.278842609103405
0.286913926859078
0.295134256758247
0.303480492434812
0.311930184318244
0.320461706430264
0.329054358163596
0.337688505339634
0.346345577799649
0.355008150066415
0.363659950621564
0.372285899948773
0.380872111772696
0.389405919438211
0.397875823040384
0.406271516991758
0.41458375319985
0.422804375830583
0.430926158266209
0.438942815463926
0.446849059324616
0.454640500086476
0.462313689775916
0.469865898692663
0.477295171095896
0.484600037510922
0.491779584527659
0.498833199681506
0.505760638088716
0.512562102419595
0.519238147124051
0.525789763419755
0.532218157210589
0.538524804205014
0.544711195186405
0.550779021910033
0.556730004596039
0.562566091726335
0.568289238996463
0.573901723479305
0.579405933712594
0.584804433479862
0.590101559420456
0.595299522629108
0.600411032760724
0.605431383844593
0.610408075211991
0.615225452396186
0.620307046092312
0.625317332387972
0.630632967128696
0.635971013129136
0.641463535111611
0.646871405905328
0.652138024033209
0.656730488517636
0.660314418282707
0.66223048212323
0.662145233125284
0.659453956409494
0.654679051326141
0.647428853614285
0.637208803508519
0.622805210122916
0.602752290142213
0.572635606413383
0.525718663404324
0.454394159506681
0.35785801969172
0.213165045078821
0.0417360384285004
-0.146711903205986
-0.161304672377362
-0.12519823136277
-0.0251511165506474
-2.83310978533764e-05
0.0236782371815246
0.011012946111202
0.078058421998095
0.113784058469945
0.137490225137142
0.14623485542511
0.154881413793206
0.158670489229679
0.162669382298464
0.164870395092137
0.167090599734993
0.168724408959379
0.170317392082736
0.171689388365884
0.173094228510168
0.174601739797296
0.176286851847285
0.178165654317742
0.180247139260682
0.182476640853409
0.184651637976235
0.186699702025974
0.188587410808545
0.190204349779757
0.191384435623448
0.192407225196534
0.191784690125183
0.191513565695175
0.192403397886445
0.193912136321835
0.196244035524422
0.199249019898343
0.202895408782838
0.207101132491865
0.211819253105023
0.216998278942546
0.222599806453637
0.228587334188427
0.23492952140143
0.241596505724365
0.248560691044114
0.2557955151542
0.263275586525946
0.270976106334312
0.278872893594267
0.286942048871209
0.295160074833091
0.303503885633641
0.311951054242381
0.320479976420697
0.329069972094613
0.337701426680778
0.346355788247971
0.35501564822404
0.363664750473101
0.372288029359031
0.380871610783881
0.389402838827603
0.397870222593421
0.406263464447394
0.41457332282793
0.422791647757865
0.430911217469235
0.438925750008652
0.446829959078869
0.454619455195579
0.462290790134631
0.46984123297409
0.47726882690466
0.484572101165534
0.491750141719045
0.498802335697232
0.505728436612237
0.512528644824342
0.519203511681748
0.525754025517177
0.532181389787329
0.538487079088254
0.544672583604522
0.5507395949511
0.556689833437244
0.562525248901449
0.568247799367122
0.57385976675941
0.5793635492117
0.584761717611488
0.590058637497287
0.595256507439177
0.600368115770878
0.605388944809524
0.61036557817819
0.615185958861856
0.62028359445957
0.625311679629181
0.630646084100211
0.636001488042235
0.641508695417333
0.646924732190335
0.652186925207551
0.656757444755503
0.660301562190112
0.662162823750847
0.662012674575166
0.659261127481206
0.654430635657284
0.647114711250148
0.636809907240955
0.622291801203467
0.602060812469602
0.571664337389684
0.524382145144745
0.452716394091846
0.355805909945233
0.211031905329932
0.040140224987013
-0.146839580180919
-0.160888524246548
-0.124991776119648
-0.0251096881282952
-2.84135424054273e-05
0.0237218657839067
0.011062693525306
0.0778345585995978
0.113525654862148
0.137287158136644
0.146108897924862
0.154790152076165
0.15862085593677
0.162637359748974
0.164860900436983
0.167091184528762
0.168735788159974
0.170335410032049
0.171712962032492
0.173118545944364
0.174623327140379
0.176303090781177
0.178174932761023
0.180249146129068
0.182474481938806
0.184649634718924
0.186699333762386
0.188589420680356
0.190208888102834
0.19139132878782
0.192414573833405
0.191783913702468
0.191525431554904
0.192422606008821
0.193935234876186
0.196271408321553
0.199279684910468
0.202928708459876
0.207136228703033
0.21185548897919
0.217035037173789
0.222636570321988
0.228623640101453
0.234964967056019
0.241630729087886
0.248593368486809
0.255826351268249
0.263304317371243
0.271002517339294
0.278896815202888
0.286963327055164
0.295178579047882
0.303519515544304
0.311963735819376
0.320489660618446
0.329076632918166
0.337705060130601
0.346356410429524
0.355013293544006
0.363659469550957
0.372279887042506
0.380860683808969
0.389389214160496
0.397853995160451
0.406244736354649
0.414552201670594
0.422768246369063
0.430885652686416
0.438898139815493
0.446800421022387
0.454588104349533
0.462257739094262
0.469806590707239
0.47723269985738
0.484534593318895
0.491711356328498
0.49876237571857
0.505687402563789
0.512486633755669
0.51916061608339
0.525710334184863
0.532136988876861
0.538442054833804
0.544627023285358
0.55069358809976
0.556643472559009
0.562478632330298
0.568201033825983
0.573812973288334
0.579316872555762
0.584715326280644
0.590012761143332
0.595211379021833
0.600324115921319
0.605346711122796
0.610324506020103
0.61514644943599
0.620257663077204
0.62530124837483
0.630652214620996
0.63602232452666
0.641541281479245
0.646961870841214
0.652215748672842
0.656761066646898
0.660263773125297
0.662070702930924
0.661858860517998
0.659051673040119
0.654168801728109
0.646788921499438
0.636400800626338
0.621769247024496
0.601363302943174
0.570701151277042
0.523089785912785
0.451136555919549
0.353945843147133
0.209257644415035
0.0391341278569807
-0.146295680137508
-0.160129844855242
-0.124712597634538
-0.0250661796614666
-1.61548568037615e-05
0.0237951055541157
0.0111650740146142
0.0776230485590707
0.113270096196166
0.137087062718193
0.145983466911778
0.154698029080392
0.158570467390251
0.162604658241104
0.164851181659176
0.167091839710685
0.168747546788359
0.170353966305486
0.171737150181751
0.17314340046377
0.174644885848611
0.176318100402477
0.178180976468454
0.18024498964275
0.182462188099694
0.184633383270748
0.186680988052855
0.188570310311687
0.19019056351279
0.19137638113673
0.192400115477012
0.191766738825357
0.191531177408904
0.192437791654652
0.19395649408622
0.19629865377341
0.199311166891789
0.20296325794285
0.207172546486959
0.211892598371939
0.217072067710516
0.222672818192009
0.228658495407003
0.234997917405876
0.241661325793809
0.248621219518874
0.255851107718626
0.263325702869803
0.271020331062213
0.27891087594347
0.286973477341688
0.295184714346063
0.303521574937462
0.311961694182874
0.320483525823099
0.329066442398715
0.337690879012659
0.346338328555748
0.354991422592817
0.363633939806229
0.372250844352702
0.380828286045733
0.389353628820791
0.397815396152533
0.40620330320312
0.414508117522492
0.422721698164521
0.430836829776034
0.438847229578076
0.446747606279551
0.454533560401915
0.46220163395417
0.469749083887759
0.477173944594074
0.48447473754211
0.491650546115952
0.498700756759261
0.505625116960824
0.512423817970845
0.519097399294296
0.525646839700327
0.532073336464752
0.538378365772199
0.544563423033068
0.550630208875715
0.556580455350511
0.56241613250999
0.568139227288314
0.57375206820925
0.57925712931459
0.584657062113992
0.58995641995394
0.595157445892495
0.600273366334527
0.605300057304088
0.610282434179845
0.615106528394345
0.620227508945079
0.625282235391497
0.630644903564952
0.636023831938446
0.641547920484408
0.646964857121386
0.652201138132127
0.656712450621299
0.660166914908728
0.661915476926652
0.661641887605766
0.658782608666753
0.653850240491197
0.646407012858649
0.635934546370279
0.621186373261453
0.600600999745764
0.569675953019794
0.521759701105927
0.449564975286356
0.352182339123362
0.207761049919281
0.0387011882724246
-0.144967054793808
-0.15887573087056
-0.124279183275782
-0.0250121724592298
1.24252003939589e-05
0.0239106778521107
0.0113510641491121
0.07743612858485
0.113010868389525
0.136887375627922
0.145857463419856
0.154604245370179
0.158518808822363
0.162570877559026
0.16484108064787
0.167092549570646
0.168759825590983
0.170373325941269
0.171762336997267
0.173169230908729
0.174666688758958
0.176331726091512
0.178182860802933
0.180232541631808
0.182436039300913
0.184597612609303
0.186638048510401
0.188522388610754
0.190141508799006
0.191331801131233
0.192355989695587
0.191732015278297
0.19153332233514
0.192451644547259
0.193979835935285
0.196330286137749
0.199347983507848
0.203003250864288
0.207213769250741
0.211933655342632
0.217111785186419
0.222710282611093
0.228692945870424
0.235028737683529
0.24168799500079
0.248643298934426
0.255868234434914
0.263337621439515
0.271026840275791
0.278911800218032
0.286968707939244
0.295174210062415
0.30350534824775
0.311939802473247
0.320456066568653
0.329033547908021
0.337652713519195
0.346295084078282
0.354943314975624
0.363581204365848
0.372193731805625
0.380767057840959
0.389288554009775
0.39774674734765
0.406131355820254
0.414433147682415
0.42264398349231
0.430756648086939
0.438764853168437
0.446663298192783
0.45444757047328
0.462114199157574
0.469660427143609
0.47708427814761
0.484384265065502
0.491559468194532
0.498609273811274
0.505533425291853
0.512332106490181
0.519005847190523
0.525555618321275
0.53198261311348
0.538288311529805
0.544474217869316
0.550542046204933
0.556493545873543
0.562330713480152
0.568055573470519
0.573670511147839
0.579178091289385
0.58458106759583
0.58988420757989
0.595089853003931
0.600211718101599
0.605245572971569
0.610237452645721
0.615065583742761
0.620190954451796
0.625249835521324
0.630616499727242
0.635994976299479
0.641513880377917
0.646914699605339
0.652119403967569
0.656583169119368
0.659978194218371
0.661660669478002
0.661322683944649
0.658413889530546
0.653434862908979
0.645928603313571
0.635369745157531
0.62049987905899
0.599727139750938
0.56853684997776
0.520335485249335
0.447942658544186
0.350453241446107
0.206477763644602
0.0387942989391157
-0.142832192139217
-0.157021762791999
-0.123602825599072
-0.0249264195438988
6.78125230086802e-05
0.0240807814105872
0.0116508291379411
0.0773015166119289
0.112743523739387
0.136687662267072
0.14573110880319
0.154509132622094
0.158465999061471
0.162536021848278
0.164830559623522
0.167093299051391
0.168772645818956
0.170393582147591
0.171788701200083
0.173196286806685
0.174688836851128
0.176343669292865
0.17817961412078
0.180209948791077
0.182393316906865
0.18453914353337
0.186567368976059
0.188442967731527
0.190059797486839
0.191255648935034
0.192279059711244
0.191680733296187
0.191533731175013
0.192466496261494
0.194008311467113
0.196368976432337
0.199392220908283
0.203050107690285
0.207260727699843
0.211978992036621
0.217154127219024
0.222748602536907
0.228726421424826
0.235056728925188
0.241709981171512
0.248658861263729
0.255877059907678
0.263339490464877
0.271021576237943
0.278899294327181
0.286948929096071
0.295147197482106
0.303471199631517
0.311898663810402
0.320408125996734
0.328979029250972
0.337591872915121
0.346228205175723
0.354870704449063
0.363503186963557
0.372110645743066
0.380679249533187
0.389196374614518
0.397650548290588
0.406031488280144
0.414329960514779
0.422537824764961
0.430647863895536
0.438653781154858
0.446550263140938
0.454332879669291
0.461998142964951
0.469543277795584
0.476966294125001
0.484265693911392
0.491440553696468
0.498490259987495
0.505414552198471
0.512213606226441
0.518887941057771
0.525438519191466
0.531866530258781
0.538173460684458
0.544360828332039
0.550430367391226
0.556383852783731
0.562223319262888
0.567950844364546
0.573568892329606
0.579080151740321
0.584487518863289
0.58979604717826
0.595008233971679
0.600138447007066
0.605182140766783
0.610187761109201
0.61502183126505
0.620146627750235
0.625202161871938
0.630564884187238
0.635933279404823
0.64143614692496
0.646807729310368
0.651966022565086
0.656367208264828
0.659689390061575
0.661295143794623
0.660886524972937
0.657926814400857
0.652900688453418
0.645329021374682
0.634678994814882
0.619679366271634
0.59870758545037
0.567244213786348
0.51877045997046
0.44621587963377
0.3486942212944
0.205323806110992
0.0393060836226876
-0.139975958937648
-0.15454131536666
-0.122611558674264
-0.0247804420890316
0.000164251051409002
0.0243155201461577
0.012084838515518
0.0772503959438009
0.112468131896077
0.13648676416359
0.145603954206733
0.154412807578063
0.158412076916675
0.162500044423051
0.164819566540645
0.167094084049519
0.168786082179469
0.170414934835454
0.171816575966909
0.173224980455054
0.17471159234599
0.176353879942731
0.178170851192234
0.180176720143195
0.182333920816447
0.184458794769194
0.186471029773896
0.188335458814352
0.189949422847557
0.191150786399712
0.19217053123409
0.191614617968456
0.191532110648747
0.192482177332169
0.194041407004507
0.196413372484364
0.199442086424003
0.203101807532922
0.207311390506967
0.212026708427521
0.217197434128418
0.222786436136953
0.228757956388115
0.235081344060338
0.241727187237328
0.248668284273102
0.255878430449515
0.263332618898283
0.271006333279532
0.278875634823586
0.286916884523561
0.295106870900917
0.30342275432783
0.311842311944775
0.320344121890584
0.328907662288944
0.337513464162033
0.346143102225864
0.354779276760194
0.363405820611707
0.372007738564765
0.380571205549756
0.389083600453927
0.397533448440995
0.405910464821464
0.414205410959206
0.422410144229844
0.430517443913134
0.438521002797216
0.446415492375794
0.454196462260474
0.461860405342235
0.469404525701876
0.476826817753002
0.484125770908868
0.491300457553131
0.498350264501531
0.505274927404357
0.512074614248978
0.518749832918194
0.52530153766271
0.53173091516655
0.538039460396379
0.544228708019344
0.55030041714634
0.556256394107878
0.562098719853586
0.567829535046231
0.573451397154954
0.578967137213205
0.584379818756435
0.589694814488621
0.594914814874076
0.600054903935478
0.605110137374171
0.610131797273739
0.614973193089323
0.620094860609639
0.625140916350778
0.630493502154263
0.635843962747066
0.641321677693641
0.646653016005572
0.651752307539552
0.656077562667579
0.6593141668701
0.660831951298415
0.660344097537875
0.657327668693706
0.652249152103565
0.644605202892242
0.633854731589964
0.61871260550502
0.597525018739084
0.565773319251741
0.51702799322961
0.444333997877149
0.34683518708476
0.204197858570684
0.0400874679862701
-0.136559482207906
-0.151486553615143
-0.121270940323734
-0.0245489263189768
0.000313605878550023
0.0246218561252175
0.0126603652878026
0.0773022608052293
0.112195288304107
0.136283960749184
0.145474650447694
0.1543149964061
0.158356907365845
0.162462797660344
0.164808010100324
0.16709491704753
0.168800289581635
0.170437728707862
0.171846470823257
0.173255886448328
0.174735428759956
0.176362746878478
0.178157112356897
0.180134013520777
0.182260153023675
0.184360176975832
0.186353812004732
0.188205393390094
0.189815484072663
0.19102083707918
0.192033861668814
0.191535298747359
0.191526423098203
0.192496522338957
0.194076421954294
0.19646042622223
0.199494655666535
0.203155727217658
0.207363548562345
0.212075052792902
0.217240428700858
0.222822981123623
0.228787215372701
0.235102701676989
0.241740169998948
0.248672538690505
0.255873702922011
0.263318735093445
0.270983201475064
0.278843247856394
0.286875312473489
0.29505625783734
0.30336330616559
0.311774284297017
0.320267813044409
0.328823405622372
0.337421624854344
0.346044071774227
0.354673468189083
0.363293662981087
0.371889671904552
0.380447675032973
0.388955052716001
0.397400326554555
0.40577320819621
0.414064452945144
0.42226591482591
0.430370368414459
0.438371494691583
0.44626394868742
0.454043258065674
0.461705894942812
0.469249040998516
0.476670673982794
0.48396926949814
0.491143895429101
0.498193938630517
0.505119131028966
0.511919632928067
0.51859594103037
0.525149001735354
0.531579999277171
0.537890438558378
0.544081873028062
0.550156089876316
0.556114930544834
0.561960527322208
0.567695089510613
0.573321275979809
0.578842067562234
0.584260707982136
0.589582891132039
0.594811524936033
0.599962373205448
0.605030122454657
0.610068590287666
0.614918191426918
0.620036360313458
0.625068270102328
0.630405987221149
0.635732271449632
0.64117739298929
0.646459588241812
0.651489708345582
0.65572802151055
0.658868194670815
0.660287948860162
0.659712261414376
0.656631624149343
0.651492879713732
0.643767146656472
0.632904096675544
0.617603534687333
0.596179848264795
0.564119167780879
0.515092358864502
0.442266731543285
0.344826059723983
0.203019298599553
0.0410048287496463
-0.132755672468665
-0.147957238372393
-0.119587720597193
-0.0242165408819687
0.000522039949903576
0.0250031745709729
0.0133750314597168
0.0774618659865055
0.111942669162307
0.1360814872359
0.145341325235228
0.154215012556612
0.158300184354054
0.162424053233385
0.164795780006611
0.167095858998739
0.168815530918869
0.17046245269712
0.171879021199334
0.173289665372263
0.174760979946926
0.176371030821505
0.178139596488691
0.18008386306437
0.182175135307333
0.184247270130244
0.186220133399892
0.188057092865209
0.189661422932415
0.190868546061466
0.191872955118678
0.191443933450379
0.191514399257779
0.192507245361058
0.194110804102859
0.196507659042364
0.199547786369281
0.203210114777983
0.207415854094513
0.212123064891836
0.217282514098662
0.222857978572118
0.228814252393735
0.235121145749267
0.241749540858056
0.248672476475653
0.255863949192965
0.263299127338053
0.270953666481463
0.278803798946257
0.286826043095504
0.294997338484677
0.303294971153941
0.31169681899685
0.320181546624868
0.328728702986049
0.337318883460679
0.345933715773362
0.35455594350727
0.36316943158568
0.371759206532615
0.380311453133727
0.388813552668964
0.397254022349665
0.405622569464902
0.413909942217427
0.422107990745499
0.430209484101024
0.438208090492134
0.446098447663429
0.453876060153305
0.461537378447798
0.469079560595183
0.476500566983579
0.483798858329438
0.490973497752142
0.498023871666084
0.504949708202368
0.511751160323614
0.518428713589821
0.524983307074738
0.531416122962417
0.537728677093313
0.543922542938347
0.549999537950824
0.555961541119444
0.561810739579111
0.567549414062643
0.573180329626632
0.578706617592491
0.584131708963288
0.589461600162538
0.594699438707987
0.599861567391575
0.604942379269451
0.60999760401428
0.614856023933211
0.619971303203647
0.624985421123121
0.630304365929143
0.635601154781344
0.641007225639936
0.646232643171968
0.651184961036081
0.655326974821138
0.658361409056389
0.659674388290123
0.659003082041018
0.655850719612601
0.650643372504909
0.642825829799205
0.6318375248129
0.61636197622352
0.594681343244149
0.562289862067889
0.512966845899008
0.440008718868286
0.342649124164845
0.201749920362677
0.041977317062942
-0.128698567692973
-0.144061479553231
-0.117594770197734
-0.0237766108752883
0.000791435496496119
0.0254596858579587
0.0142231629341452
0.0777230874176577
0.111727371375379
0.135886699270905
0.145202601234214
0.154111726915268
0.158241422979766
0.162383529316801
0.164782794657113
0.167097073226203
0.168832210282646
0.170489717374951
0.171914909391055
0.17332695888341
0.174788903920727
0.176379609441676
0.178119661158369
0.180028333226344
0.182081643051142
0.184123196037327
0.18607305874224
0.187893215983081
0.189489270590427
0.190696042827386
0.191691216553459
0.191341197000449
0.191494386934127
0.19251275060897
0.194142827821959
0.196553477438175
0.199600152877138
0.203263918241595
0.207467524921165
0.212170212984216
0.217323389343599
0.222891339935183
0.228839174951182
0.235136965775753
0.241755753272306
0.24866870408897
0.255849921258638
0.263274687458433
0.270918748325949
0.278758427264827
0.28677032609249
0.294931464498612
0.303219194314612
0.31161144593438
0.320086929080599
0.32862522927905
0.337206975478188
0.345813822695433
0.354428536790636
0.363034999011935
0.371618246749307
0.380164469404118
0.388661049012375
0.397096497932014
0.40546051876484
0.413743851858833
0.421938343234504
0.430036755790468
0.438032744244423
0.445920928631157
0.453696789609946
0.461356755642508
0.468897960292006
0.476318346238176
0.483616358402041
0.490791054988114
0.497841821350077
0.50476838167056
0.511570882040071
0.518249797024538
0.524806059047157
0.531240848621406
0.537555693302682
0.543752187338391
0.549832179973131
0.55579758930333
0.56165065977683
0.567393744425804
0.573029717256626
0.578561856187953
0.58399378234891
0.589331763855206
0.594579211220666
0.599752896518926
0.604847040968666
0.609918473031501
0.614786084143084
0.619899555773094
0.624892914002794
0.630189716964792
0.635452255388159
0.640813417080381
0.645975190442364
0.650842035941785
0.654879462078093
0.657799869147683
0.658998223374728
0.65822413458993
0.65499270414474
0.64970830870119
0.641789009393049
0.630663059354496
0.614996529206658
0.59303913788966
0.560296543698889
0.51066276197335
0.437569135581286
0.340309677748407
0.200385657227667
0.0429739063082305
-0.124468558878418
-0.139891617347948
-0.115333001123196
-0.0232270549840583
0.00112200915713494
0.0259891979901326
0.0151996987131041
0.0780754876313453
0.111557960346652
0.135711486451829
0.145059497234332
0.154003699151144
0.158179996166998
0.162340952063756
0.164769071570962
0.16709887258123
0.168850867395879
0.170520181328153
0.171954757373564
0.173368285553868
0.174819759085318
0.176389284983749
0.178098529091271
0.17996914876007
0.181981795105759
0.18399015442578
0.185914592405402
0.187715439436782
0.189300470750591
0.190505209351487
0.19149141185003
0.191227575210324
0.191465401646119
0.192512028458221
0.194171345035407
0.196596801682203
0.199650847492034
0.20331640463906
0.207518009784474
0.212216117283917
0.217362837011658
0.22292300019401
0.228862061868299
0.235150377130456
0.241759146253191
0.248661678029486
0.255832195005607
0.263246101838194
0.270879237595858
0.278708021801348
0.286709142851648
0.294859703501838
0.30313712311279
0.311519385883796
0.319985247956091
0.328514332301913
0.337087302555238
0.345685841719991
0.354292738558527
0.362891891090263
0.371468347854241
0.380008303002909
0.388499139418494
0.39692936441929
0.405288675891605
0.41356780580691
0.421758596105494
0.429853803050498
0.437847067334944
0.44573299119595
0.453507031019456
0.461165593259476
0.46870578647092
0.476125535605963
0.483423269036841
0.490598040043139
0.49764923217714
0.504576565434604
0.511380179621808
0.518060538554415
0.524618568829526
0.531055449673039
0.537372720964578
0.543571998092336
0.54965516307167
0.555624173917379
0.561481334036824
0.567229068051976
0.572870360458035
0.578408625899294
0.583847680360586
0.589194017817991
0.594451337842995
0.59963665386279
0.604744192273106
0.609830910476267
0.614707828904497
0.61982087934656
0.624791022873613
0.630062740383543
0.635286702428794
0.640597546782292
0.645689381028794
0.650463797539022
0.654389142706373
0.657187969703791
0.658264456768976
0.65738078960076
0.654062973562058
0.64869293323687
0.640661926808893
0.629386172505731
0.613513257070162
0.591260501093666
0.558148580047126
0.508191640022652
0.434960884707071
0.337821730015679
0.19893796913583
0.0439908808760471
-0.120105284070158
-0.135515901094129
-0.11284135062437
-0.0225683356742168
0.00151362277300229
0.0265881957800859
0.0163004837419783
0.0785082222132504
0.11142752949692
0.13556734692627
0.144917731531838
0.153889617742224
0.158115255955502
0.162296146449514
0.164754787044781
0.167101717851772
0.168872109936203
0.170554446146974
0.171999040951129
0.173413997681685
0.174853970017696
0.17640072875766
0.178077212186615
0.179907656285998
0.181877155733236
0.183849708602476
0.185746129574292
0.187524995659072
0.189096283822339
0.190297787978097
0.191275833422845
0.19110356527825
0.191426902482435
0.192504414333332
0.194195517686818
0.196636815900004
0.19969916994693
0.20336699531426
0.207566867514425
0.212260468596234
0.217400676730004
0.222952901652836
0.228882973220124
0.235161551857543
0.241759997422444
0.248651775915295
0.255811249321335
0.263213943737695
0.270835797691054
0.278653331552352
0.286643323165008
0.294782961069503
0.303049733582121
0.311421679794068
0.319877603510177
0.328397165985695
0.336961066719629
0.345551017442009
0.354149830523591
0.362741421320554
0.371310849945233
0.37984431562261
0.388329202392016
0.396754012581829
0.405108439604476
0.413383206736995
0.421570152135221
0.429662025065967
0.437652451802719
0.445536016992995
0.453308152669184
0.460965243667606
0.46850437330788
0.475923449103556
0.483220882271109
0.490395721313638
0.49744734712944
0.504375475193663
0.511180239726028
0.517862094111061
0.524421960084852
0.530861015979766
0.537180814469083
0.543382992117286
0.549469464199648
0.555442228758132
0.561303649172497
0.567056219933
0.572703034939045
0.578247633488732
0.583694030596176
0.589048886381138
0.594316221878619
0.599513068856696
0.604633893913299
0.609734689503974
0.61462078251934
0.619734987016218
0.624679874940475
0.6299239225775
0.635105339079439
0.640360830953312
0.645376902700767
0.650052519206771
0.653858945988978
0.656529232919968
0.657477076791149
0.656477275086862
0.65306570269322
0.647601206748085
0.639448431950381
0.62801078593713
0.611916474013074
0.589350715497837
0.555853145481899
0.50556314188342
0.432196100060865
0.335200360904471
0.197422185335333
0.0450345109476108
-0.115626772891511
-0.130979374701576
-0.110153605463811
-0.0218031116146441
0.00196581574671929
0.0272531107145371
0.0175203581286798
0.0790099260099047
0.11134489693754
0.135457831654457
0.144788751463318
0.15376903891632
0.158046733513331
0.162249116324818
0.164740280536519
0.167106149948634
0.168896510782571
0.17059297485203
0.1720480644567
0.173464302443768
0.174891852944915
0.176414491597996
0.178056526527123
0.17984489716938
0.181768905160959
0.183703032549414
0.185568740820178
0.187322924312546
0.188877905535081
0.190075398950637
0.191046449085138
0.190969703836852
0.191378610296607
0.192489452933677
0.194214692251564
0.196672868234224
0.199744549936141
0.203415210574939
0.207613729300909
0.212303005547953
0.217436754792573
0.222980994033661
0.228901959375802
0.235170634555579
0.241758544402113
0.248639325732316
0.255787498900908
0.263178711113359
0.270789006529591
0.278595010711611
0.286573593542062
0.294702031812704
0.302957883853055
0.311319244462803
0.319764966260053
0.328274749551267
0.336829330916304
0.345410451565984
0.354000948233672
0.36258475426607
0.371146941880577
0.379673715848927
0.388152461867272
0.396571677529747
0.404921052265536
0.413191300523287
0.421374257225777
0.429462664383112
0.437450133557457
0.445331232282429
0.4531013684374
0.460756905978985
0.468294903036754
0.47571325027134