/*--------------------------------*- C++ -*----------------------------------*\
  =========                 |
  \\      /  F ield         | OpenFOAM: The Open Source CFD Toolbox
   \\    /   O peration     | Website:  https://openfoam.org
    \\  /    A nd           | Version:  7
     \\/     M anipulation  |
\*---------------------------------------------------------------------------*/
FoamFile
{
    version     2.0;
    format      ascii;
    class       surfaceScalarField;
    location    "20000";
    object      phi;
}
// * * * * * * * * * * * * * * * * * * * * * * * * * * * * * * * * * * * * * //

dimensions      [0 3 -1 0 0 0 0];

internalField   nonuniform List<scalar> 
30950
(
1.03914775844147e-05
-1.64610414090973e-06
9.85133950488818e-06
5.40136952882412e-07
2.61343127775342e-06
7.23794325270749e-06
-3.20078825750487e-06
5.81413634390954e-06
-4.7837160712063e-06
1.58272022874776e-06
-3.7345593840323e-06
-1.04920867090198e-06
-2.9555672388385e-06
-7.78971704453511e-07
-2.40999813755024e-06
-5.45567750944466e-07
-2.15151750582471e-06
-2.58485116561916e-07
-1.92339609288542e-06
-2.28122605270999e-07
-1.87507638447419e-06
-4.83202964235194e-08
-1.92447960827906e-06
4.94023309122169e-08
-2.13963655606241e-06
2.15156469758471e-07
-2.5395225148429e-06
3.99886068396371e-07
-3.21527668546882e-06
6.75754588590649e-07
-4.15399237074643e-06
9.38716120890586e-07
-5.27913584718311e-06
1.12514391513387e-06
-6.51917442138622e-06
1.24003918947091e-06
-7.78063935186301e-06
1.2614658557745e-06
-8.89800923564465e-06
1.11737106913865e-06
-9.70179996212676e-06
8.03792011627439e-07
-1.02189548245738e-05
5.17156109483952e-07
-1.0418496752978e-05
1.99543098635377e-07
-1.01567483433868e-05
-2.61747307151749e-07
-9.48984566422676e-06
-6.66901632294336e-07
-8.61485529893026e-06
-8.74989369188869e-07
-7.90171793133563e-06
-7.13136405304699e-07
-1.16250856874466e-05
3.72336874155956e-06
-1.79318154335974e-05
6.30673080220561e-06
-2.33275120628461e-05
5.39569777767707e-06
-2.79135870083452e-05
4.58607619384825e-06
-3.17877080449714e-05
3.87412235811338e-06
-3.50771330394668e-05
3.28942634664997e-06
-3.78763775482437e-05
2.79924584241595e-06
-4.02778192749765e-05
2.40144299469613e-06
-4.23430377833519e-05
2.06521967148659e-06
-4.4122061764113e-05
1.7790250134246e-06
-4.56493335064286e-05
1.52727263576691e-06
-4.69513631016148e-05
1.30203035768498e-06
-4.80474105529493e-05
1.0960481036525e-06
-4.89530345852841e-05
9.05624601039572e-07
-4.96805906450827e-05
7.27556569883988e-07
-5.024045269197e-05
5.59862515853767e-07
-5.06412707260882e-05
4.00818468619082e-07
-5.08908012476278e-05
2.49530917154669e-07
-5.09962563209227e-05
1.05455417316591e-07
-5.09646511841357e-05
-3.1604861128597e-08
-5.08030014854261e-05
-1.61649507766093e-07
-5.05187249299431e-05
-2.84276460983073e-07
-5.01194896442654e-05
-3.99235292318715e-07
-4.96130505511693e-05
-5.06439197481119e-07
-4.90071916567452e-05
-6.05859084952375e-07
-4.83095837462889e-05
-6.97608168411883e-07
-4.75278081693097e-05
-7.81775878493432e-07
-4.66693069211203e-05
-8.58501566687894e-07
-4.57413745220212e-05
-9.27932707980556e-07
-4.47511203121148e-05
-9.90254485013507e-07
-4.37054464376644e-05
-1.04567409618385e-06
-4.26109721937269e-05
-1.09447439866251e-06
-4.14740426708311e-05
-1.1369296038213e-06
-4.0300623816795e-05
-1.17341886132449e-06
-3.90964083990963e-05
-1.2042153580436e-06
-3.78667460476507e-05
-1.22966223710041e-06
-3.66168260540444e-05
-1.24991984111064e-06
-3.5351712945461e-05
-1.26511293713776e-06
-3.40761700050094e-05
-1.27554277041991e-06
-3.2794654730604e-05
-1.28151512577283e-06
-3.15111267025298e-05
-1.28352791893425e-06
-3.02291883362885e-05
-1.28193831159777e-06
-2.89519226797347e-05
-1.27726566774835e-06
-2.76821595531962e-05
-1.26976321083334e-06
-2.64224141095455e-05
-1.25974560463464e-06
-2.51752425737697e-05
-1.24717177368966e-06
-2.39432920251682e-05
-1.23195086117073e-06
-2.2729090925166e-05
-1.21420148314577e-06
-2.15350714519469e-05
-1.19401992168657e-06
-2.03633566419563e-05
-1.17171531766554e-06
-1.92159570422328e-05
-1.14740015989738e-06
-1.8094761144723e-05
-1.12119650290591e-06
-1.70019613485321e-05
-1.09280043881204e-06
-1.59399816936226e-05
-1.06198032573847e-06
-1.49117663155376e-05
-1.02821606680607e-06
-1.3920766660347e-05
-9.91000350093808e-07
-1.29715395879255e-05
-9.49227760384892e-07
-1.2069880887583e-05
-9.01659367417427e-07
-1.12242320168989e-05
-8.45649502628703e-07
-1.04467395289475e-05
-7.7749307113152e-07
-9.75469593002835e-06
-6.92044121377917e-07
-9.1757252990735e-06
-5.78971083282688e-07
-8.74030684442981e-06
-4.35418831077109e-07
-8.48732887291451e-06
-2.5297827043616e-07
-8.4891899777877e-06
1.86088105466582e-09
-8.81151257038511e-06
3.22322391893269e-07
-8.54739188372401e-06
-2.64120934269665e-07
-8.06230604635854e-06
-4.85086106118002e-07
-6.97691538793005e-06
-1.08539091678228e-06
-5.48870848904253e-06
-1.48820711430839e-06
-3.50453643932119e-06
-1.98417219822969e-06
-1.08268997527691e-06
-2.4218465319775e-06
1.88348505080244e-06
-2.9661750139999e-06
5.15006121054181e-06
-3.26657609032352e-06
8.59250692070601e-06
-3.44244562144806e-06
1.19318995079716e-05
-3.33939249991837e-06
1.49597852312214e-05
-3.02788562192776e-06
1.72113229046928e-05
-2.25153750715671e-06
1.88642551885403e-05
-1.6529319982379e-06
2.00938869726803e-05
-1.22963138462208e-06
2.10702836983893e-05
-9.76396345724977e-07
2.1926190479704e-05
-8.55906522555418e-07
2.30906588286701e-05
-1.16446799341943e-06
2.48523210218736e-05
-1.76166208678472e-06
2.69893277091352e-05
-2.13700858515901e-06
2.94162339360195e-05
-2.42690669607779e-06
3.29839493450556e-05
-3.56770393631042e-06
3.65833273540522e-05
-3.59937133340042e-06
3.72928727386604e-05
-7.09573884477181e-07
2.86582511480762e-05
8.63461091491151e-06
1.77805390696215e-05
1.0877734642613e-05
9.42108672885457e-06
8.35946377472754e-06
6.75639175784102e-07
3.35857990269393e-05
-5.7176944029332e-06
3.13193940050605e-05
2.80654032715147e-06
1.11515245186137e-05
2.74058125973271e-05
-7.68879263462105e-06
2.46544104329456e-05
-1.36700548834006e-05
7.56394937107131e-06
-1.11829399129196e-05
-3.53632694629037e-06
-8.82934058640405e-06
-3.13256458352974e-06
-7.35083151633672e-06
-2.02407726141026e-06
-6.54051186452835e-06
-1.068806089171e-06
-5.97363894936617e-06
-7.9499589336671e-07
-5.84524439023322e-06
-1.76715335851166e-07
-6.09745130394614e-06
3.0160851434555e-07
-6.8175695415354e-06
9.35273932883616e-07
-8.14414838569232e-06
1.72646417699537e-06
-1.02708699790269e-05
2.80247546469875e-06
-1.31728721045032e-05
3.84071752390124e-06
-1.66141194776883e-05
4.56639058670926e-06
-2.0386150867829e-05
5.01206998733093e-06
-2.42121334593939e-05
5.08744806591828e-06
-2.76551346138583e-05
4.56037213760369e-06
-3.03235547458074e-05
3.47221240693801e-06
-3.22526077128846e-05
2.44620972783242e-06
-3.33402312363215e-05
1.28716769388297e-06
-3.32574471370128e-05
-3.44529896558799e-07
-3.21511825123305e-05
-1.77316431231314e-06
-3.06211610527249e-05
-2.40500848326851e-06
-3.10697153575628e-05
-2.64579429093556e-07
-4.25363579041042e-05
1.51900142032574e-05
-6.00921636768745e-05
2.38625396275715e-05
-7.51947370369583e-05
2.0498274264886e-05
-8.77146094845128e-05
1.71059517999653e-05
-9.81842312010598e-05
1.43437471891744e-05
-0.000106962828639192
1.20680267756523e-05
-0.000114371088434512
1.02075084330452e-05
-0.000120661804223455
8.6921613301572e-06
-0.000126016436106114
7.4198538228675e-06
-0.000130571003966011
6.33359486192733e-06
-0.000134423053921898
5.37932432135844e-06
-0.000137645751780916
4.52472972516211e-06
-0.000140294084327513
3.74438198092809e-06
-0.000142412099140076
3.02364060490819e-06
-0.000144035492467209
2.35095097403337e-06
-0.000145194237543044
1.71860856178696e-06
-0.000145913796470008
1.12037824899393e-06
-0.000146217146756575
5.52881917743561e-07
-0.000146126053712779
1.43629195494756e-08
-0.000145661554518622
-4.96103704183867e-07
-0.00014484467917972
-9.78524709004464e-07
-0.000143697239627427
-1.43171609437487e-06
-0.000142241339281395
-1.85513592810089e-06
-0.0001404990595079
-2.24871944403953e-06
-0.000138492297835998
-2.61262137432792e-06
-0.000136242508431665
-2.94739828571391e-06
-0.0001337707269426
-3.25355812129645e-06
-0.000131097488133351
-3.53174111490322e-06
-0.000128242795379821
-3.78262613400778e-06
-0.000125226043921896
-4.00700650535946e-06
-0.000122065954891385
-4.20576354647521e-06
-0.000118780429325956
-4.38000022187389e-06
-0.000115386537584477
-4.53082143578103e-06
-0.000111900361796758
-4.65959458068393e-06
-0.000108337190261468
-4.76738668684486e-06
-0.000104711479660231
-4.85537252474726e-06
-0.000101037208204133
-4.92419091511361e-06
-9.73279094137767e-05
-4.97441132006703e-06
-9.35962980687778e-05
-5.00715372716005e-06
-8.98541871247443e-05
-5.0236257436663e-06
-8.61121567238364e-05
-5.02555809441919e-06
-8.2379778666056e-05
-5.01431627657513e-06
-7.86654170169102e-05
-4.99162738108629e-06
-7.49767427097951e-05
-4.95843775498563e-06
-7.13207957358282e-05
-4.91569299672336e-06
-6.77047053972495e-05
-4.86326271284269e-06
-6.41357712646184e-05
-4.80088577288902e-06
-6.06210149825551e-05
-4.72895871480796e-06
-5.71671464296888e-05
-4.64788958411702e-06
-5.37802136203326e-05
-4.55864938390679e-06
-5.04660075546401e-05
-4.46160761584971e-06
-4.72302506337638e-05
-4.35695493210148e-06
-4.40794821529214e-05
-4.24357052895177e-06
-4.10210960582569e-05
-4.12036811167218e-06
-3.8063945131459e-05
-3.9853687449474e-06
-3.52186219385137e-05
-3.83632532935268e-06
-3.24988454851431e-05
-3.66900600658442e-06
-2.99223653522658e-05
-3.47814126849078e-06
-2.7514599609255e-05
-3.25341695623099e-06
-2.53113345509673e-05
-2.98075974956049e-06
-2.33653697051076e-05
-2.63801046572932e-06
-2.17533595040324e-05
-2.19098263405633e-06
-2.05762502647616e-05
-1.61252925030468e-06
-1.99535903654974e-05
-8.75639166818935e-07
-2.01617523517546e-05
2.10022057288784e-07
-2.08967625100166e-05
1.05733191643474e-06
-2.00670977903698e-05
-1.09378613307387e-06
-1.83333260095841e-05
-2.21885821329144e-06
-1.51042632605751e-05
-4.31445385482762e-06
-1.07178146241381e-05
-5.874655824424e-06
-5.0990950130553e-06
-7.60289179664506e-06
1.6925449887371e-06
-9.21348646417651e-06
9.7753258467131e-06
-1.10489557749803e-05
1.86029420709637e-05
-1.20941922166822e-05
2.77903824698931e-05
-1.26298859404697e-05
3.6717781191934e-05
-1.22667911657171e-05
4.47927423413065e-05
-1.11028467328647e-05
5.09966452567174e-05
-8.45544039219577e-06
5.5587247737728e-05
-6.24353445096694e-06
5.90021355684535e-05
-4.64451919790043e-06
6.16543164013343e-05
-3.62857720320507e-06
6.39462713337753e-05
-3.1478615464055e-06
6.69125834354947e-05
-4.13078018204398e-06
7.14024152002808e-05
-6.25149393553148e-06
7.7016141922078e-05
-7.75073578202247e-06
8.38187045065257e-05
-9.22946955681631e-06
9.34670941989379e-05
-1.32160913141285e-05
0.000104049365079656
-1.4181640636416e-05
0.000107246667860212
-3.90688308273239e-06
8.74882332064085e-05
2.83930425098148e-05
5.77554117624148e-05
4.06105614508904e-05
3.38241786869301e-05
3.22906988972439e-05
4.98559858332977e-06
6.02552674356224e-05
-1.09349238271025e-05
5.58963880174124e-05
7.16542106550488e-06
2.33372350051872e-05
5.99649604288941e-05
-1.01320366080111e-05
5.81236533415585e-05
-2.22044217443192e-05
1.96363523782203e-05
-1.88935607515479e-05
-6.84717641076288e-06
-1.49867744104086e-05
-7.03934791620746e-06
-1.26209821503119e-05
-4.38987063117706e-06
-1.12410208859708e-05
-2.44876789070218e-06
-1.03818927656231e-05
-1.65412419206598e-06
-1.02015291638077e-05
-3.57079461134529e-07
-1.07365981934853e-05
8.36676753935194e-07
-1.20590568696289e-05
2.25773163603916e-06
-1.44533227661106e-05
4.12072898798298e-06
-1.81817332667412e-05
6.53088482204335e-06
-2.31996013771819e-05
8.85858448465979e-06
-2.91051393887879e-05
1.04719274839033e-05
-3.55486099358889e-05
1.14555395314456e-05
-4.20734722508615e-05
1.1612309595517e-05
-4.80241136968862e-05
1.0511013147828e-05
-5.28750601284597e-05
8.32315887000498e-06
-5.66711212356593e-05
6.24227142262158e-06
-5.92567717997113e-05
3.87281945433017e-06
-6.0203025591007e-05
6.01725718459179e-07
-5.9736003130932e-05
-2.24018433199556e-06
-5.91158200573221e-05
-3.02518855324357e-06
-6.29653110386264e-05
3.58491498777357e-06
-8.24907523249614e-05
3.47154591941394e-05
-0.000110007822405179
5.13796135167285e-05
-0.000133517341407227
4.40077971019736e-05
-0.000152623199527972
3.62118137268092e-05
-0.000168379719153136
3.01002705030547e-05
-0.00018142147576579
2.51097868728919e-05
-0.000192302471850129
2.10885077255481e-05
-0.000201424986387933
1.78146787524879e-05
-0.000209081024207404
1.50758941855391e-05
-0.000215482794490019
1.27353673586501e-05
-0.000220784795330966
1.06813270831131e-05
-0.000225102565913111
8.8425019843058e-06
-0.00022852467564623
7.16649319781349e-06
-0.000231122326956111
5.62129324574839e-06
-0.000232953969695166
4.18259491380157e-06
-0.000234068910659745
2.83355059873544e-06
-0.000234509407690406
1.56087620776615e-06
-0.000234313588103638
3.57063086932274e-07
-0.000233517943897054
-7.81280734886914e-07
-0.000232159107264714
-1.85494001498517e-06
-0.000230273253466062
-2.86437843201066e-06
-0.000227896020338445
-3.8089493917586e-06
-0.000225062921530141
-4.6882351340495e-06
-0.000221808932506893
-5.50270905893349e-06
-0.000218168294234051
-6.25326038512344e-06
-0.000214174258104453
-6.94143524235102e-06
-0.000209859128255138
-7.56868882474562e-06
-0.000205254196720008
-8.1366734700838e-06
-0.000200389716248919
-8.64710733544808e-06
-0.000195294823304441
-9.10190004479369e-06
-0.000189997459872902
-9.50312740489554e-06
-0.000184524223496939
-9.85323683886448e-06
-0.000178900357866749
-1.015468711895e-05
-0.000173149635210979
-1.04103171140336e-05
-0.000167294604442625
-1.0622417183416e-05
-0.000161356645928431
-1.07933306545825e-05
-0.000155356375941767
-1.09244604496327e-05
-0.000149313630898517
-1.10171558926544e-05
-0.000143247004561304
-1.10737796255902e-05
-0.000137173704690271
-1.10969252559348e-05
-0.000131109222840192
-1.1090039708722e-05
-0.000125067581263607
-1.10559577758475e-05
-0.000119061224941151
-1.09979838115241e-05
-0.00011310165410468
-1.09180089022447e-05
-0.000107199669603561
-1.08176780205728e-05
-0.000101366230660567
-1.06967023920284e-05
-9.56124924118427e-05
-1.0554624967009e-05
-8.99492403517858e-05
-1.03922119208804e-05
-8.43868026551689e-05
-1.02103286157505e-05
-7.89347320971723e-05
-1.00107214521244e-05
-7.36023546263252e-05
-9.79398675651529e-06
-6.83992156884416e-05
-9.56009568205428e-06
-6.33362023554527e-05
-9.30658579694004e-06
-5.84257818383361e-05
-9.03079066475764e-06
-5.36828198098444e-05
-8.72833288473774e-06
-4.91252779411688e-05
-8.39386935524622e-06
-4.47762260718525e-05
-8.01806004539026e-06
-4.06657245754326e-05
-7.58864490957592e-06
-3.68362516961782e-05
-7.08289191588964e-06
-3.33469616842869e-05
-6.47005173782132e-06
-3.0285709415037e-05
-5.69926456955847e-06
-2.77750828291067e-05
-4.70161087915529e-06
-2.59900502080624e-05
-3.39756332893599e-06
-2.51438785860527e-05
-1.72181202751096e-06
-2.56481150593184e-05
7.14257518358325e-07
-2.6550647699558e-05
1.95986377925606e-06
-2.49756081813757e-05
-2.66882619435441e-06
-2.17977336433756e-05
-5.39673307382744e-06
-1.64870053557189e-05
-9.62518228079413e-06
-9.42990107860934e-06
-1.2931760101801e-05
-6.20907126988842e-07
-1.6411885661238e-05
9.93233608959549e-06
-1.97667295541519e-05
2.23061842333556e-05
-2.34228037932204e-05
3.57829779688907e-05
-2.55709858515479e-05
4.97610008305583e-05
-2.66079087335967e-05
6.34004320226571e-05
-2.59062223200377e-05
7.57929011102881e-05
-2.34953158119852e-05
8.55599341567141e-05
-1.82224734664224e-05
9.28873618161808e-05
-1.35709621861046e-05
9.83700507609111e-05
-1.01272082728268e-05
0.000102598627998951
-7.85715461708145e-06
0.000106221451033817
-6.7706848014987e-06
0.000110743850323075
-8.6531797150871e-06
0.000117543264531082
-1.30509082930662e-05
0.000126195224883998
-1.64026961613851e-05
0.000136970282486595
-2.00045274027096e-05
0.000151918830701586
-2.81646400327058e-05
0.000168884189299999
-3.11469991425684e-05
0.000175400648573786
-1.04233420973777e-05
0.000148968349375895
5.48253408242417e-05
0.000103594991497963
8.59839187487415e-05
6.4813630047338e-05
7.10720579835302e-05
1.4761181167231e-05
9.08006731934409e-05
-1.56713215090403e-05
8.40932113389158e-05
1.38728862984689e-05
3.94826327052228e-05
0.000104575534378499
-9.98009292126316e-06
0.000107586356397024
-3.01286661924962e-05
3.97849549077019e-05
-2.67307742703411e-05
-1.0245052341912e-05
-2.13969964252493e-05
-1.2373122429793e-05
-1.81728859042163e-05
-7.61398265783901e-06
-1.62561784258379e-05
-4.36547593806302e-06
-1.51415206538248e-05
-2.76878211935641e-06
-1.49718558949975e-05
-5.26744793001108e-07
-1.58736228197225e-05
1.73844281070991e-06
-1.79216606347498e-05
4.30576837537467e-06
-2.15328402307372e-05
7.73190737498946e-06
-2.70244652902106e-05
1.20225086058452e-05
-3.43069236631511e-05
1.61410415781788e-05
-4.28111389502238e-05
1.89761415332397e-05
-5.20412845798572e-05
2.06856840419427e-05
-6.13772707644378e-05
2.09482948879565e-05
-7.00105591530933e-05
1.91443010109984e-05
-7.73594410282505e-05
1.56720407141501e-05
-8.34973394192419e-05
1.23801703743572e-05
-8.8248023799648e-05
8.62350504230858e-06
-9.11633742424775e-05
3.5170780307643e-06
-9.25901581481544e-05
-8.13397908901185e-07
-9.46564765064894e-05
-9.58867091539941e-07
-0.000103490641422812
1.24190834296533e-05
-0.000130498799345382
6.17236208571303e-05
-0.0001656620736608
8.65428916104165e-05
-0.000195091390028499
7.34371172152051e-05
-0.000218398981782838
5.95194091443643e-05
-0.000237191339798124
4.88926320189862e-05
-0.000252423715870975
4.03421662081094e-05
-0.00026486923833488
3.35340331547432e-05
-0.000275064524239553
2.80099672917206e-05
-0.000283395727550424
2.34070997944921e-05
-0.000290139598983655
1.94792407743421e-05
-0.000295499276090813
1.60410058974772e-05
-0.000299627517138696
1.29707445141588e-05
-0.000302643166143774
1.01821435078838e-05
-0.000304642309290192
7.6204375570134e-06
-0.000305704339172343
5.2446258402951e-06
-0.000305896217793863
3.02543014514e-06
-0.000305275254788324
9.39913993497082e-07
-0.0003038950789821
-1.02311208534425e-06
-0.000301808936128404
-2.86742313763478e-06
-0.00029906705299271
-4.59682290257666e-06
-0.000295716375494109
-6.2150558947145e-06
-0.000291802680755008
-7.72264430316877e-06
-0.000287370616647621
-9.12029960358468e-06
-0.000282463377867973
-1.04099483590484e-05
-0.00027712260378905
-1.15940351005944e-05
-0.000271388247700543
-1.26757920341249e-05
-0.000265298695263824
-1.36582419791924e-05
-0.000258890770183574
-1.4544599231736e-05
-0.000252199755505943
-1.53381226127747e-05
-0.000245259363613065
-1.60422924190772e-05
-0.000238101691116397
-1.66608002392157e-05
-0.000230757125505677
-1.71978026305053e-05
-0.0002232543695097
-1.76574431389576e-05
-0.000215620413411428
-1.80442730915109e-05
-0.000207880817174108
-1.83620131780038e-05
-0.000200059848247102
-1.86142992483556e-05
-0.000192180863764268
-1.88034445465464e-05
-0.000184266227908012
-1.89317913515985e-05
-0.000176336852084238
-1.90031550826811e-05
-0.000168412041899978
-1.9021735144142e-05
-0.000160509254393937
-1.89928270249988e-05
-0.000152644347760389
-1.89208643553276e-05
-0.000144831604666934
-1.88107270090169e-05
-0.000137084387462057
-1.86652263839367e-05
-0.000129415514669275
-1.84865512708333e-05
-0.000121838093656494
-1.82741240446633e-05
-0.000114365465723916
-1.80272537188818e-05
-0.000107010622718133
-1.77470559188715e-05
-9.97861085304198e-05
-1.74348439596194e-05
-9.27038302183874e-05
-1.70930010733375e-05
-8.5775696336692e-05
-1.67221220880184e-05
-7.90142816737706e-05
-1.63215119215753e-05
-7.2434010840115e-05
-1.58868583181697e-05
-6.60516031928811e-05
-1.54132000925048e-05
-5.98870223511556e-05
-1.4892915578528e-05
-5.39645633926095e-05
-1.4316330212617e-05
-4.83153233587797e-05
-1.36673019960527e-05
-4.29799444995597e-05
-1.2924025671668e-05
-3.80152986383086e-05
-1.20475396318662e-05
-3.34998561402163e-05
-1.09854960076562e-05
-2.95503965765301e-05
-9.64872578842541e-06
-2.6326195827343e-05
-7.92581313672899e-06
-2.40677369627852e-05
-5.65602353073801e-06
-2.30767256835268e-05
-2.71282445592968e-06
-2.38266238652612e-05
1.46415474894403e-06
-2.46608532348938e-05
2.79409241873342e-06
-2.2254205145315e-05
-5.07547477493273e-06
-1.7668612751594e-05
-9.98232573633861e-06
-1.05887433782466e-05
-1.67050517445557e-05
-1.39496761005037e-06
-2.21255358336739e-05
9.85730036081438e-06
-2.76641535236044e-05
2.32231902764916e-05
-3.31326193391599e-05
3.87393112406287e-05
-3.8938924642402e-05
5.56435788666478e-05
-4.2475253395402e-05
7.320827458441e-05
-4.41726044020709e-05
9.04871136130028e-05
-4.31850613279213e-05
0.000106381429223152
-3.93896314320419e-05
0.000119301887522344
-3.11429318217323e-05
0.000129244495610896
-2.35135703962607e-05
0.000136804140684054
-1.76868535373913e-05
0.000142650473485289
-1.37034876516586e-05
0.000147593860991788
-1.17140725729062e-05
0.000153478140458413
-1.45374594777362e-05
0.000162167087647101
-2.17398556419554e-05
0.000173395446438607
-2.76310548437626e-05
0.000187591044937561
-3.42001261833277e-05
0.000207086104547012
-4.76597007941644e-05
0.000229698544182421
-5.37594388706879e-05
0.000240566753762112
-2.12915501968713e-05
0.000211537775233089
8.38543184912994e-05
0.0001547805657138
0.000142741126724286
0.000102551493823025
0.00012330112657113
3.12483912111149e-05
0.000125413172589303
-1.82942854704116e-05
0.000116026356386375
2.32597078301937e-05
5.99844382770729e-05
0.00016061744804884
-6.69384160882885e-06
0.000174264620736277
-3.71299972959659e-05
7.02211503387329e-05
-3.45902630928578e-05
-1.27847663467081e-05
-2.80132429247745e-05
-1.89501391695851e-05
-2.39828788248432e-05
-1.16443486298976e-05
-2.157904142885e-05
-6.7693139055943e-06
-2.02595565358267e-05
-4.08826715625575e-06
-2.01775410144438e-05
-6.08760944887141e-07
-2.15438254810241e-05
3.10472632905615e-06
-2.44543763126763e-05
7.21631802259444e-06
-2.94399370048291e-05
1.27174667250793e-05
-3.68521738292336e-05
1.9434744012048e-05
-4.65255105730036e-05
2.58143769048316e-05
-5.77178507445738e-05
3.01684803383484e-05
-6.97805015134876e-05
3.27483335698779e-05
-8.19480112318372e-05
3.31158035965647e-05
-9.33204025862731e-05
3.05166917302093e-05
-0.000103321353025267
2.5672991028515e-05
-0.000112063266298798
2.11220841369754e-05
-0.000119390491054496
1.59507309497907e-05
-0.000124942189295778
9.06877808735633e-06
-0.000129303669910908
3.54808515747678e-06
-0.000135350634139236
5.08810014734627e-06
-0.00014970211703949
2.6770569713373e-05
-0.000182118096606237
9.41396039524383e-05
-0.000220945955362539
0.00012537075386038
-0.000252261083960993
0.000104752249198151
-0.000276245378787328
8.35037072031298e-05
-0.00029505271733538
6.76999735883866e-05
-0.000309906729668791
5.51961812996275e-05
-0.00032173092368452
4.53582296302963e-05
-0.000331135536731433
3.74145824867655e-05
-0.000338552996550093
3.08245614585325e-05
-0.000344287799239178
2.52140450346757e-05
-0.000348563216673996
2.03164246709334e-05
-0.000351546717897458
1.5954246889636e-05
-0.000353368976941367
1.20044035588151e-05
-0.000354135395966869
8.38685747495816e-06
-0.00035393289830108
5.04212896811892e-06
-0.000352834635809286
1.92716834921177e-06
-0.000350905882094181
-9.8883913385597e-07
-0.000348208393202467
-3.72060051405656e-06
-0.000344798191362241
-6.27762465637224e-06
-0.000340726367584139
-8.66864651261873e-06
-0.000336042310738179
-1.08991127300169e-05
-0.00033079397972059
-1.29709754617053e-05
-0.000325027753555051
-1.48865260457853e-05
-0.000318788209975676
-1.66494923259539e-05
-0.000312118100291402
-1.82641452513651e-05
-0.000305058312324678
-1.97355805100886e-05
-0.00029764802124838
-2.10685335699319e-05
-0.000289924728995993
-2.22678919679063e-05
-0.000281924298757632
-2.33385532727884e-05
-0.000273680943708575
-2.42856478027838e-05
-0.000265227188851189
-2.51145553274203e-05
-0.000256593810215914
-2.58311813848758e-05
-0.000247809861364475
-2.64413919988254e-05
-0.000238902700160711
-2.69514342025248e-05
-0.000229898257187182
-2.73664559745063e-05
-0.000220821214578668
-2.76913416182077e-05
-0.00021169534358053
-2.79293152712396e-05
-0.000202543371924039
-2.80837627289484e-05
-0.000193386548900352
-2.81599778508932e-05
-0.000184244482515825
-2.81638013247224e-05
-0.000175134979096459
-2.81023303166375e-05
-0.000166074267100182
-2.79815763204321e-05
-0.000157077120998944
-2.78078731910941e-05
-0.000148157476249288
-2.75848713366169e-05
-0.000139328883027308
-2.73151448235472e-05
-0.000130605276378172
-2.69977311535353e-05
-0.0001220008684922
-2.66316621918604e-05
-0.000113529590793306
-2.62183343278129e-05
-0.000105204987334511
-2.57594482456309e-05
-9.70401445344431e-05
-2.52578448106407e-05
-8.90483434703285e-05
-2.47139241912154e-05
-8.12438649844912e-05
-2.41259915391049e-05
-7.36431442527956e-05
-2.34875802636291e-05
-6.62653801435307e-05
-2.27909654853044e-05
-5.91335109260228e-05
-2.20247861346908e-05
-5.22755449819014e-05
-2.11742975332997e-05
-4.57272027127642e-05
-2.02156456595323e-05
-3.95351047807829e-05
-1.91161249932863e-05
-3.37640112399411e-05
-1.78186345332794e-05
-2.85023236078356e-05
-1.62471849462913e-05
-2.38819456168548e-05
-1.4269105007728e-05
-2.0079045606043e-05
-1.17287142756023e-05
-1.73706513420044e-05
-8.3644188045554e-06
-1.60995266947388e-05
-3.98394998182054e-06
-1.68102045589497e-05
2.17483187566508e-06
-1.74026100959787e-05
3.38649738972097e-06
-1.4396795581747e-05
-8.08128965721989e-06
-8.8031469358526e-06
-1.55759745698698e-05
-5.64066395678536e-07
-2.49441323324428e-05
1.0020968025371e-05
-3.27105702072747e-05
2.28370565206153e-05
-4.0480241922224e-05
3.79900594837831e-05
-4.8285622196076e-05
5.54762489266041e-05
-5.64251139975692e-05
7.45823967035046e-05
-6.15814011142613e-05
9.45300364370424e-05
-6.4120244104347e-05
0.000114371897272649
-6.30269221547577e-05
0.000132948153321611
-5.79658874999631e-05
0.000148639493174373
-4.68342717430334e-05
0.000161204599936702
-3.60786773038444e-05
0.00017111070431499
-2.75929581446911e-05
0.000178965195427613
-2.1557979035542e-05
0.000185603766681642
-1.83526441171044e-05
0.000193005562042087
-2.19392551736707e-05
0.00020342588411995
-3.21601778844634e-05
0.00021690060192832
-4.11057723364122e-05
0.00023401393217541
-5.13134567448047e-05
0.00025723739431047
-7.08831651404069e-05
0.0002846319702652
-8.11540152958502e-05
0.000300561753160712
-3.7221329501503e-05
0.000272932495022135
0.000111483575963777
0.000209763054436507
0.000205910564704738
0.000146656947976296
0.000186407229006421
5.51151235132647e-05
0.000163527522574809
-1.74330021318271e-05
0.000151280811803713
3.55064253683229e-05
8.49647730134027e-05
0.000226933482192206
2.50919485299389e-07
0.000258978466258982
-4.28226276957243e-05
0.000113294747162067
-4.23506937476604e-05
-1.32566759182838e-05
-3.47857713867677e-05
-2.65150583211435e-05
-3.00276179275364e-05
-1.64025043113701e-05
-2.7203200349981e-05
-9.59373202139237e-06
-2.57430054476561e-05
-5.54846219939597e-06
-2.58376796685673e-05
-5.14087420932806e-07
-2.7777059935384e-05
5.04410556317714e-06
-3.16934791068567e-05
1.11327358947405e-05
-3.82051104878549e-05
1.92290966223609e-05
-4.76660105732389e-05
2.88956425278733e-05
-5.97930281747342e-05
3.79413929456349e-05
-7.36533725968762e-05
4.40288232642255e-05
-8.84281839699082e-05
4.75231435827822e-05
-0.00010321497887045
4.79025973733091e-05
-0.000117064318550843
4.43660306669005e-05
-0.00012944583383416
3.80545060868983e-05
-0.000140524249087177
3.22004997792075e-05
-0.000150230165996794
2.56566488861991e-05
-0.000158427390259836
1.72660039865732e-05
-0.000166058840731024
1.11795378267868e-05
-0.000176399414664858
1.54286767587435e-05
-0.000195569727981405
4.59408860134514e-05
-0.00023040385113326
0.000128973730175519
-0.000268626365048712
0.000163593270749606
-0.000298212408549844
0.000134338295494909
-0.000320357740594296
0.000105649041840767
-0.000337447033611779
8.47892689696878e-05
-0.000350742172063536
6.84913218626544e-05
-0.000361151796494438
5.57678559091561e-05
-0.000369252573765933
4.55153613461596e-05
-0.00037545057302282
3.70225620607364e-05
-0.000380028917568749
2.97923907126687e-05
-0.00038319586489532
2.34833729524252e-05
-0.000385107933367951
1.78663161770619e-05
-0.000385888080352113
1.27845512497771e-05
-0.000385635980650627
8.13475839527607e-06
-0.000384434500513526
3.84064937990264e-06
-0.000382354719890175
-1.52611796589656e-07
-0.000379461424094401
-3.88213452962073e-06
-0.000375813107398022
-7.3689168979728e-06
-0.000371461741448723
-1.06289903906253e-05
-0.00036645707699256
-1.36733108577938e-05
-0.000360847561782215
-1.65086279348197e-05
-0.000354680370991646
-1.91381663472187e-05
-0.000348001219792518
-2.15656774289165e-05
-0.000340854137040546
-2.37965753339089e-05
-0.00033328143072143
-2.58368518770635e-05
-0.000325323662557426
-2.7693349007337e-05
-0.000317019778441063
-2.93724180216646e-05
-0.000308407139187726
-3.08805315355132e-05
-0.00029952153607692
-3.22241566565529e-05
-0.00029039717045995
-3.34100136355629e-05
-0.000281066601178412
-3.44451247570996e-05
-0.000271560686707327
-3.53370959316511e-05
-0.000261908595231522
-3.60934834788791e-05
-0.000252137848019452
-3.67221813538287e-05
-0.000242274562919205
-3.72297409600477e-05
-0.000232343650375521
-3.76222540079713e-05
-0.000222369127854808
-3.79038376161143e-05
-0.000212373967975733
-3.80789224289416e-05
-0.000202379677083067
-3.81542685800094e-05
-0.000192406117811164
-3.81373604663428e-05
-0.000182471392298863
-3.80370557476235e-05
-0.000172592040005914
-3.78609285939264e-05
-0.000162783214052793
-3.76166991963962e-05
-0.000153059255744926
-3.73088297747473e-05
-0.000143434189649508
-3.69402111307734e-05
-0.000133922465159165
-3.65094559380904e-05
-0.000124538845387908
-3.60152823386068e-05
-0.000115297871295991
-3.54593088738387e-05
-0.000106213743837948
-3.48435762327551e-05
-9.73003177865125e-05
-3.41712714616371e-05
-8.85717397798841e-05
-3.34425028628158e-05
-8.00433254526434e-05
-3.26544065909891e-05
-7.17326880354151e-05
-3.17982184586022e-05
-6.36604509475548e-05