/*--------------------------------*- C++ -*----------------------------------*\
  =========                 |
  \\      /  F ield         | OpenFOAM: The Open Source CFD Toolbox
   \\    /   O peration     | Website:  https://openfoam.org
    \\  /    A nd           | Version:  7
     \\/     M anipulation  |
\*---------------------------------------------------------------------------*/
FoamFile
{
    version     2.0;
    format      ascii;
    class       volSymmTensorField;
    location    "20000";
    object      tauij_B;
}
// * * * * * * * * * * * * * * * * * * * * * * * * * * * * * * * * * * * * * //

dimensions      [0 2 -2 0 0 0 0];

internalField   nonuniform List<symmTensor> 
15600
(
(7.49809817774386e-07 -1.92008252058815e-09 -6.18101595913594e-30 7.49824547394018e-07 -7.84989553879261e-32 7.49817461471995e-07)
(6.61563593971755e-07 -2.01227163612713e-09 -7.00778667265514e-30 6.61756165261987e-07 -2.8493684480684e-28 6.61659095828076e-07)
(3.82855582279273e-07 -7.63216821816469e-10 1.38274822986816e-27 3.83219142308908e-07 2.98663685252049e-28 3.83037658889657e-07)
(1.51508460365105e-07 2.43148259332245e-11 -9.34686288668194e-29 1.51470047614183e-07 4.24801623436289e-29 1.51488065201187e-07)
(3.85478866776045e-08 2.98725013584861e-11 3.63068074930199e-29 3.84745017671624e-08 1.14080126120371e-30 3.85109368755873e-08)
(2.35030107576052e-08 1.13257588844188e-11 -7.8513396685806e-29 2.34565461862769e-08 -4.9883496033049e-28 2.34796472946062e-08)
(1.93436409341992e-08 4.60185008374206e-12 5.73978689972345e-28 1.93146405466057e-08 7.62342227418035e-28 1.93290826594638e-08)
(9.50960963631501e-09 1.3969114307127e-12 3.97152723829897e-28 9.49712355680203e-09 4.13926421166079e-28 9.50333729323028e-09)
(6.00106930060605e-09 5.7690366386135e-13 2.54214266208898e-28 5.99447962771889e-09 3.31457653693923e-28 5.99776572817667e-09)
(5.0685457557428e-09 4.2783876943504e-13 -3.21994013405376e-28 5.06332485238149e-09 -3.38526971634295e-28 5.06592751436978e-09)
(5.04516082163041e-09 4.24454527453084e-13 -3.33468933973472e-28 5.0404474412212e-09 -4.16663235203806e-28 5.04280281500402e-09)
(5.8289400852097e-09 5.72530019443318e-13 2.0216478682011e-25 5.82329464364332e-09 2.47494694101708e-25 5.82611702497206e-09)
(7.4264621890205e-09 8.38194431323311e-13 3.04111833435875e-25 7.41886709818187e-09 3.8050435142959e-25 7.42267130612124e-09)
(1.00708458560759e-08 1.40880820749935e-12 -8.27793581197789e-29 1.0058844697869e-08 8.768476762774e-30 1.00648589279366e-08)
(1.43233075805502e-08 2.55691550211494e-12 3.42234022887242e-27 1.43023966332002e-08 4.54752862099074e-27 1.4312882810502e-08)
(2.09717795419097e-08 4.97027479954661e-12 2.10931722507391e-28 2.09323093077495e-08 -2.17895675831948e-29 2.09520952741659e-08)
(3.09190063904033e-08 9.68648501548056e-12 8.55941903957771e-28 3.08447689459249e-08 -9.95642724598705e-29 3.08819645890122e-08)
(4.50607713336243e-08 1.91165963965764e-11 -6.20750908358321e-27 4.49265876310215e-08 -1.03178171086517e-26 4.49937827080877e-08)
(6.44243237080612e-08 3.75886173198708e-11 -7.15162661830862e-27 6.41949687232581e-08 -8.26166630352621e-27 6.43097764626609e-08)
(8.9766644752499e-08 7.19001908553982e-11 3.04100793045543e-28 8.94015156837256e-08 1.27773003706681e-29 8.95842455795717e-08)
(1.2098970904414e-07 1.29951334133032e-10 2.67075117777807e-26 1.20459893168895e-07 4.27384454221419e-26 1.20725061120036e-07)
(1.5709063070342e-07 2.19672170755417e-10 -4.22843903206248e-27 1.56393852338622e-07 5.05211677149836e-28 1.5674280359456e-07)
(1.97102047486252e-07 3.43728545397095e-10 6.84226729145836e-29 1.96266113623818e-07 1.31737306569848e-28 1.96685132905643e-07)
(2.38414667055127e-07 4.87918171178094e-10 4.53793122471991e-27 2.37518547052109e-07 -7.86821636129086e-28 2.37968267120016e-07)
(2.76240053803611e-07 6.19176604124081e-10 2.54143809423555e-26 2.75410770201496e-07 8.26984129638371e-26 2.75827566474068e-07)
(3.03902605318278e-07 7.12980933505151e-10 -3.4779762348573e-26 3.03258813160894e-07 -1.41822364224376e-25 3.0358380069563e-07)
(3.20360194939378e-07 7.18915409021302e-10 1.34893702139074e-29 3.19988353497831e-07 -1.67125731498335e-30 3.20175242130015e-07)
(3.47912116736489e-07 9.3080729420897e-10 -3.41023984581494e-30 3.47725702967332e-07 3.31977728314261e-28 3.4782142094494e-07)
(4.56952438618692e-07 1.90578239151533e-09 3.33492870077846e-29 4.56844326486924e-07 -2.91361784938093e-28 4.56902158423717e-07)
(6.2997159205946e-07 3.55640300981681e-09 2.25155147378797e-29 6.29838973603731e-07 2.52063370893257e-28 6.29909485229944e-07)
(8.10778276164083e-07 5.51637277890728e-09 -1.24689988490787e-28 8.10632232088025e-07 2.23889667449377e-28 8.1071223280048e-07)
(9.94642445646954e-07 7.76097478997829e-09 6.13643591586362e-29 9.94486164030875e-07 -1.58366633388797e-27 9.94573027434048e-07)
(1.17824021357248e-06 1.01691169684146e-08 8.56660330616792e-29 1.17807892697549e-06 7.84649722500724e-28 1.17817080293111e-06)
(1.36058855818098e-06 1.26994746542697e-08 -6.12956809878965e-29 1.36042468632211e-06 -9.51292410419504e-23 1.36052009515445e-06)
(1.5405770092317e-06 1.52965971559192e-08 7.75800980811735e-37 1.54041247420267e-06 -1.10770192327619e-22 1.54051062522624e-06)
(1.71807676231598e-06 1.79334586890009e-08 -8.55395534731563e-29 1.71791301618814e-06 7.44349795844413e-30 1.71801302073814e-06)
(1.89260549754524e-06 2.05775872356382e-08 -7.490153695398e-29 1.89244395320936e-06 -1.40229265300361e-27 1.89254504653833e-06)
(2.0639197562004e-06 2.32051423041986e-08 9.22194283664817e-24 2.06376186897038e-06 -7.35644685351809e-25 2.06386313853905e-06)
(2.23157164102995e-06 2.57897982559514e-08 2.51254598581644e-23 2.23141897190895e-06 -2.24968247934059e-22 2.23151946066456e-06)
(2.39514926622376e-06 2.83078116635413e-08 5.60734349870872e-24 2.39500346118837e-06 -2.43429864500596e-22 2.39510210766163e-06)
(2.55417143314488e-06 3.07353136287071e-08 -1.18437631472159e-23 2.55403415465913e-06 8.54687684746681e-25 2.55412987728903e-06)
(2.7082194651312e-06 3.3050859297735e-08 4.10605745137275e-28 2.70809236494288e-06 2.20963240014474e-27 2.70818405509571e-06)
(2.85694667267332e-06 3.52351163915886e-08 -1.58051067392013e-28 2.8568313568035e-06 1.03149895256347e-29 2.85691791901712e-06)
(3.00019241225804e-06 3.72726333042054e-08 0 3.00009042201886e-06 0 3.00017077999598e-06)
(3.13790031599584e-06 3.91507766476038e-08 1.70916568023933e-23 3.1378130862066e-06 -9.29553254524719e-25 3.13788621339732e-06)
(3.27037023502211e-06 4.08632754621604e-08 4.18909226610592e-23 3.27029906267193e-06 -7.00032807000762e-22 3.27036399337012e-06)
(3.3973763052995e-06 4.23992444316732e-08 5.90060897415969e-24 3.39732233365638e-06 -7.4588885264272e-22 3.39737817992683e-06)
(3.51605973002437e-06 4.37168305834809e-08 -1.98433245554699e-23 3.51602392962909e-06 9.31249145953424e-25 3.51606987666338e-06)
(3.62540567810288e-06 4.48000383616996e-08 1.19002299959044e-28 3.62538872664894e-06 2.40955900567197e-27 3.62542412075741e-06)
(3.72513945741876e-06 4.5644888853624e-08 4.1562696892856e-39 3.7251417422867e-06 -9.31634340870174e-39 3.72516609586434e-06)
(3.81510413085168e-06 4.62513790266054e-08 2.71167862527139e-40 3.81512577079864e-06 -9.68027222315778e-39 3.81513875586271e-06)
(3.89523862452503e-06 4.66229555079981e-08 -4.21156616149308e-39 3.89527948772839e-06 1.2959358887703e-40 3.89528093178333e-06)
(3.965572321938e-06 4.67661326012337e-08 8.2627187713446e-42 3.96563205594729e-06 1.07055159026702e-38 3.96562192722377e-06)
(4.02620319041758e-06 4.66899183639922e-08 4.4804096593253e-39 4.02628123880051e-06 -1.13217793818729e-38 4.02625964119898e-06)
(4.07729723956135e-06 4.64055497619721e-08 1.18539042292067e-40 4.0773928656969e-06 6.26881580182083e-42 4.07736002631079e-06)
(4.11908144298775e-06 4.59260923424263e-08 2.20936607252627e-39 4.11919375329869e-06 -1.22532395088969e-38 4.11915001150755e-06)
(4.151837814905e-06 4.52660854635262e-08 -2.48481835779481e-39 4.15196578493957e-06 3.6037403403791e-41 4.15191157790129e-06)
(4.17589742036094e-06 4.44411739758663e-08 -1.16404921601827e-29 4.17603992166026e-06 8.441122275275e-32 4.17597577037007e-06)
(4.19163273592256e-06 4.34677206142038e-08 6.84975764454287e-30 4.19178856742447e-06 -1.73982560548901e-28 4.19171505753878e-06)
(4.19943954570902e-06 4.23623524186924e-08 3.36506767816212e-23 4.19960745711911e-06 1.74340385235397e-28 4.19952522711444e-06)
(4.19973334411764e-06 4.11416760658954e-08 5.79906875475004e-23 4.19991206694645e-06 -1.73318281929161e-22 4.19982178665502e-06)
(4.19292076776896e-06 3.98218294470917e-08 -1.07220815367561e-23 4.19310902289251e-06 -1.79136545675831e-22 4.19301139085358e-06)
(4.17941095277756e-06 3.84184974113007e-08 -3.41835869168363e-23 4.17960747050449e-06 -2.47882849798676e-25 4.1795031971633e-06)
(4.15960188654682e-06 3.69467112334231e-08 1.04834009336211e-28 4.15980539702734e-06 1.5204111292754e-30 4.15969520987754e-06)
(4.1339143877389e-06 3.54212147471187e-08 -7.2571705634381e-29 4.1341236296863e-06 1.54913835175541e-27 4.13400826703137e-06)
(4.10280770040479e-06 3.38563386556444e-08 -1.34861921293271e-28 4.10302145755188e-06 -1.54245602263575e-27 4.10290164465539e-06)
(4.06674687097522e-06 3.22655368576408e-08 1.02575328026487e-28 4.06696399001812e-06 2.23148009818732e-30 4.06684043107847e-06)
(4.02619603676095e-06 3.06611789558129e-08 -3.14310796263617e-39 4.02641545614958e-06 -9.11691989363036e-41 4.02628881207714e-06)
(3.98156951164086e-06 2.90541479481716e-08 1.7621901958541e-39 3.98179025478726e-06 1.74266513122518e-38 3.98166115069033e-06)
(3.9332439253849e-06 2.7453987115462e-08 4.3913580721507e-39 3.93346511519285e-06 -1.74719581215583e-38 3.93333412435738e-06)
(3.88150143287413e-06 2.58686133591562e-08 -6.25973093637082e-39 3.88172226297364e-06 -2.38489626963857e-40 3.88158992738919e-06)
(3.82656303740627e-06 2.43047977367649e-08 -3.81217928553953e-23 3.82678276814998e-06 -1.66311984243909e-24 3.82664959295939e-06)
(3.76857038867418e-06 2.27682475179658e-08 -5.0956298761069e-23 3.76878830253984e-06 2.10820188833138e-22 3.76865478321613e-06)
(3.70766487627774e-06 2.12644401186322e-08 2.4741465534415e-23 3.70788027308601e-06 2.24873649134163e-22 3.70774689657611e-06)
(3.64402933467237e-06 1.97986458753922e-08 3.65999344261839e-23 3.64424156129909e-06 1.85783523806835e-24 3.64410878715809e-06)
(3.57784189234422e-06 1.83755813372378e-08 -1.76820647782011e-39 3.57805034835811e-06 3.70614218772874e-38 3.57791860898847e-06)
(3.50926640267496e-06 1.699927569723e-08 6.08869647244919e-39 3.5094705595312e-06 3.53218270944147e-40 3.50934024478635e-06)
(3.43837536605305e-06 1.56727570103258e-08 0 3.4385747451235e-06 0 3.43844621904975e-06)
(3.36514511067032e-06 1.4398255701693e-08 -3.68668741448496e-23 3.36533926826714e-06 -2.53973714228594e-24 3.36521287137402e-06)
(3.28942099565246e-06 1.31773842925459e-08 -4.36978386682127e-23 3.28960947608014e-06 2.12963509468239e-22 3.28948555718867e-06)
(3.21099501623634e-06 1.2011713242827e-08 2.82959070939221e-23 3.21117735063895e-06 2.30346472363644e-22 3.21105626135115e-06)
(3.12952961205468e-06 1.09025800066554e-08 3.43492936587609e-23 3.12970529456845e-06 2.61547564604292e-24 3.12958740894172e-06)
(3.04457398266741e-06 9.85131341861243e-09 3.60807081252531e-28 3.0447424621601e-06 -1.42353193194213e-26 3.04462817497053e-06)
(2.95548074258632e-06 8.85926139088208e-09 8.15151760076911e-28 2.95564137291122e-06 5.81175003999261e-27 2.95553113492838e-06)
(2.86128104367593e-06 7.92772877308689e-09 -1.11026636126909e-27 2.86143306152998e-06 5.57411981501272e-27 2.86132738659135e-06)
(2.76053054820678e-06 7.05804509350026e-09 -5.18273802616553e-29 2.76067293146597e-06 6.00633584992921e-22 2.76057247357274e-06)
(2.65130416832686e-06 6.2530096485723e-09 7.36112340785432e-28 2.65143562756587e-06 5.76151074512493e-22 2.65134121600736e-06)
(2.53065259901617e-06 5.51420143097061e-09 -3.40781951252575e-28 2.53077130093548e-06 7.36267716784551e-27 2.53068400230926e-06)
(2.39515979951785e-06 4.84953210260215e-09 2.46736675703803e-39 2.39526355288098e-06 2.68065928122824e-40 2.39518482190889e-06)
(2.23982174507018e-06 4.25728537902468e-09 4.09696620404921e-40 2.23990771586736e-06 -3.03612282145065e-38 2.23983899432034e-06)
(2.05984156791072e-06 3.75510242995888e-09 -2.44629496484642e-23 2.05990916887203e-06 -2.74332494199039e-24 2.05985182423511e-06)
(1.84336649293642e-06 3.28811947130946e-09 -2.35487126500633e-23 1.84340800934485e-06 5.67313517840765e-22 1.84336452517318e-06)
(1.72514205609254e-06 3.23033651722767e-09 -1.04659879315798e-24 1.7256328264244e-06 5.46847878982181e-22 1.72537226796256e-06)
(1.83867304511283e-06 3.35771608790654e-09 2.14426764527773e-23 1.84044780230089e-06 2.55714352375615e-24 1.8395497986683e-06)
(1.99642686808128e-06 3.21890045256604e-09 -5.61937707704317e-25 1.99940126909015e-06 1.89379621677403e-24 1.99791608434456e-06)
(2.20151364448635e-06 2.8756987987619e-09 1.26582096283429e-24 2.20544375731875e-06 -2.10769300445827e-24 2.20348860266405e-06)
(2.39129578745655e-06 2.17955746291799e-09 -2.13795410701064e-24 2.39539616751704e-06 4.29628793462041e-24 2.39336799730429e-06)
(2.576827184008e-06 1.32255214388459e-09 3.70138086246119e-24 2.58018420669945e-06 -8.4958306181105e-24 2.57853483670345e-06)
(2.75338411932035e-06 3.9176453535486e-10 3.80345762692536e-24 2.75486586369755e-06 -5.78225551844165e-24 2.75415998664314e-06)
(2.93381818294773e-06 -5.24772255539914e-10 -2.50593542301823e-25 2.93212208288621e-06 -2.39270074947286e-26 2.93300123378796e-06)
(3.06744419651404e-06 -1.33517222142329e-09 2.10404174313649e-24 3.06142766398244e-06 -3.44303152967026e-24 3.06445672810985e-06)
(3.14152282185027e-06 -1.99944644073043e-09 2.44636174144363e-24 3.13054914230072e-06 -3.05316787462082e-24 3.13603751745783e-06)
(3.13353827315141e-06 -2.49968137659874e-09 -2.91418700308236e-24 3.11772576919653e-06 3.93877472837706e-24 3.12561298339853e-06)
(3.04281810938264e-06 -2.87485031098422e-09 1.79560625475334e-24 3.02293527588028e-06 -2.33886914026732e-24 3.03283622177884e-06)
(2.84420409157206e-06 -3.05963791882982e-09 -2.14922782405216e-24 2.82212183345624e-06 2.82098643026737e-24 2.83311262213205e-06)
(2.60433423943176e-06 -3.0058634605595e-09 -4.78801623561874e-25 2.58177093042632e-06 7.56820784918664e-25 2.59299797803981e-06)
(2.36276656408349e-06 -2.7790118992462e-09 1.41820546668634e-24 2.34070252082692e-06 -1.78784640219391e-24 2.35167919164663e-06)
(2.13843462814316e-06 -2.46376679474499e-09 -2.82460795738172e-25 2.11732381362807e-06 4.77408096418117e-25 2.12782339645066e-06)
(1.93766497324819e-06 -2.10742409292482e-09 6.99671129046201e-26 1.91770916120335e-06 5.95220981895631e-27 1.92763146780707e-06)
(1.78596034172763e-06 -1.78432998764224e-09 -1.09974632770955e-24 1.76678303921827e-06 1.30920827450743e-24 1.77631264760577e-06)
(1.69173623992149e-06 -1.6096276341224e-09 1.5111779789749e-26 1.67253247361972e-06 4.19005869836454e-26 1.68206726606192e-06)
(1.63418447544778e-06 -1.78522345142887e-09 -1.12782085160737e-25 1.61419858356081e-06 1.35135504143962e-25 1.62411397617275e-06)
(1.61144348487039e-06 -2.36852705134779e-09 4.66596222576256e-27 1.59039514240577e-06 2.60397944925361e-28 1.60083656034612e-06)
(1.67693794963197e-06 -3.76549483550534e-09 1.42929439925758e-26 1.65325037921686e-06 1.23286672418492e-25 1.66499581460785e-06)
(1.77226386003599e-06 -6.44286187390366e-09 5.45861631654765e-27 1.74582030326417e-06 -7.67177501525283e-29 1.75893739890149e-06)
(1.7349023729015e-06 -1.02984422165021e-08 -9.3803688482824e-27 1.70992716797807e-06 1.97472071833251e-26 1.72231971603365e-06)
(1.39464179200363e-06 -1.0390670428174e-08 3.94418613519269e-26 1.38182532680324e-06 1.1393440171923e-26 1.38820367181438e-06)
(1.01770640886609e-06 -6.06879069820619e-09 -2.13722678986241e-27 1.01447990220617e-06 1.73263524213844e-26 1.01609034205198e-06)
(7.3845145129233e-07 -2.51940306480393e-09 1.08800750827472e-27 7.38138353933892e-07 -7.52966191316417e-28 7.38297387208942e-07)
(6.92454611779628e-07 -1.52174296202851e-09 -3.03275313997838e-29 6.92446030184558e-07 1.51130142639172e-31 6.9244983692754e-07)
(2.42407108066088e-05 -3.91248519428361e-07 -6.49509047543836e-31 2.42468230289041e-05 -8.24236993102662e-33 2.42440067112986e-05)
(2.13910626716747e-05 -3.88269875162806e-07 4.41390894091327e-27 2.14256601924865e-05 5.26761920977328e-26 2.1408118116149e-05)
(1.23749775370527e-05 -1.60628201334339e-07 -2.44154144345507e-25 1.24418870342851e-05 3.17369265635723e-26 1.24086859935396e-05)
(4.9332929945934e-06 -5.55391072386398e-09 1.51318359668956e-25 4.93314816879357e-06 4.75981288293111e-25 4.93336477593851e-06)
(1.27260929901795e-06 4.68863148142231e-09 -1.68819899794023e-25 1.26040495073558e-06 -3.34608460357419e-25 1.26655809485214e-06)
(7.69265681747821e-07 1.99723150367402e-09 -2.80041997821258e-25 7.61154880154268e-07 -3.84036144630106e-25 7.65229389962208e-07)
(6.33811126693947e-07 8.52958014963043e-10 -9.9039409128398e-26 6.28628179641876e-07 -1.42368636556037e-25 6.31232520280582e-07)
(3.13944754995799e-07 2.64246350568318e-10 -1.64197811607168e-25 3.1167532673187e-07 -2.16637091876584e-25 3.12813896218073e-07)
(1.97177915521236e-07 1.12640476461801e-10 -1.32770392281142e-25 1.95964430023141e-07 -1.57571636010379e-25 1.96573306032658e-07)
(1.65679016325093e-07 8.36557026478992e-11 5.40866451750261e-26 1.64715631253355e-07 6.33348670669246e-26 1.65198182513109e-07)
(1.64297999491592e-07 8.44346269506197e-11 1.99045045586e-24 1.63412126087051e-07 5.52200347857844e-26 1.63855593714161e-07)
(1.89229873741795e-07 1.12301773567633e-10 -3.31639254790144e-23 1.8816034172501e-07 -4.77936142387011e-23 1.88694826905797e-07)
(2.4057136030376e-07 1.65220208411045e-10 -5.65467743382966e-23 2.39107138668402e-07 -7.12072809443051e-23 2.39838290092508e-07)
(3.25782392387557e-07 2.7420060859208e-10 -5.5421953373929e-24 3.23449519083668e-07 9.69046296519705e-25 3.24613175745568e-07)
(4.62997485254699e-07 4.91292382254965e-10 -1.02740328865261e-25 4.58914495199156e-07 -2.04625117739382e-25 4.60950769651329e-07)
(6.78005560470105e-07 9.36182309752008e-10 -1.22731609811165e-25 6.7035853554207e-07 1.40329422376988e-26 6.74173199279356e-07)
(1.00064315376795e-06 1.80416858581452e-09 -2.48777471596463e-25 9.86403187183618e-07 2.96375261031513e-26 9.93510340085134e-07)
(1.46071543555879e-06 3.54183703707996e-09 -1.28694823132265e-24 1.43522513443472e-06 -9.47243870851362e-25 1.44795349396985e-06)
(2.09250122702088e-06 6.96080430384729e-09 -1.88259522279201e-24 2.04929327870512e-06 -3.29361251845184e-24 2.07087851335198e-06)
(2.92178500808519e-06 1.33725399506005e-08 5.09122827694284e-25 2.85338953076021e-06 -6.19863577717497e-26 2.88756908727006e-06)
(3.94599609611122e-06 2.44577763816795e-08 -4.88727671478921e-24 3.84655965538847e-06 -7.88137443016736e-24 3.89624395100678e-06)
(5.1311974474032e-06 4.20515495699028e-08 2.66413983774905e-26 4.99908001224933e-06 4.59953923879618e-26 5.06506874587354e-06)
(6.44377223161369e-06 6.71229569491764e-08 -2.34729039209587e-26 6.28292039653969e-06 -4.81650869374756e-26 6.36322085628704e-06)
(7.79240490413889e-06 9.79595532423331e-08 1.3418498557868e-23 7.6162577496465e-06 3.45937587382731e-23 7.70413012481094e-06)
(9.01754833081887e-06 1.2964409330509e-07 -6.32737111867892e-24 8.84865754045507e-06 -1.50742748920484e-23 8.93277746058824e-06)
(9.90362961076731e-06 1.56139997362887e-07 -7.21679086754624e-25 9.7671412273617e-06 -9.19763832460933e-25 9.83526889582753e-06)
(1.0426368818393e-05 1.7529138583115e-07 3.91030656476586e-24 1.03347422218208e-05 1.42617217459986e-23 1.03799427843115e-05)
(1.13213045652699e-05 2.30404565429839e-07 -1.39798986914035e-25 1.12616666967324e-05 -3.91642060928152e-24 1.12914376017936e-05)
(1.48498985434928e-05 4.11334157243003e-07 -9.93248643653635e-27 1.47979654227614e-05 -9.50808530140344e-26 1.48237350141052e-05)
(2.04488958703294e-05 7.09165336400483e-07 1.63508895586918e-27 2.03870611980688e-05 4.40895855687532e-26 2.04171019236646e-05)
(2.62951365887841e-05 1.05461105397264e-06 1.09874957756446e-26 2.62303768747207e-05 2.32086397495666e-25 2.62617681234018e-05)
(3.22376699741463e-05 1.43746587712252e-06 -2.55644208552068e-26 3.21717753034152e-05 -1.9510031397386e-25 3.22031760722655e-05)
(3.81686171393207e-05 1.84088158372712e-06 -1.09359267411153e-21 3.81042090129395e-05 1.06909368583207e-22 3.81344860881641e-05)
(4.40575445064808e-05 2.25778161719366e-06 -3.57695830637082e-21 4.39957111231447e-05 1.58330417212107e-20 4.40242255501957e-05)
(4.98686556980497e-05 2.68021056361025e-06 -1.32343448324982e-21 4.98102989399226e-05 1.75373694943803e-20 4.9836664902104e-05)
(5.55982088234514e-05 3.10394934098368e-06 1.63865416355839e-21 5.55439058385859e-05 -1.48808433471843e-22 5.55678298338444e-05)
(6.12306701754473e-05 3.52420268174106e-06 -1.82017940792832e-37 6.1180967649122e-05 2.57616063138215e-25 6.12022224200361e-05)
(6.67583492071011e-05 3.93733257139525e-06 -4.56944880152514e-21 6.67137436246638e-05 3.64497175357553e-22 6.67321104760429e-05)
(7.21668590279917e-05 4.33943021151746e-06 -1.23094513365907e-20 7.21278542522939e-05 -6.12582964151993e-22 7.21431299393444e-05)
(7.74430356353623e-05 4.72698698102238e-06 -2.63110043941353e-21 7.74101152342751e-05 -2.35048392495178e-21 7.74221048304047e-05)
(8.25714653999813e-05 5.09654803508162e-06 5.79026417605295e-21 8.25450806914515e-05 -4.19566569841802e-22 8.25536145207342e-05)
(8.75387764775349e-05 5.44506138237413e-06 -1.45431756308929e-37 8.75193340506974e-05 -4.09467972592817e-25 8.75242659697265e-05)
(9.23339130642899e-05 5.76985259526504e-06 1.53025662130522e-37 9.23217716184423e-05 -9.98701323620449e-39 9.23229837325317e-05)
(9.69518321354241e-05 6.06888579828533e-06 0 9.69473010260517e-05 5.8020749087328e-25 9.69446993980954e-05)
(0.000101390834204613 6.34057975967494e-06 -1.22693346197205e-20 0.000101394162469117 6.66991001212113e-22 0.000101387681564481)
(0.000105660751717304 6.58436816253222e-06 -3.15268257762459e-20 0.000105672107241054 4.48130024620915e-20 0.000105661720784654)
(0.000109747939671853 6.79854528096764e-06 -5.75314243227418e-21 0.000109767402594849 4.50123732453458e-20 0.000109753131729807)
(0.000113545122973732 6.97602369763839e-06 1.41702956694754e-20 0.000113572658058978 -6.67982793346795e-22 0.000113554583133927)
(0.000117041271537619 7.11608409363909e-06 7.23969244682016e-26 0.000117076723610878 -3.83455019638063e-25 0.000117054979246648)
(0.00012022805818233 7.2185578422419e-06 -3.29118212375968e-26 0.000120271164458623 8.30020933278998e-25 0.000120245934180621)
(0.000123100874438385 7.28384866824089e-06 1.02618245049383e-37 0.000123151280374404 -4.2985969906631e-25 0.000123122787779989)
(0.000125658140928601 7.31284392054456e-06 1.10409284941442e-36 0.00012571541469293 -3.39721690064258e-38 0.000125683915981775)
(0.000127901110812021 7.30685657542643e-06 -1.79771091216682e-37 0.000127964759283406 2.41761428222349e-25 0.000127930534488178)
(0.000129833201456791 7.2675397245148e-06 -9.99210670295721e-37 0.000129902681263159 -4.97659335200433e-25 0.000129866028993307)
(0.000131459961377871 7.1968426728692e-06 -3.29944813581416e-38 0.00013153469087033 5.17385770207218e-25 0.00013149592202543)
(0.000132788852937286 7.09695412888087e-06 -4.06210723336506e-37 0.000132868223618365 -5.36521517458441e-25 0.000132827656009887)
(0.000133829056762787 6.97024750973188e-06 6.5509908959451e-37 0.000133912444620735 2.74294119849736e-25 0.00013387039742415)
(0.000134591285281407 6.81922857130552e-06 0 0.000134678062059354 0 0.000134634850762297)
(0.000135087527798102 6.64648055990722e-06 0 0.000135177072405231 3.1991403205749e-26 0.000135133003264908)
(0.000135330492220955 6.4545990014883e-06 -8.95928595546929e-21 0.0001354221992935 -3.20796544571615e-26 0.000135377566075185)
(0.000135333468089859 6.24615629989331e-06 -1.35264402211196e-20 0.000135426756772172 -9.67543683549068e-20 0.00013538183621851)
(0.000135109463519332 6.02363880207713e-06 4.735883401085e-21 0.00013520377890929 -9.85682279838558e-20 0.000135158831413003)
(0.000134671533293844 5.78945255533873e-06 9.13727542167096e-21 0.000134766349422852 6.62591048918865e-23 0.00013472161715293)
(0.000134032404956146 5.54589923535164e-06 7.7896054232626e-37 0.000134127219784398 8.47296801743129e-39 0.0001340829302825)
(0.000133205535175481 5.29521714206997e-06 8.2650821344357e-37 0.00013329987323934 -6.2545755384103e-25 0.000133256238720293)
(0.000132205561898376 5.03956697675674e-06 3.00918380050511e-37 0.000132298985998703 9.67983352267544e-25 0.000132256197559201)
(0.000131047300960078 4.78096663568996e-06 -8.13432310120766e-37 0.000131139418006471 5.90010269378741e-27 0.0001310976441522)
(0.000129745492788256 4.52126702033e-06 8.55856723916388e-37 0.00012983596050442 -3.48438156289246e-25 0.000129795343146641)
(0.000128313311148189 4.26209687389463e-06 -6.05269736995676e-37 0.000128401834446503 8.9296566672898e-36 0.000128362492493387)
(0.000126762688387623 4.00488846922971e-06 -1.07999637860444e-36 0.000126849019620788 -7.22828478462297e-25 0.00012681104752967)
(0.00012510258785306 3.75084070494703e-06 -6.04440195141525e-26 0.000125186514829663 7.15369673640299e-25 0.000125149990343494)
(0.000123340000057574 3.50098848521115e-06 1.04339105932322e-20 0.000123421339065454 4.53940759817552e-22 0.000123386325155131)
(0.000121479446609063 3.25622041841745e-06 1.29299281350276e-20 0.000121558025360582 1.08798893690551e-19 0.000121524579799479)
(0.000119525444430159 3.01737910394434e-06 -7.84721974851829e-21 0.000119601100226469 1.07049521934376e-19 0.000119569276551684)
(0.00011748379519309 2.78526931856094e-06 -1.01830116256852e-20 0.000117556385466018 -5.17628081882051e-22 0.000117526227429824)
(0.000115360156836034 2.56060911325178e-06 3.264015324271e-37 0.000115429561842174 1.7928945783059e-35 0.000115401103235422)
(0.00011315969272938 2.34401595727558e-06 -1.69278600195495e-36 0.000113225820122396 -9.82021270715263e-38 0.000113199081383724)
(0.000110884679516919 2.13597033971877e-06 0 0.000110947455737833 0 0.000110922449396887)
(0.000108534307237581 1.93684917403661e-06 1.02584646645871e-20 0.000108593668263168 7.06699559863511e-22 0.000108570401794324)
(0.000106103633504824 1.74695329290095e-06 1.16679429727317e-20 0.000106159508075355 1.04886868052489e-19 0.000106137993570088)
(0.000103585981058732 1.56658411022163e-06 -8.50621564991418e-21 0.000103638287819545 1.01267507101873e-19 0.000103618541623426)
(0.000100970550295106 1.39602392779302e-06 -9.78224734952711e-21 0.000101019190143725 -7.41945142214296e-22 0.00010100123797768)
(9.82428869344066e-05 1.23557130140813e-06 -1.90856924698112e-26 9.82877366710285e-05 -3.84140790150202e-25 9.8271614650188e-05)
(9.5382317668045e-05 1.08555422041235e-06 1.08188404133457e-25 9.54232118316977e-05 -1.0523176542807e-24 9.54089769890138e-05)
(9.23578310343704e-05 9.46335930268598e-07 8.30692356367764e-21 9.23945480276721e-05 7.51923743642438e-22 9.23822825507677e-05)
(8.91233110938806e-05 8.18357817118619e-07 9.07041385277205e-21 8.91555186386777e-05 -9.71428120172044e-20 8.91453549736593e-05)
(8.56172717825703e-05 7.02302682319291e-07 -6.77802998137337e-21 8.56445228957654e-05 -9.77919352710862e-20 8.56366529025243e-05)
(8.17453048657105e-05 5.98879510392357e-07 -7.341209969047e-21 8.17669145024299e-05 -7.18622192541201e-22 8.17616203573766e-05)
(7.73983878372294e-05 5.09582876164803e-07 -9.34689533954691e-26 7.7413559930274e-05 1.23788656957291e-24 7.74112224208338e-05)
(7.2414754795893e-05 4.35064922316257e-07 9.11236903547177e-26 7.24223829391877e-05 1.98805788927061e-26 7.24234084281426e-05)
(6.66393546793901e-05 3.77915596187747e-07 1.33747163221669e-20 6.66391306358661e-05 1.5022391078732e-21 6.66438474362479e-05)
(5.97086438973315e-05 3.35857907725949e-07 1.28929363511779e-20 5.96980778790011e-05 -7.45051431809391e-21 5.97068808838964e-05)
(5.59137498549851e-05 3.41607271816399e-07 -1.00513434800755e-20 5.59510370940355e-05 -1.19929777939298e-20 5.593575629838e-05)
(5.95668981980341e-05 3.47076415587021e-07 -1.19964801794349e-20 5.97508298064761e-05 -1.43745419984513e-21 5.96600644922041e-05)
(6.46542589053063e-05 3.07953919894523e-07 -5.61302396568132e-23 6.49555179861024e-05 2.78721815614039e-22 6.48054650173365e-05)
(7.12568014571034e-05 2.3567367875382e-07 -2.11125710436138e-22 7.1622697385522e-05 3.93435439619807e-22 7.14379633899795e-05)
(7.74288616676091e-05 1.20745048408119e-07 3.14779263058102e-22 7.77377488266335e-05 -8.07764246524946e-22 7.75804807602624e-05)
(8.35079273840274e-05 -1.08260285275142e-08 -1.33610760308403e-21 8.36213140075013e-05 2.6546133037047e-21 8.35602110167423e-05)
(8.93671847896053e-05 -1.45620347353035e-07 -5.45365448326057e-22 8.91234094964065e-05 9.99659033583677e-22 8.92407369921997e-05)
(9.53766109565067e-05 -2.73251490850195e-07 7.93211008964292e-23 9.45933753852392e-05 1.00524951555339e-23 9.49807373588071e-05)
(9.99198997897777e-05 -3.79416457660165e-07 -4.28250800185705e-22 9.84508281959346e-05 6.3336396821977e-22 9.9183483727529e-05)
(0.000102559260496087 -4.60346416111822e-07 -3.52585134154062e-22 0.000100331311622393 5.76449406376219e-22 0.000101446413596403)
(0.000102548838934701 -5.14902271961391e-07 4.81969179014897e-22 9.95984941917943e-05 -6.86133247375229e-22 0.000101078688872879)
(9.98182806279736e-05 -5.50398881404304e-07 -3.35189440406813e-22 9.6273703534164e-05 4.3070541318894e-22 9.80540635032183e-05)
(9.3551649787062e-05 -5.59736008978774e-07 7.70290153729428e-22 8.96948879616176e-05 -1.00979455073177e-21 9.16335503936699e-05)
(8.58686201251981e-05 -5.37471511509441e-07 1.82382801788385e-23 8.19545551424785e-05 -1.22400283246581e-22 8.3922081381171e-05)
(7.80627624056884e-05 -4.90514003342868e-07 -2.27786877008656e-22 7.42476801492564e-05 3.31939223202757e-22 7.61657271352173e-05)
(7.07707504111382e-05 -4.30843610305014e-07 -1.43466919227089e-22 6.71299246773357e-05 1.78374725426296e-22 6.89606758262611e-05)
(6.42259585991211e-05 -3.66068622914896e-07 -1.59307329321108e-22 6.07922966213062e-05 1.92647835650914e-22 6.25194720611912e-05)