/*--------------------------------*- C++ -*----------------------------------*\
  =========                 |
  \\      /  F ield         | OpenFOAM: The Open Source CFD Toolbox
   \\    /   O peration     | Website:  https://openfoam.org
    \\  /    A nd           | Version:  7
     \\/     M anipulation  |
\*---------------------------------------------------------------------------*/
FoamFile
{
    version     2.0;
    format      ascii;
    class       volVectorField;
    location    "20000";
    object      U;
}
// * * * * * * * * * * * * * * * * * * * * * * * * * * * * * * * * * * * * * //

dimensions      [0 1 -1 0 0 0 0];

internalField   nonuniform List<vector> 
15600
(
(0.0302371174558211 -2.06432671422171e-05 0)
(0.0368979776927666 -0.000917639304613417 2.05659296728882e-20)
(0.0234867148657973 -0.00298964448221008 -2.62082335745274e-24)
(-0.00455288565979289 0.000958233660812481 -9.23424082955615e-22)
(-0.0147159687958482 0.00666472351432768 -5.38159704365203e-23)
(-0.0117238263176444 0.00715815437118308 -1.95929940341309e-18)
(-0.00750295129964499 0.00540257632100423 -2.18846386860004e-18)
(-0.00576914648452405 0.00454368611742434 -2.48504295181351e-18)
(-0.00427337530172357 0.00355467923015525 -2.76318869005109e-18)
(-0.00362944033991533 0.00305783368797255 3.09536549941652e-18)
(-0.00298711915621303 0.00250041806375579 3.4385105720826e-18)
(-0.00286332863103442 0.00235125065756333 -9.19910516248768e-22)
(-0.00279546051362979 0.00227137182691445 0)
(-0.0030490609576765 0.00244745176198909 0)
(-0.00351810564145835 0.00279824160591076 4.799782650573e-18)
(-0.0043227067961028 0.00340195890436446 -2.51269339822576e-21)
(-0.00528453287965466 0.00410949182335087 2.65139781490717e-21)
(-0.00633281355956318 0.00479982841034449 -1.1626716954372e-17)
(-0.00738941638523716 0.00536763049340534 -6.20086675339149e-18)
(-0.00834767921042312 0.00569833348113639 -1.29625112467648e-20)
(-0.00902823713624112 0.00565591733780945 -7.0922192315449e-18)
(-0.00942020083886531 0.00524943907751802 7.44529007702151e-21)
(-0.00960408853060669 0.00461303929643077 8.26992526300969e-23)
(-0.00946725515702374 0.00378688832966168 7.68659442973503e-23)
(-0.00890817482240209 0.00282089644872767 -4.44548325591438e-18)
(-0.00826168902107761 0.00189217593215899 8.60730315948466e-21)
(-0.00690056837389158 0.000935676872169805 0)
(-0.00788979807405201 0.000341915940353819 0)
(-0.0134904606423818 7.96582913133259e-05 8.99871229661361e-21)
(-0.0191060097804451 9.08105909066224e-05 -1.79914826398506e-20)
(-0.0235233377796307 0.000104747433887899 8.99736913199134e-21)
(-0.0273954821875574 0.000115138293187635 9.18806204146537e-21)
(-0.0306256732930546 0.000124015222120749 -9.16894439538278e-21)
(-0.0333903862021077 0.000130514719698632 6.83330851911845e-32)
(-0.0357462109664203 0.000135557786451684 0)
(-0.0377753214815959 0.000138990616792788 0)
(-0.0395215920123664 0.000141133357774834 1.0132927982911e-20)
(-0.0410256087468492 0.000142007577689129 2.66962277327816e-22)
(-0.0423130780789261 0.000141749464277155 -9.09350372776278e-16)
(-0.043405027443481 0.000140408406425842 -9.43709802499173e-16)
(-0.0443166316288139 0.000138077446904713 2.22148570922658e-20)
(-0.0450606208427314 0.000134822110214275 -1.12588516904487e-20)
(-0.045647124701759 0.00013071969097772 0)
(-0.0460847618245856 0.000125835795515739 0)
(-0.0463808278642662 0.000120241379830982 0)
(-0.0465420883418705 0.000113994524675345 -1.1085145573611e-15)
(-0.0465750362105045 0.000107155097157463 -1.14854936326317e-15)
(-0.0464859401877599 9.97938092257599e-05 6.68022304601256e-21)
(-0.0462813867923941 9.19965013176297e-05 0)
(-0.0459682987392461 8.38378337428562e-05 -1.04225793371036e-31)
(-0.0455537281865514 7.53883484180735e-05 -1.07102284442056e-31)
(-0.0450447836086402 6.6716403316515e-05 0)
(-0.0444485290684699 5.78840609292649e-05 1.12936517107596e-31)
(-0.0437719223123971 4.89508772681313e-05 -1.15881568317557e-31)
(-0.0430218292281742 3.99714189622478e-05 0)
(-0.0422049786897367 3.09964855094658e-05 -1.21798230608112e-31)
(-0.0413279532913274 2.20719909712678e-05 0)
(-0.0403971599403367 1.32397964503452e-05 0)
(-0.0394187792805332 4.53572903322256e-06 5.67293491133223e-22)
(-0.0383987408572844 -4.00758189283707e-06 -5.67679478214027e-22)
(-0.0373426670848658 -1.23648507365888e-05 -1.6307516371125e-15)
(-0.0362558760906494 -2.0511894557327e-05 -1.66451379229845e-15)
(-0.0351434037654817 -2.8431460229737e-05 -1.42278274482625e-31)
(-0.0340100314300087 -3.61061455137803e-05 0)
(-0.0328604708341504 -4.35206776620839e-05 -5.12902851632891e-21)
(-0.031699228553149 -5.06665264326965e-05 5.13310573401471e-21)
(-0.0305305372966163 -5.75367388553616e-05 0)
(-0.0293582469947829 -6.4132170333478e-05 0)
(-0.0281858120950055 -7.04516196774368e-05 1.58872526751518e-31)
(-0.0270162803219998 -7.65013525933827e-05 -1.6151550597344e-31)
(-0.0258523261853532 -8.22826494561608e-05 0)
(-0.0246963703375493 -8.78023527644809e-05 1.66685903784051e-31)
(-0.0235506688212225 -9.30610918743492e-05 2.0274448511726e-15)
(-0.0224176426146912 -9.80604461085703e-05 2.0440118160131e-15)
(-0.0212996677726898 -0.000102807219664051 0)
(-0.0201990345465674 -0.000107307320608926 3.53096388749442e-31)
(-0.0191178243881352 -0.000111572719600508 0)
(-0.0180579044223825 -0.000115610696356421 0)
(-0.0170210079148396 -0.000119431741930193 0)
(-0.0160089617911291 -0.000123037639318821 2.22955506641596e-15)
(-0.0150238596641784 -0.00012643548608518 2.23372814590694e-15)
(-0.0140681296725007 -0.00012962661141887 0)
(-0.0131446216263644 -0.000132617916925527 2.65566036500868e-20)
(-0.0122569239611367 -0.000135407055874967 -2.65735601499733e-20)
(-0.0114096457639532 -0.000137999475865102 -2.71177985545903e-20)
(-0.0106088365860812 -0.000140385106283437 5.45237833885804e-20)
(-0.00986424137439264 -0.000142550931689717 -2.74052074396809e-20)
(-0.00918696677944933 -0.000144507139682021 -2.02233962955219e-31)
(-0.00860153694099722 -0.000146153552140616 0)
(-0.00812391551534811 -0.000147704585613339 -4.11881182256412e-31)
(-0.00781789467477177 -0.000149231070258772 0)
(-0.00761725146094044 -0.000149898517725617 2.41694629784129e-15)
(-0.00792262788875001 -0.000409769661418706 2.39983447233398e-15)
(-0.00794515720753693 -0.00108191116191748 0)
(-0.007572148398234 -0.00164871504144184 2.98597161749616e-17)
(-0.00694278614831903 -0.00206117448974107 1.47002109908129e-17)
(-0.00579921290306624 -0.00214387860195992 -2.87025199042654e-17)
(-0.00429079256433467 -0.00185954328977787 5.55505037832012e-17)
(-0.0023182921787877 -0.00108093584850646 -2.70867103004689e-20)
(0.000245015774513504 0.000333965528881186 -2.49449091562659e-20)
(0.00338892769749857 0.00241403345172266 2.42176273904271e-17)
(0.00703539115508362 0.00506312723393232 2.3015551456282e-17)
(0.0110303249929928 0.00810620155837371 0)
(0.0152737700867119 0.011362977555459 2.06166330528355e-17)
(0.0192775613826277 0.0144099328139034 -5.30146916787686e-23)
(0.0227653269039312 0.0171363915668399 1.81936638852362e-17)
(0.0259943463452437 0.0198006768905 0)
(0.0292143834659884 0.0226102148289909 1.55214774578497e-17)
(0.0325648690581287 0.0257033739772053 3.47279447067575e-21)
(0.0365917264175297 0.0295178043015964 -1.25043156463291e-17)
(0.0422288273285179 0.0345491321830264 -1.03826138514212e-20)
(0.0503820312958896 0.0406094683359634 9.11993300414098e-18)
(0.0601584442067404 0.0462810169000708 -5.77280566000263e-22)
(0.0740728270922892 0.0520394568653746 5.3316317416175e-18)
(0.0915448311876954 0.0550438740119751 -6.21893791821219e-23)
(0.111332233778188 0.050577326603104 -6.05902869197365e-19)
(0.107484346705152 0.0295715589070907 -1.85845903419409e-21)
(0.0742123783451874 0.00942598601917604 6.53727461452641e-23)
(0.0388318412591778 0.00108836853738609 -1.08849948269502e-19)
(0.0241911805285273 5.35575804918395e-06 1.59586960619708e-23)
(0.09569508512193 -0.000212773501236316 0)
(0.112552830285356 -0.0026810091234718 1.12718085485402e-23)
(0.0761844426288682 -0.00868021948691888 -5.88657879548617e-20)
(-0.00453879682013183 0.00204271023230838 -2.70116401477264e-21)
(-0.0396970837857547 0.0190016208444171 -6.34614480831669e-23)
(-0.0333753941817277 0.0208331563321386 3.02486856125281e-18)
(-0.0217190370411633 0.0158722247894818 0)
(-0.0167519635522149 0.0134000801486834 2.32523140776089e-21)
(-0.0125723938167398 0.0105554633055201 -5.28061901534552e-22)
(-0.0107257353545455 0.00909970618255648 5.77155078308568e-22)
(-0.00898417552550547 0.00750305664058584 0)
(-0.00867083965683251 0.00707838250807872 -1.66843465405776e-15)
(-0.00858888179748801 0.00689067577854272 -1.84868936237031e-15)
(-0.00941702467437585 0.00745344387231501 0)
(-0.0108900321699636 0.00854427184572492 -1.47918040687776e-17)
(-0.0132831897307887 0.0103559105383737 0)
(-0.0161109297501842 0.0124569302212196 -8.21065373887752e-21)
(-0.0191658635808634 0.0144865688868831 1.77962764710515e-17)
(-0.0222312021690894 0.0161340462293693 9.46598145477185e-18)
(-0.0250245571735533 0.01706789666125 0)
(-0.0271294499097509 0.0169302048971858 0)
(-0.0285446794801526 0.0157574453880015 0)
(-0.0294435039285083 0.0139042689974589 -1.19256750438391e-20)
(-0.0295467364960328 0.0114863484469057 1.2419005284325e-20)
(-0.028659286594371 0.0086691722473493 0)
(-0.0274619495723144 0.00587751691407949 6.86060292951907e-18)
(-0.0252953001439157 0.00318004351117379 0)
(-0.0297408803490699 0.0015848853215686 -1.34294068547979e-20)
(-0.0452027395133747 0.000812395240652623 -4.30994710165668e-22)
(-0.0602904463917717 0.000699334048063675 1.29769304956134e-20)
(-0.0721138386778489 0.000590897433092589 -1.30379203141252e-20)
(-0.082246690685758 0.00049969660987386 1.29141677640702e-20)
(-0.0906224770545374 0.000424156247201439 0)
(-0.0977120970150468 0.000361716805414223 9.91066778069363e-16)
(-0.103700309349331 0.000311012123197646 1.01918267241208e-15)
(-0.108804463476416 0.000268425855641666 0)
(-0.113147616933022 0.000232220298262595 0)
(-0.116836840349399 0.000200480380949956 1.03605525224606e-31)
(-0.119942278710588 0.0001721296106966 2.36656712150756e-15)
(-0.122520557724906 0.000146261914913829 2.42369120576486e-15)
(-0.12461362959719 0.000122383818476026 0)
(-0.126256571983585 0.000100091511837324 5.72613089611087e-32)
(-0.127477747066467 7.91282742538617e-05 0)
(-0.128301418036956 5.92804593782766e-05 0)
(-0.128748432146776 4.04175725604289e-05 0)
(-0.128838342651979 2.24417360765264e-05 4.17916888097454e-15)
(-0.128590100047864 5.32321463994914e-06 4.30655413457538e-15)
(-0.128021844156045 -1.0927770502239e-05 9.43930646698442e-21)
(-0.127152562338997 -2.62624985842121e-05 -9.44071268156031e-21)
(-0.126001679232268 -4.06560948382239e-05 1.43236590328031e-31)
(-0.124588709027021 -5.41014596231089e-05 1.47269744250165e-31)
(-0.12293307422081 -6.65985506735258e-05 0)
(-0.12105390394929 -7.81635347004082e-05 -1.55562066340216e-31)
(-0.118969916516198 -8.88100387768557e-05 1.598051948623e-31)
(-0.116699450887924 -9.85567771797242e-05 0)
(-0.11426037652971 -0.000107423292028824 1.68447354547246e-31)
(-0.111670073358121 -0.000115433102878949 0)
(-0.108945359952464 -0.000122612185835405 0)
(-0.106102392133604 -0.000128995077374633 0)
(-0.103156597452746 -0.000134615566466685 0)
(-0.100122582948831 -0.000139519161821216 2.27620284434104e-15)
(-0.0970141495987325 -0.000143739620394743 2.33100063908583e-15)
(-0.0938443771105395 -0.000147317611324204 1.99621651115435e-31)
(-0.0906257295199181 -0.000150272612493982 0)
(-0.0873703976713184 -0.000152619114411104 0)
(-0.084089992402264 -0.000154391983476584 -2.13075453741456e-31)
(-0.0807953643501545 -0.000155627677530985 0)
(-0.0774963899778758 -0.000156384558677966 0)
(-0.0742019386936894 -0.000156706040003308 -2.26398680549699e-31)
(-0.0709198886884825 -0.000156653201285725 2.30792832258907e-31)
(-0.0676572291162842 -0.00015625763764613 0)
(-0.0644203738197156 -0.00015555604740369 1.65753655545974e-20)
(-0.0612154320158689 -0.000154544056762152 -2.90180805893328e-15)
(-0.0580488672239048 -0.000153210281703326 -2.97236945453228e-15)
(-0.0549270193495984 -0.000151567562281739 0)
(-0.0518559898614526 -0.000149627568411777 -5.12934873843443e-31)
(-0.0488413902212043 -0.000147426151524883 0)
(-0.0458883677214891 -0.000144977772946943 0)
(-0.0430018669221765 -0.000142296072815922 0)
(-0.0401871932869379 -0.000139345966576831 -3.24067126790529e-15)
(-0.037450439757215 -0.00013609831829303 -3.3215989981904e-15)
(-0.0347986908318565 -0.000132491804125948 -4.08244558934426e-22)
(-0.0322403187894723 -0.000128463533731858 3.88901911290912e-20)
(-0.0297858377151208 -0.000123882070922318 0)
(-0.0274487420204325 -0.000118595675439272 0)
(-0.0252469668496528 -0.000112282697873626 -3.08398487293672e-15)
(-0.0232080320044862 -0.00010450155270614 -3.0800694962073e-15)
(-0.0213655100372959 -9.458814672136e-05 -4.14242872237561e-20)
(-0.0197853822927005 -8.13624809184168e-05 0)
(-0.0185214454665505 -6.42401874328689e-05 6.19189098237968e-31)
(-0.0177354164685317 -4.25201000446579e-05 -4.31727269227125e-20)
(-0.0173646269730303 -9.62548608216602e-06 -6.88757743039771e-15)
(-0.0182414050616016 -0.00063553681600424 -6.95289884268527e-15)
(-0.0181608578348041 -0.00234960954221348 8.79783745139515e-20)
(-0.0169230901078991 -0.003737221809184 -4.50162158705186e-17)
(-0.0149221982540111 -0.0046766056666863 0)
(-0.0116004032279884 -0.00469796730624408 4.25502560131482e-20)
(-0.00732450164407902 -0.00369753922429334 -3.78885108117116e-20)
(-0.00186817075996893 -0.00134274680185804 4.058330892738e-17)
(0.00506406559855243 0.00273084174212409 -3.79098700220793e-20)
(0.0134103078762857 0.00858484373638382 -2.2223078597561e-22)
(0.0229918856230826 0.015963127998704 3.37790754531921e-20)
(0.0334521999668671 0.0244100138869806 -3.27855014854213e-17)
(0.0445717596824482 0.0334518028448954 3.0175218186241e-20)
(0.0552324806600478 0.0420121556038265 -2.92170823651752e-17)
(0.0647449854312996 0.0498025706387304 -2.73780483309998e-17)
(0.0736064223271402 0.0574580131303194 2.54307419950573e-17)
(0.0824276155299103 0.0655402470728932 -2.33973764464314e-17)
(0.0915858344232944 0.0744476452787447 -5.38833928313954e-21)
(0.102421916756544 0.0853500377476921 -1.89017017192865e-17)
(0.117317127338699 0.0995634633649515 -2.76986832395133e-20)
(0.138867273473554 0.116589770187737 -1.37720433487855e-17)
(0.16542375185848 0.132689190775681 0)
(0.203002090117608 0.148783228104364 -8.07135541231831e-18)
(0.250909191865509 0.157086212027655 8.42081390359348e-23)
(0.30646883021929 0.144643689191743 -5.05155901571061e-23)
(0.305805452432965 0.0869042354282495 -3.52319316667649e-21)
(0.22551370947124 0.0296075594649934 -8.47950587746586e-19)
(0.129081104379034 0.00420243188232301 1.6563691652555e-19)
(0.0839530677551481 0.000130535484234981 0)
(0.167985410348238 -0.000517179514939966 0)
(0.191680481262339 -0.0044021329086556 1.15757537213144e-23)
(0.135757181774766 -0.0144399979364924 -1.15715036730989e-23)
(0.00493949002391323 0.001091553441816 -8.64810390382269e-19)
(-0.0607016128719946 0.0294637716588069 2.52804531311645e-18)
(-0.0538573637881721 0.0333828380448352 3.12171393686668e-18)
(-0.0355976771949713 0.0257548433822795 3.15779618507036e-24)
(-0.0275507904459818 0.021854924108631 3.98240406749494e-18)
(-0.0208704843809279 0.0173854831328726 4.4295913524723e-18)
(-0.0178555160358751 0.0150458925429514 5.98589768817025e-22)
(-0.0151208562559436 0.0125574813402493 -5.5149135933001e-18)
(-0.0146494953317451 0.0119205232818357 1.74665230711581e-15)
(-0.0146397416823402 0.0117336620271316 1.90349220269607e-15)
(-0.0160985911387485 0.0127655608395264 -7.14017503078795e-18)
(-0.0186362651805954 0.0146846606326365 7.6406009097894e-18)
(-0.0226187932573072 0.0177325369187515 -3.94757009091809e-21)
(-0.027286407922844 0.0212153406919298 8.43509230635658e-21)
(-0.0322971823721548 0.0245361690609954 -9.12555549493742e-18)
(-0.037306984007897 0.0271903793067473 1.88732187569526e-20)
(-0.0418903156778999 0.028656416424891 -2.00433539772937e-20)
(-0.045494377318922 0.0284322050247647 1.05858696082756e-20)
(-0.0481673245202997 0.0265937643899769 -2.27336051113868e-20)
(-0.0501439812510384 0.0236481022419768 2.37445722933751e-20)
(-0.0510481491331724 0.0197731513088995 -1.28489029916719e-17)
(-0.0506749819117034 0.0152319138524099 -1.91608697615106e-22)
(-0.0498759074806157 0.0106026658578393 2.66067402856957e-20)
(-0.0488577670917121 0.00626069668067747 -3.49808792697077e-18)
(-0.0579786166981861 0.00355639280325551 8.63580065162167e-19)
(-0.0818039668888829 0.00221586392702512 2.5585956826476e-20)
(-0.104485521934102 0.00190289572392143 -2.46067812532262e-20)
(-0.12211588636058 0.00157695370190869 -1.22626468699687e-20)
(-0.136905215025611 0.00131650418125952 2.4280758440129e-20)
(-0.148995371158276 0.00110271448347619 2.02571263435593e-22)
(-0.159099990623127 0.000929464963739776 -9.2621747749207e-16)
(-0.167537231200015 0.000788679259337781 -9.21712302173422e-16)
(-0.174632386182558 0.000671003613223475 1.23219587956333e-20)
(-0.180577668146149 0.000570760688606223 0)
(-0.185533325007781 0.000482975668543987 0)
(-0.189607431113287 0.000404558894585199 -9.94325404681685e-16)
(-0.192886691742564 0.000333165409965854 -1.00386777758308e-15)
(-0.195436831786361 0.000267400930373959 1.3498545677772e-20)
(-0.197312806600483 0.000206191537349026 0)
(-0.198559666419212 0.000148809085316318 0)
(-0.199216110682285 9.46478586109766e-05 -1.492898880489e-20)
(-0.199315584241065 4.33206453137668e-05 7.22281498600065e-21)
(-0.198889395324818 -5.31997722191781e-06 -2.34368735487711e-15)
(-0.197968508427409 -5.12840679971989e-05 -2.38590749607378e-15)
(-0.196584263732368 -9.45841581138003e-05 8.03355485676368e-21)
(-0.19476689228938 -0.000135161629912834 8.47760910303389e-21)
(-0.192546758947131 -0.000172980721647769 -1.71668225900663e-20)
(-0.189953894822768 -0.000208047185846132 8.69409682117543e-21)
(-0.187017784201027 -0.000240386380168196 0)
(-0.183767154766899 -0.000270056940142726 -4.70323626712951e-21)
(-0.180229878239998 -0.000297113482604575 9.53438832897724e-21)
(-0.176433023421065 -0.000321620993338962 -9.78657719388016e-21)
(-0.172402771200534 -0.000343647693740053 1.00438594345886e-20)
(-0.168164402072357 -0.000363271232160001 -5.09341498719327e-21)
(-0.163742217006332 -0.000380576999013331 0)
(-0.159159431728256 -0.000395668913762203 0)
(-0.154438109228152 -0.000408651545157911 0)
(-0.149599084724731 -0.000419650341395553 1.43912517966613e-21)
(-0.144662021858011 -0.000428765356747226 -1.44512273013954e-21)
(-0.139645557838952 -0.000436102957408829 0)
(-0.134567484402192 -0.00044172374175833 0)
(-0.129445098211844 -0.000445682987403961 6.32663176332036e-21)
(-0.124294800051352 -0.000448083209508044 -1.28320417969448e-20)
(-0.119131865445593 -0.000449036173779032 -1.11610984555913e-22)
(-0.113970203469301 -0.000448696848019029 6.65631547225966e-21)
(-0.10882234444774 -0.000447190425429828 0)
(-0.103699494496256 -0.000444669780932307 1.41290319752535e-20)
(-0.098611728554976 -0.000441221632475029 -1.42146682498613e-20)
(-0.0935684233681945 -0.000436927922730579 0)
(-0.0885786791046773 -0.000431778560161701 1.503120341193e-20)
(-0.0836520465209359 -0.000425752517472505 -3.04610327197351e-20)
(-0.0787978924374986 -0.000418885305368883 1.54330586642131e-20)
(-0.0740252556868962 -0.000411215369734982 0)
(-0.0693425563139319 -0.000402827334367093 0)
(-0.0647577121335013 -0.000393754430447384 0)
(-0.0602785591943232 -0.000384009793307695 0)
(-0.055913656358647 -0.000373494246836136 3.43224897799591e-20)
(-0.0516728529128623 -0.000362107373192831 3.79085673847399e-22)
(-0.0475676572953581 -0.000349672232195105 -7.07183307993017e-20)
(-0.0436117277049591 -0.000335981882576426 3.5790104517018e-20)
(-0.0398221967996812 -0.000320656129187993 0)
(-0.0362210587019392 -0.000303211007797486 0)
(-0.0328376699659546 -0.000282714374217216 2.83308780504785e-15)
(-0.0297157071294969 -0.000257896450925496 2.92041429232561e-15)
(-0.0269103726617855 -0.000226715265597489 0)
(-0.0245226221936735 -0.000186171969977797 -3.99227356409385e-20)
(-0.0226453970187386 -0.000133534156577275 -3.41080292848282e-22)
(-0.0215203616038535 -6.58895810379558e-05 4.09371180766865e-20)
(-0.0211617917641552 3.27317055000063e-05 3.12545288010393e-15)
(-0.022513131267562 -0.000719890768820761 3.21712707325174e-15)
(-0.0221334351813659 -0.00290892200810155 0)
(-0.0199461503647524 -0.00452676582553469 2.15892445401609e-17)
(-0.0165630724999254 -0.00543483294731188 0)
(-0.0113132008928821 -0.00495658016784312 0)
(-0.00467511073312964 -0.00294903388322613 -4.04077105498265e-17)
(0.00366153094791719 0.00105407180232104 -3.88435273351105e-17)
(0.0141307448712642 0.00754563397786907 0)
(0.02664382850219 0.0165944536667431 -3.42776161084146e-20)
(0.0409832761642359 0.0278445254361013 3.23604384419211e-20)
(0.0566721947311806 0.0406720649828423 3.15180184017435e-17)
(0.0734191326307585 0.0544097037677114 2.9259536815602e-20)
(0.0897217163830591 0.0676088973934126 5.68963015938513e-17)
(0.104578103618374 0.0798607401591126 2.68666497840926e-17)
(0.118539190049253 0.0919824551307931 -2.51518038370473e-17)
(0.132460356134479 0.104778873748491 -2.27036048440663e-20)
(0.146926241730725 0.118865337438942 -2.12239090666657e-17)
(0.163878400435605 0.135909221613795 1.8994225031821e-17)
(0.186847489186789 0.157772991952816 -2.5741288367642e-20)
(0.219921957200842 0.183725138357175 1.39193052718104e-17)
(0.261243272891288 0.208504196392551 1.5077392261273e-22)
(0.319160634185811 0.232721980791108 -1.4020986468997e-22)
(0.393181616235444 0.24494287627496 4.53245409071965e-18)
(0.479791789953007 0.225820630959379 -8.40144985917434e-19)
(0.489912281514262 0.139937465931125 2.10238346499515e-21)
(0.380492020509141 0.051294706722377 1.7037973355708e-18)
(0.233393774400691 0.0086630514637425 1.18097847409602e-22)
(0.156910784180287 0.000540262550144131 -2.49714766778089e-23)
(0.247847977363353 -0.000854670896185909 0)
(0.274514168925697 -0.00605790133730968 0)
(0.202270011112144 -0.0202208697736697 6.15003448938176e-20)
(0.0246446468361815 -0.00174366822019573 0)
(-0.0770378614537456 0.0380690303743749 -2.60579948021131e-18)
(-0.0728894887120961 0.0448144890809424 -3.22987546192939e-18)
(-0.0489962498223268 0.035031402192952 5.02282460093008e-23)
(-0.0380700650307861 0.0298977249405356 -1.93555769411779e-22)
(-0.0291116843601896 0.0240308659898943 -4.59297909200449e-18)
(-0.0249830944204982 0.0208903636359305 5.14734989311014e-18)
(-0.0213837106710961 0.017655189232525 3.33152693101182e-22)
(-0.0207989524638003 0.01687430144751 0)
(-0.0209600219195036 0.0167955629512468 -1.36932386234286e-17)
(-0.0231134562157409 0.0183796033372569 1.47506722409138e-17)
(-0.0267773853357277 0.0212088898469777 -3.82510266006308e-21)
(-0.0323415537225892 0.0255137008965358 -8.17111557229305e-21)
(-0.0388043940792398 0.0303546564861389 8.54344334305398e-21)
(-0.0456940588923372 0.0349043581293538 9.27441821201779e-18)
(-0.0525547470190342 0.0384792974887582 -9.49241143452906e-21)
(-0.0588612047732191 0.040403502720178 0)
(-0.0640219176987994 0.0401010275206183 1.08825181334916e-17)
(-0.0681666155099461 0.0376904951897253 1.14492026926002e-17)
(-0.0715713544531341 0.0337763173704466 2.35052268591101e-20)
(-0.0738372530025442 0.028589407162772 -2.36283325874604e-20)
(-0.0748132360053003 0.0224636185615064 6.37486050538369e-18)
(-0.0755024070753433 0.0160936459953703 2.5403929131724e-20)
(-0.0773153984583523 0.0102071850706456 5.71600577521527e-23)
(-0.0915012102206048 0.00622716420916321 -3.5656031624931e-23)
(-0.121450952456426 0.0042238946163356 0)
(-0.149065117381819 0.00361296901461258 0)
(-0.170120329406169 0.00295590436911349 8.05693294934074e-16)
(-0.187307804782993 0.00244645218771724 8.02880464843007e-16)
(-0.201082480319525 0.00203289557726083 0)
(-0.212355669613575 0.00170147659208744 0)
(-0.221568176522183 0.00143200440786964 -7.72591793760937e-16)
(-0.229126032615803 0.00120694420059271 -7.84147547676943e-16)
(-0.235277045605469 0.00101464224367186 0)
(-0.240221469261168 0.000845976315360295 0)
(-0.24409803981837 0.000695035408027179 0)
(-0.247017808545217 0.00055756305390343 0)
(-0.249066642336906 0.000430912192431767 -1.08907568100384e-20)
(-0.25031626355666 0.000313092682408879 1.07485971436165e-20)
(-0.250825918435947 0.00020269237623848 0)
(-0.250646301821328 9.85651382731381e-05 -1.14480083540617e-20)
(-0.249821045575195 1.83019223715483e-07 1.13276795509764e-20)
(-0.248394546109005 -9.25775925982829e-05 0)
(-0.246410009591405 -0.0001798556395829 0)
(-0.243906633148578 -0.000261781410027447 6.17078097998445e-21)
(-0.240922354235317 -0.000338324083890344 -6.12645173702721e-21)
(-0.237494383517507 -0.000409472016035149 6.43206061666015e-21)
(-0.233658812742461 -0.000475282126116023 -6.39889577032149e-21)
(-0.229450498292316 -0.00053584316910981 0)
(-0.224902938712664 -0.000591291582270267 -3.43468360334277e-21)
(-0.220048277652689 -0.000641756170816051 3.42644340223295e-21)
(-0.214917403451757 -0.000687379603234658 0)
(-0.20953991883772 -0.000728309387675429 0)
(-0.203944166855936 -0.000764707284397352 0)
(-0.198157185719388 -0.000796748134357438 0)
(-0.192204639978158 -0.000824634232274411 0)
(-0.186110798271872 -0.000848568913831395 0)
(-0.179898498979377 -0.00086878142090346 0)
(-0.173589276139247 -0.000885458405022596 0)
(-0.167203530075305 -0.000898786370105203 0)
(-0.160760758269603 -0.000908880695844182 0)
(-0.154279836123123 -0.000915856271293071 4.53424401271778e-21)
(-0.147778580506445 -0.000919906614252053 -4.55937562767129e-21)
(-0.141273549467105 -0.000921245005130312 -4.7480593051339e-21)
(-0.134779819949139 -0.000920146889436936 1.4494511728266e-20)
(-0.128311043967297 -0.000916841595128987 -9.78236113276938e-21)
(-0.121879518558018 -0.000911588298904468 1.01669939791806e-20)
(-0.115496479550111 -0.000904536654855993 -1.02440814930743e-20)
(-0.109172546891927 -0.000895809925814841 -1.06335001103462e-20)
(-0.102918227132734 -0.000885383273980089 1.07214412121818e-20)
(-0.0967445474098189 -0.000873223019933524 0)
(-0.0906623446641903 -0.000859390966810788 0)
(-0.0846821576633155 -0.000843958443513425 2.32313196243184e-20)
(-0.0788139569910484 -0.000827059494592282 -2.34527639586796e-20)
(-0.0730673863628866 -0.000808736420846538 0)
(-0.0674522721788466 -0.000788973441158079 0)
(-0.0619795656064326 -0.000767565440185681 0)
(-0.0566619335302644 -0.000744283675406522 0)
(-0.0515143035515634 -0.000718763782086007 0)
(-0.0465544718130959 -0.000690551615067447 0)
(-0.0418047772011118 -0.000658870264546818 0)
(-0.0372939421980644 -0.000622683247386626 0)
(-0.033060294955526 -0.000580103379509642 0)
(-0.0291597534067309 -0.000528583771173095 0)
(-0.0256642081267815 -0.000463860718824764 0)
(-0.0226995318437821 -0.000380381474106526 0)
(-0.0203903158005721 -0.000271069729237894 0)
(-0.0190373542517006 -0.000129986507033884 0)
(-0.0187502559871274 7.13090032330842e-05 0)
(-0.0203979011201311 -0.000583129819842737 0)
(-0.0196046359360847 -0.00270692670030383 0)
(-0.0165244688458403 -0.00402631714229112 0)
(-0.0119465036676349 -0.00443713114775808 -6.65776698426911e-20)
(-0.00522256655825614 -0.00315231727128506 -5.54551867227436e-22)
(0.00316227100619614 -4.11167394993113e-06 -5.34687016680154e-22)
(0.0135669102765454 0.00554240331551381 6.16561282443808e-17)
(0.0265140720066652 0.0140270321978245 0)
(0.04194545083332 0.025532667868143 -2.82432385815873e-17)
(0.0596642331902802 0.0396783136465706 1.06313900012212e-22)
(0.0791750733693499 0.0557934211579657 2.6251364922694e-17)
(0.100170978922791 0.0731236992644782 2.54690186435355e-17)
(0.121032430649608 0.090110727736602 -2.47231439814114e-17)
(0.140540351590941 0.106276361777226 -2.39309983178035e-17)
(0.159134504655946 0.122454253317075 0)
(0.177753949817026 0.139556999628324 0)
(0.1971220574215 0.158349525664251 2.01042587685726e-17)
(0.219554643032462 0.180773268271835 1.82232527375023e-17)
(0.249404504207723 0.208974086108619 -1.6050348183971e-17)
(0.292050384358173 0.242043985513913 0)
(0.345920869478972 0.273852239862389 1.08584865478794e-17)
(0.420694649892057 0.304197064022057 7.9319962031171e-18)
(0.51631366108873 0.319004286434779 -3.50851147807669e-20)
(0.629069713127808 0.294265136485066 8.33538486092237e-19)
(0.656142212469118 0.18770890833761 9.7000359871228e-21)
(0.534951401268041 0.0736825817109809 -8.4251116003905e-19)
(0.350112562536453 0.0143548323571347 -1.66609776601021e-19)
(0.243392851364715 0.00133860256423374 0)
(0.33502339316297 -0.0011130226178536 0)
(0.360577242944225 -0.0076130597256997 -3.28153795024097e-20)
(0.275234167405965 -0.0259736379564957 -1.22888559432797e-19)
(0.0550690808283283 -0.00641831045570999 -8.79752928680347e-19)
(-0.087946964544164 0.0447014895058599 1.37675603688934e-22)
(-0.0902138003036797 0.055090683176165 3.32770195851212e-18)
(-0.0617910084991314 0.0436603877817258 3.72997594033656e-18)
(-0.0482359505839171 0.037500365498751 -4.26221029558806e-18)
(-0.037248692992179 0.0304696275806772 0)
(-0.0320811264763404 0.0266223837552381 -1.08981026204955e-21)
(-0.0277575508944827 0.0227886605133941 5.92623563697604e-18)
(-0.0271153657188781 0.021938850241491 -1.58054884818646e-21)
(-0.0275508611012664 0.0220763624705143 7.06989370084353e-18)
(-0.0304646123770741 0.024294181973766 -7.59081523021393e-18)
(-0.0353059327098726 0.0281033330100469 -7.90630095405061e-21)
(-0.0424227023664617 0.0336662924341666 -8.48562071902154e-18)
(-0.0505988448264853 0.0398125288759335 0)
(-0.0592370638196476 0.0454907319758308 -1.86089137014948e-17)
(-0.0677855650158969 0.0498572909247522 9.42550839518067e-21)
(-0.0756644317000082 0.0521247608031327 0)
(-0.0823199334324964 0.0517025119248373 -2.09704822084611e-17)
(-0.0879753635339175 0.0487502320582901 -2.16115001125342e-17)
(-0.0929350859941215 0.0439371486457506 -2.15048055978273e-20)
(-0.0968526939196169 0.0375550906016946 2.25266267406457e-17)
(-0.0997142231154402 0.0300031985774616 -1.14016529387845e-17)
(-0.102737332196903 0.0220859750594394 -5.73701789437771e-18)
(-0.108272408329411 0.0147746133153474 2.84287698385538e-18)
(-0.126769984446552 0.0093810875195234 -6.8525742539602e-19)