/*--------------------------------*- C++ -*----------------------------------*\
  =========                 |
  \\      /  F ield         | OpenFOAM: The Open Source CFD Toolbox
   \\    /   O peration     | Website:  https://openfoam.org
    \\  /    A nd           | Version:  7
     \\/     M anipulation  |
\*---------------------------------------------------------------------------*/
FoamFile
{
    version     2.0;
    format      ascii;
    class       volScalarField;
    location    "20000";
    object      walldist;
}
// * * * * * * * * * * * * * * * * * * * * * * * * * * * * * * * * * * * * * //

dimensions      [0 1 0 0 0 0 0];

internalField   nonuniform List<scalar> 
15600
(
0.000782193608907855
0.000783520680835812
0.000786610865204563
0.000787639519791962
0.000784022578559206
0.000799068147818429
0.000839768656367957
0.000901010195506632
0.000978188753964574
0.00106928966977435
0.00117213419937778
0.00127664342057862
0.00137852717979461
0.00147771276882951
0.0015741800522077
0.00166794864450988
0.00176135083153299
0.00186090699823526
0.00196764955482712
0.0020813341745804
0.0022013138993362
0.00232534691635151
0.00244453901974012
0.00255118867340438
0.00264017664954831
0.00270573572790146
0.00274210115876427
0.00274477709007385
0.00273767482963755
0.00273767763116877
0.00273767763116874
0.00273767763116882
0.00273767763116891
0.00273767763116868
0.00273767763116877
0.0027376776311689
0.00273767763116882
0.00273767763116871
0.00273767763116876
0.00273767763116885
0.00273767763116877
0.00273767763116885
0.00273767763116893
0.00273767763116888
0.00273767763116882
0.00273767763116876
0.00273767763116879
0.00273767763116885
0.00273767763116882
0.00273767763116879
0.00273767763116873
0.00273767763116882
0.00273767763116868
0.00273767763116868
0.00273767763116877
0.00273767763116877
0.00273767763116876
0.00273767763116877
0.00273767763116882
0.00273767763116876
0.00273767763116882
0.00273767763116876
0.00273767763116871
0.00273767763116876
0.002737677631169
0.00273767763116882
0.00273767763116873
0.00273767763116885
0.00273767763116882
0.00273767763116871
0.0027376776311687
0.00273767763116894
0.00273767763116883
0.00273767763116873
0.00273767763116874
0.00273767763116877
0.00273767763116888
0.00273767763116894
0.0027376776311689
0.0027376776311688
0.00273767763116882
0.00273767763116888
0.00273767763116871
0.00273767763116876
0.00273767763116894
0.00273767763116885
0.00273767763116873
0.00273767763116882
0.00273767763116893
0.00273767763116877
0.0027376776311687
0.0027376748296376
0.0027447770900739
0.00274210115876469
0.00270573572790162
0.0026401766495481
0.00255118867340359
0.00244453901973849
0.00232534691635258
0.00220131389933785
0.00208133417458102
0.00196764955482659
0.001860906998231
0.00176135083153032
0.00166794864450788
0.00157418005220942
0.00147771276883088
0.00137852717979419
0.00127664342057754
0.00117213419937781
0.00106928966977541
0.000978188753965272
0.000901010195508613
0.000839768656370045
0.000799068147816769
0.000784022578558123
0.00078763951979178
0.000786610865204521
0.000783520680835469
0.000782193608907855
0.00237534610049195
0.002380446195004
0.00239876699745698
0.00243093909046143
0.00248049052524038
0.00260627763735514
0.00281975694926947
0.00309724995127999
0.00341505677178204
0.00375670547916988
0.00410818540431296
0.00445212625572922
0.00478494067580679
0.00510874224153211
0.00542540322192584
0.00573659384657152
0.00604477380503949
0.00635240711076074
0.00665653983400878
0.0069529839987453
0.00723685480689711
0.00750196606357779
0.0077402228173031
0.00794586487247621
0.00811488423218597
0.00824319003049258
0.00832700163979514
0.00836347008370414
0.00836759260320548
0.00836422344909975
0.0083609639537689
0.00835781189995188
0.00835476740925529
0.00835183059930795
0.0083490015837415
0.00834628047216865
0.00834366737016154
0.00834116237923151
0.00833876559680889
0.00833647711622554
0.00833429702669603
0.00833222541329962
0.00833026235696601
0.00832840793445812
0.00832666221835665
0.00832502527704763
0.00832349717470751
0.00832207797129186
0.00832076772252186
0.00831956647987541
0.00831847429057666
0.00831749119758544
0.00831661723958997
0.00831585245099895
0.008315196861935
0.00831465049822857
0.0083142133814126
0.00831388552871844
0.00831366695307313
0.00831355766309538
0.00831355766309536
0.00831366695307318
0.00831388552871858
0.00831421338141275
0.00831465049822875
0.00831519686193508
0.0083158524509989
0.00831661723958994
0.00831749119758557
0.00831847429057673
0.00831956647987574
0.00832076772252179
0.00832207797129161
0.00832349717470775
0.00832502527704755
0.00832666221835657
0.00832840793445812
0.00833026235696603
0.00833222541329912
0.00833429702669536
0.00833647711622578
0.00833876559680945
0.00834116237923183
0.00834366737016221
0.00834628047216892
0.00834900158374088
0.00835183059930716
0.00835476740925502
0.00835781189995222
0.0083609639537687
0.00836422344909979
0.00836759260320582
0.00836347008370399
0.00832700163979539
0.00824319003049372
0.00811488423218552
0.00794586487247526
0.0077402228173042
0.00750196606357689
0.00723685480690183
0.00695298399873886
0.00665653983401142
0.00635240711076336
0.00604477380503337
0.0057365938465707
0.00542540322192228
0.00510874224153672
0.00478494067580466
0.00445212625573208
0.0041081854043164
0.00375670547917288
0.00341505677178086
0.00309724995127421
0.00281975694927539
0.00260627763735299
0.00248049052524232
0.00243093909046041
0.00239876699745676
0.00238044619500377
0.00237534610049218
0.00402684401816043
0.00403620246757674
0.00407788518332125
0.00416951028619958
0.00432463791705012
0.00460433078546999
0.00500557628364758
0.00548995856870595
0.0060245052305787
0.00658687368835073
0.00715850670343581
0.00771940409767936
0.0082658436397013
0.0088005439618389
0.00932600311453639
0.00984454589383902
0.0103589933805857
0.0108708924792304
0.0113751068631131
0.011864786443881
0.0123318538927127
0.0127662076677163
0.0131559050909805
0.013492254080104
0.0137687356347658
0.0139788138675654
0.0141165476368818
0.0141775693923973
0.0141852974652696
0.0141795855162392
0.0141740598038924
0.0141687162335159
0.0141635550112632
0.0141585763365483
0.0141537804020072
0.0141491673934621
0.0141447374898857
0.0141404908633668
0.0141364276790757
0.0141325480952348
0.014128852263086
0.0141253403268628
0.0141220124237618
0.0141188686839161
0.0141159092303702
0.014113134179056
0.0141105436387697
0.0141081377111516
0.0141059164906648
0.0141038800645778
0.0141020285129476
0.0141003619086029
0.0140988803171308
0.0140975837968628
0.0140964723988649
0.0140955461669266
0.0140948051375518
0.0140942493399526
0.0140938787960432
0.014093693520435
0.0140936935204351
0.0140938787960432
0.0140942493399526
0.0140948051375518
0.0140955461669265
0.0140964723988649
0.0140975837968627
0.0140988803171306
0.014100361908603
0.0141020285129478
0.014103880064578
0.0141059164906647
0.0141081377111513
0.0141105436387699
0.014113134179056
0.0141159092303702
0.0141188686839163
0.0141220124237617
0.0141253403268627
0.0141288522630858
0.0141325480952348
0.014136427679076
0.0141404908633672
0.0141447374898861
0.0141491673934625
0.0141537804020067
0.0141585763365476
0.0141635550112629
0.0141687162335155
0.0141740598038924
0.0141795855162397
0.01418529746527
0.0141775693923972
0.0141165476368818
0.0139788138675664
0.0137687356347673
0.013492254080104
0.0131559050909779
0.0127662076677172
0.0123318538927131
0.0118647864438846
0.0113751068631123
0.0108708924792246
0.010358993380588
0.00984454589383255
0.0093260031145446
0.00880054396183354
0.00826584363970533
0.007719404097679
0.00715850670343003
0.00658687368835414
0.00602450523058414
0.00548995856870705
0.00500557628364834
0.00460433078546419
0.00432463791705152
0.00416951028619964
0.00407788518332176
0.00403620246757698
0.0040268440181609
0.00573884104092501
0.00575266336151505
0.00581975620293663
0.0059772850286736
0.00624879883784156
0.00669171755293739
0.00728709851911003
0.00798354807339863
0.00874007976870468
0.00952884430457433
0.0103267347065019
0.0111111270829239
0.0118780265701361
0.0126306348760037
0.0133720101541193
0.0141051000194599
0.0148330516244635
0.0155564137073887
0.0162677805317473
0.0169575393186075
0.0176142991477948
0.0182238967387492
0.0187704107692943
0.0192421134256928
0.0196298798702825
0.0199246392923074
0.0201182120016193
0.0202046583303163
0.0202161215411661
0.0202079809739068
0.020200106026515
0.0201924906580421
0.0201851351622862
0.0201780398234411
0.0201712049160424
0.0201646307049132
0.0201583174451157
0.0201522653819016
0.0201464747506623
0.0201409457768882
0.0201356786761217
0.0201306736539153
0.0201259309057954
0.0201214506172204
0.0201172329635462
0.0201132781099932
0.0201095862116119
0.0201061574132539
0.0201029918495438
0.0201000896448516
0.02009745091327
0.0200950757585906
0.0200929642742847
0.0200911165434837
0.0200895326389632
0.0200882126231301
0.0200871565480082
0.0200863644552282
0.0200858363760212
0.0200855723312114
0.0200855723312113
0.0200858363760213
0.0200863644552282
0.0200871565480081
0.0200882126231303
0.0200895326389633
0.0200911165434835
0.0200929642742847
0.0200950757585907
0.0200974509132701
0.0201000896448517
0.0201029918495437
0.020106157413254
0.0201095862116119
0.0201132781099933
0.0201172329635466
0.0201214506172206
0.0201259309057954
0.0201306736539154
0.0201356786761212
0.0201409457768881
0.0201464747506626
0.0201522653819014
0.020158317445116
0.0201646307049134
0.0201712049160419
0.0201780398234408
0.0201851351622857
0.020192490658042
0.0202001060265153
0.0202079809739068
0.0202161215411662
0.0202046583303161
0.0201182120016197
0.0199246392923085
0.019629879870284
0.019242113425692
0.0187704107692974
0.0182238967387472
0.0176142991477981
0.0169575393186042
0.016267780531745
0.015556413707388
0.0148330516244623
0.0141051000194701
0.0133720101541062
0.0126306348760093
0.0118780265701317
0.0111111270829272
0.0103267347065016
0.00952884430457029
0.00874007976870255
0.00798354807341091
0.00728709851911229
0.00669171755294286
0.00624879883783198
0.00597728502867479
0.00581975620293664
0.00575266336151492
0.00573884104092503
0.00751355342062455
0.00753201995725653
0.0076258566960304
0.00785311648481179
0.00824746440818899
0.00886065780600235
0.00965709000993517
0.010572639536228
0.011558471705857
0.0125811907401621
0.0136130206677802
0.0146286523119766
0.0156237720837583
0.0166020402520107
0.0175670689787858
0.0185224344622102
0.0194716066148844
0.0204140841911829
0.0213401066152281
0.0222371962151138
0.0230905257500621
0.0238817204438221
0.0245907379998614
0.0252027049798015
0.025705794403724
0.0260883076548802
0.0263397449410606
0.0264525376439987
0.026467871985229
0.0264572138324876
0.0264469035908397
0.0264369332017955
0.0264273030500096
0.0264180135075622
0.026409064933887
0.026400457675703
0.0263921920669488
0.0263842684287189
0.0263766870692001
0.0263694482836132
0.0263625523541563
0.0263559995499491
0.0263497901269827
0.0263439243280682
0.0263384023827898
0.0263332245074607
0.0263283909050812
0.0263239017652973
0.0263197572643652
0.0263159575651165
0.0263125028169261
0.026309393155683
0.0263066287037635
0.0263042095700079
0.0263021358496973
0.0263004076245368
0.0262990249626386
0.0262979879185084
0.0262972965330348
0.0262969508334812
0.0262969508334812
0.0262972965330348
0.0262979879185084
0.0262990249626387
0.026300407624537
0.0263021358496975
0.0263042095700078
0.0263066287037635
0.026309393155683
0.0263125028169261
0.0263159575651163
0.0263197572643651
0.026323901765297
0.0263283909050811
0.0263332245074609
0.0263384023827899
0.0263439243280682
0.0263497901269828
0.0263559995499491
0.0263625523541555
0.0263694482836129
0.0263766870692002
0.0263842684287191
0.026392192066949
0.026400457675703
0.0264090649338866
0.0264180135075619
0.0264273030500093
0.0264369332017954
0.0264469035908398
0.026457213832488
0.0264678719852294
0.0264525376439983
0.026339744941061
0.0260883076548811
0.0257057944037247
0.0252027049798023
0.0245907379998595
0.0238817204438251
0.0230905257500621
0.0222371962151138
0.0213401066152265
0.0204140841911805
0.0194716066148836
0.0185224344622048
0.0175670689787939
0.0166020402520048
0.0156237720837666
0.0146286523119734
0.0136130206677807
0.0125811907401706
0.0115584717058558
0.010572639536222
0.0096570900099332
0.00886065780600159
0.00824746440819602
0.00785311648481059
0.00762585669603124
0.00753201995725636
0.00751355342062502
0.0093532785963229
0.00937656726267113
0.00949831350287179
0.00979850302701388
0.010321154767801
0.0111113156515643
0.0121160698039346
0.0132584230014688
0.0144815995157879
0.0157465217475798
0.0170205939364304
0.018275739009721
0.0195072981678122
0.0207193889932095
0.0219161864162573
0.0231019107811543
0.024280359814357
0.0254499369757113
0.0265984395423578
0.0277104195394126
0.0287674869053619
0.0297469006455977
0.0306243481105108
0.0313816956450311
0.0320043147870642
0.0324777828712066
0.0327891952471216
0.0329292950426941
0.032948641948701
0.0329353739841046
0.0329225392363986
0.0329101275556367
0.0328981394206578
0.0328865752946472
0.0328754356250475
0.0328647208434737
0.0328544313656307
0.0328445675912334
0.0328351299039307
0.0328261186712286
0.0328175342444225
0.0328093769585277
0.0328016471322157
0.0327943450677509
0.0327874710509322
0.0327810253510381
0.0327750082207735
0.0327694198962211
0.0327642605967938
0.0327595305251931
0.032755229867369
0.0327513587924835
0.0327479174528776
0.0327449059840408
0.032742324504585
0.0327401731162207
0.032738451903738
0.0327371609349878
0.0327363002608713
0.0327358699153273
0.0327358699153273
0.0327363002608713
0.0327371609349879
0.032738451903738
0.0327401731162209
0.032742324504585
0.0327449059840408
0.0327479174528774
0.0327513587924835
0.0327552298673689
0.0327595305251929
0.0327642605967936
0.0327694198962207
0.0327750082207736
0.0327810253510381
0.0327874710509322
0.0327943450677511
0.0328016471322157
0.0328093769585274
0.0328175342444217
0.0328261186712281
0.032835129903931
0.0328445675912338
0.0328544313656304
0.0328647208434738
0.0328754356250472
0.0328865752946467
0.0328981394206574
0.0329101275556367
0.0329225392363988
0.0329353739841054
0.0329486419487015
0.0329292950426943
0.032789195247122
0.0324777828712072
0.0320043147870651
0.0313816956450308
0.0306243481105105
0.0297469006455978
0.0287674869053629
0.0277104195394162
0.0265984395423525
0.0254499369757091
0.0242803598143598
0.02310191078115
0.0219161864162581
0.0207193889932072
0.0195072981678134
0.0182757390097246
0.0170205939364338
0.0157465217475741
0.0144815995157902
0.0132584230014667
0.0121160698039369
0.0111113156515685
0.010321154767796
0.00979850302701534
0.00949831350287167
0.00937656726267121
0.0093532785963229
0.0112603981683957
0.0112886898767443
0.0114394696764256
0.0118156102625943
0.0124717834982079
0.0134456308707221
0.0146662853816586
0.016043579750413
0.0175126072484651
0.0190284351950836
0.0205534819540439
0.0220568095934689
0.0235333939379755
0.0249878172511654
0.0264248317948465
0.0278493217156303
0.0292654209595263
0.0306703938989295
0.032049505631614
0.033384228809799
0.0346524796909992
0.035826990867542
0.0368790237706199
0.0377870654670867
0.0385335832146801
0.039101330539814
0.0394749099839099
0.0396433147900062
0.0396668210564826
0.0396508476751477
0.0396353959415046
0.0396204535375247
0.0396060210396829
0.0395920990056059
0.0395786879739695
0.0395657884643947
0.039553400977348
0.0395415259940458
0.039530163976361
0.0395193153667351
0.0395089805880917
0.0394991600437551
0.0394898541173732
0.0394810631728418
0.0394727875542342
0.0394650275857342
0.0394577835715724
0.0394510557959686
0.0394448445230739
0.0394391499969203
0.0394339724413728
0.039429312060085
0.0394251690364601
0.0394215435336138
0.0394184356943424
0.0394158456410957
0.0394137734759516
0.0394122192805968
0.03941118311631
0.0394106650239509
0.0394106650239508
0.03941118311631
0.0394122192805969
0.0394137734759518
0.0394158456410959
0.0394184356943426
0.0394215435336138
0.0394251690364601
0.0394293120600851
0.0394339724413729
0.0394391499969205
0.0394448445230738
0.0394510557959687
0.0394577835715728
0.0394650275857344
0.0394727875542346
0.039481063172842
0.0394898541173732
0.0394991600437547
0.039508980588091
0.0395193153667349
0.0395301639763611
0.0395415259940459
0.039553400977348
0.0395657884643946
0.0395786879739691
0.0395920990056055
0.0396060210396824
0.0396204535375248
0.0396353959415044
0.0396508476751476
0.0396668210564831
0.0396433147900061
0.03947490998391
0.0391013305398139
0.0385335832146802
0.0377870654670857
0.0368790237706213
0.0358269908675429
0.034652479690996
0.0333842288098022
0.0320495056316139
0.0306703938989323
0.0292654209595164
0.027849321715634
0.0264248317948445
0.0249878172511735
0.0235333939379733
0.0220568095934646
0.0205534819540429
0.019028435195091
0.0175126072484623
0.016043579750421
0.014666285381644
0.0134456308707231
0.0124717834982096
0.011815610262595
0.0114394696764263
0.0112886898767447
0.0112603981683957
0.0132373809815435
0.0132708616100076
0.0134518005042608
0.0139068864526778
0.0147017823828327
0.0158661836377943
0.0173106144033173
0.0189313543958594
0.0206551273330549
0.0224309512838035
0.0242160821612713
0.0259766213345293
0.0277071615101428
0.0294127611498239
0.0310987674227503
0.0327707502587433
0.0344331899936683
0.0360821679894477
0.03770032405302
0.039265938490748
0.0407530983514677
0.0421298438414537
0.0433628488697642
0.0444270976720312
0.0453020467451562
0.0459675223960216
0.046405543142901
0.0466032883815247
0.0466311062676631
0.0466123283624313
0.0465941637751761
0.0465765979403538
0.0465596315356501
0.0465432652165947
0.0465274996164381
0.0465123353460311
0.0464977729937067
0.0464838131251684
0.0464704562833798
0.0464577029884614
0.0464455537375897
0.0464340090049006
0.0464230692413983
0.0464127348748681
0.0464030063097917
0.0463938839272697
0.0463853680849469
0.0463774591169429
0.0463701573337858
0.0463634630223522
0.0463573764458109
0.0463518978435712
0.0463470274312362
0.0463427654005594
0.0463391119194081
0.0463360671317304
0.0463336311575262
0.0463318040928234
0.0463305860096599
0.0463299769560688
0.0463299769560687
0.04633058600966
0.0463318040928236
0.0463336311575263
0.0463360671317306
0.0463391119194082
0.0463427654005595
0.0463470274312362
0.0463518978435714
0.0463573764458111
0.0463634630223524
0.0463701573337859
0.0463774591169429
0.0463853680849472
0.04639388392727
0.0464030063097918
0.0464127348748681
0.0464230692413983
0.0464340090049003
0.0464455537375891
0.0464577029884611
0.0464704562833797
0.0464838131251685
0.0464977729937068
0.0465123353460309
0.0465274996164375
0.0465432652165937
0.0465596315356495
0.0465765979403538
0.0465941637751761
0.0466123283624314
0.0466311062676632
0.0466032883815247
0.0464055431429012
0.0459675223960221
0.045302046745157
0.0444270976720316
0.0433628488697633
0.0421298438414527
0.040753098351473
0.0392659384907431
0.0377003240530253
0.0360821679894394
0.034433189993676
0.0327707502587385
0.0310987674227508
0.0294127611498179
0.0277071615101497
0.0259766213345293
0.0242160821612716
0.0224309512837998
0.0206551273330584
0.018931354395854
0.0173106144033265
0.0158661836377918
0.0147017823828323
0.0139068864526788
0.013451800504261
0.0132708616100077
0.0132373809815435
0.0152867863207558
0.0153256476670589
0.0155378911936414
0.0160749532820856
0.0170138546547107
0.0183758784057852
0.0200522605413987
0.0219252980176839
0.0239130763373635
0.025958355586942
0.0280130438944673
0.0300401765617972
0.0320339463773694
0.0339999019436392
0.0359440048460692
0.037872534421997
0.0397903287070464
0.0416922413010019
0.0435581903132368
0.045363146640605
0.0470772276969041
0.0486636092961292
0.0500842101213329
0.0513103834277948
0.0523184646145345
0.0530852455708481
0.0535900662129034
0.0538182257443343
0.0538505131338913
0.0538288279670335
0.0538078511465913
0.0537875657771632
0.0537679726413533
0.0537490724961804
0.053730866072935
0.053713354077039
0.0536965371879114
0.0536804160588368
0.0536649913168409
0.0536502635625688
0.0536362333701694
0.0536229012871845
0.0536102678344425
0.053598333505958
0.0535870987688345
0.0535765640631746
0.0535667298019932
0.0535575963711382
0.053549164129214
0.0535414334075104
0.0535344045099407
0.0535280777129789
0.053522453265608
0.0535175313892687
0.0535133122778171
0.0535097960974877
0.0535069829868585
0.0535048730568242
0.0535034663905761
0.0535027630435831
0.0535027630435832
0.0535034663905761
0.0535048730568244
0.0535069829868586
0.0535097960974879
0.0535133122778172
0.0535175313892685
0.0535224532656079
0.0535280777129789
0.0535344045099407
0.0535414334075106
0.0535491641292138
0.0535575963711382
0.0535667298019933
0.0535765640631746
0.0535870987688346
0.0535983335059581
0.0536102678344424
0.0536229012871842
0.0536362333701689
0.0536502635625684
0.0536649913168409
0.0536804160588366
0.0536965371879112
0.053713354077039
0.0537308660729347
0.0537490724961797
0.0537679726413528
0.0537875657771632
0.0538078511465913
0.0538288279670335
0.0538505131338919
0.0538182257443342
0.0535900662129032
0.0530852455708489
0.0523184646145352
0.0513103834277957
0.0500842101213327
0.048663609296133
0.0470772276969002
0.0453631466406071
0.0435581903132364
0.0416922413010006
0.0397903287070404
0.0378725344220007
0.0359440048460675
0.0339999019436417
0.0320339463773698
0.0300401765617995
0.028013043894466
0.0259583555869428
0.0239130763373629
0.0219252980176864
0.0200522605414038
0.0183758784057799
0.0170138546547139
0.0160749532820865
0.0155378911936412
0.015325647667059
0.015286786320756
0.0174112672243758
0.0174557075915891
0.0177004308381348
0.0183225682378222
0.0194108884416251
0.0209778335731388
0.0228946479308749
0.0250291795786799
0.0272905851811498
0.0296151462418556
0.0319492296604577
0.0342526943355005
0.0365193166109964
0.0387551508269642
0.0409667939480702
0.0431612596915326
0.0453437559608939
0.0475078626571248
0.0496306763199004
0.0516837371116335
0.0536330472779111
0.0554367399597573
0.0570518046608076
0.0584458307719798
0.059591918241906
0.0604637134188134
0.0610377795606674
0.0612974668814261
0.0613343874701635
0.0613096885403804
0.0612857964666267
0.0612626919382813
0.061240375846711
0.0612188490541411
0.0611981123934936
0.0611781666682263
0.0611590126521796
0.0611406510894296
0.0611230826941422
0.0611063081504373
0.0610903281122559
0.0610751432032346
0.0610607540165841
0.0610471611149743
0.0610343650304246
0.0610223662642008
0.061011165286717
0.0610007625374436
0.0609911584248219
0.0609823533261837
0.0609743475876777
0.0609671415242017
0.0609607354193401
0.060955129525309
0.0609503240629059
0.060946319221467
0.0609431151588294
0.0609407120013
0.0609391098436304
0.0609383087489997
0.0609383087489996
0.0609391098436306
0.0609407120012999
0.0609431151588295
0.0609463192214672
0.0609503240629059
0.0609551295253089
0.0609607354193401
0.0609671415242017
0.0609743475876779
0.0609823533261837
0.060991158424822
0.0610007625374433
0.0610111652867169
0.0610223662642008
0.0610343650304249
0.0610471611149744
0.0610607540165841
0.0610751432032345
0.0610903281122555
0.061106308150437
0.0611230826941421
0.0611406510894296
0.0611590126521798
0.0611781666682262
0.0611981123934935
0.0612188490541407
0.0612403758467107
0.0612626919382815
0.0612857964666266
0.0613096885403809
0.0613343874701643
0.0612974668814262
0.0610377795606681
0.0604637134188143
0.0595919182419065
0.0584458307719784
0.0570518046608091
0.0554367399597554
0.0536330472779135
0.0516837371116329
0.0496306763198995
0.0475078626571231
0.0453437559608935
0.0431612596915316
0.0409667939480711
0.0387551508269633
0.0365193166109932
0.0342526943355012
0.0319492296604585
0.0296151462418561
0.027290585181154
0.0250291795786797
0.0228946479308707
0.0209778335731457
0.0194108884416257
0.0183225682378208
0.0177004308381349
0.017455707591589
0.017411267224376
0.0196135739184662
0.0196637985482407
0.0199422118870751
0.0206526107298644
0.0218959225368186
0.0236753377196894
0.0258413797165825
0.0282469517733525
0.0307919730439508
0.0334060151860193
0.0360297025205174
0.0386196024583128
0.0411690583030524
0.0436846470033741
0.0461736230902211
0.0486437608465196
0.0511006509339778
0.053536552218769
0.0559256361810375
0.0582358864951838
0.0604290393966873
0.0624580005576727
0.0642746499103207
0.0658426752045648
0.067131822414529
0.0681124771549142
0.0687583243704709
0.0690506939542911
0.0690924174531251
0.0690645943576794
0.0690376802365762
0.0690116532754874
0.0689865144785267
0.0689622648169795
0.0689389052291223
0.0689164366200404
0.0688948598614553
0.0688741757915585
0.0688543852148497
0.0688354889019816
0.0688174875896102
0.0688003819802539
0.0687841727421579
0.0687688605091621
0.0687544458805801
0.0687409294210813
0.0687283116605813
0.0687165930941381
0.0687057741818558
0.0686958553487934
0.0686868369848836
0.0686787194448546
0.068671503048161
0.0686651880789206
0.0686597747858593
0.0686552633822616
0.0686516540459296
0.0686489469191459
0.0686471421086474
0.068646239685604
0.068646239685604
0.0686471421086474
0.0686489469191459
0.0686516540459297
0.0686552633822619
0.0686597747858591
0.0686651880789206
0.0686715030481609
0.0686787194448547
0.0686868369848838
0.0686958553487936
0.0687057741818556
0.0687165930941378
0.0687283116605812
0.0687409294210814
0.0687544458805802
0.0687688605091624
0.0687841727421578
0.0688003819802539
0.0688174875896098
0.0688354889019813
0.0688543852148497
0.0688741757915587
0.0688948598614552
0.0689164366200403
0.068938905229122
0.0689622648169792
0.0689865144785263
0.0690116532754877
0.0690376802365764
0.0690645943576799
0.0690924174531255
0.0690506939542915
0.0687583243704716
0.0681124771549149
0.0671318224145303
0.0658426752045642
0.0642746499103188
0.0624580005576766
0.0604290393966858
0.0582358864951833
0.0559256361810328
0.0535365522187714
0.0511006509339753
0.0486437608465196
0.0461736230902207
0.0436846470033765
0.0411690583030489
0.0386196024583174
0.0360297025205187
0.03340601518602
0.0307919730439499
0.0282469517733484
0.0258413797165846
0.0236753377196887
0.0218959225368169
0.0206526107298639
0.0199422118870763
0.0196637985482406
0.0196135739184662
0.0218965573770253
0.0219527788149348
0.0222661318455874
0.0230680775232719
0.024472132405543
0.0264718313995113
0.0288962211782198
0.0315827378034438
0.034421738151482
0.0373358426251852
0.0402597236973969
0.0431465375125226
0.0459891774718704
0.0487947610797181
0.0515712237312749
0.0543271276159271
0.0570684596977768
0.0597861089255002
0.0624512144650021
0.0650280731519672
0.0674739988580389
0.0697364782306303
0.07176209458636
0.0735104911950381
0.0749479372026799
0.0760414380803012
0.0767616950770171
0.0770879438126977
0.0771346461625564
0.0771035844543522
0.0770735375797009
0.0770444811288367
0.07701641622275
0.0769893439457831
0.0769632653454247
0.0769381814321109
0.07691409317903
0.0768910015219377
0.0768689073589751
0.076847811550498
0.0768277149189081
0.0768086182484954
0.0767905222852871
0.0767734277369016
0.0767573352724109
0.0767422455222115
0.0767281590779
0.076715076492158
0.0767029982786442
0.0766919249118951
0.07668185682723
0.0766727944206667
0.076664738048844
0.0766576880289507
0.0766516446386634
0.0766466081160933
0.0766425786597371
0.0766395564284398
0.0766375415413623
0.0766365340779581
0.0766365340779582
0.0766375415413623
0.0766395564284399
0.0766425786597372
0.0766466081160933
0.0766516446386635
0.0766576880289506
0.076664738048844
0.0766727944206668
0.07668185682723
0.076691924911895
0.076702998278644
0.0767150764921576
0.0767281590779
0.0767422455222117
0.0767573352724115
0.0767734277369017
0.0767905222852871
0.0768086182484953
0.0768277149189077
0.0768478115504977
0.076868907358975
0.0768910015219376
0.0769140931790298
0.0769381814321106
0.0769632653454247
0.0769893439457828
0.0770164162227498
0.077044481128837
0.077073537579701
0.0771035844543522
0.0771346461625564
0.0770879438126977
0.0767616950770172
0.0760414380803015
0.0749479372026801
0.0735104911950385
0.0717620945863598
0.0697364782306303
0.0674739988580425
0.0650280731519672
0.0624512144649983
0.0597861089255012
0.0570684596977726
0.0543271276159257
0.0515712237312747
0.0487947610797166
0.0459891774718726
0.0431465375125263
0.0402597236973904
0.0373358426251922
0.0344217381514749
0.0315827378034533
0.0288962211782198
0.026471831399513
0.0244721324055399
0.0230680775232739
0.022266131845587
0.0219527788149349
0.0218965573770256
0.0242631730126303
0.0243256114429775
0.0246751960316774
0.025572082326193
0.0271428250707566
0.0293709000770642
0.0320630935703319
0.0350408273111642
0.0381845559951627
0.0414096973792464
0.044644754773936
0.0478393485486604
0.0509859049509931
0.0540921009581153
0.0571665771850293
0.060218712204115
0.0632549034476333
0.0662646194028789
0.0692158557551801
0.0720690873814501
0.074777043716828
0.0772815938168223
0.0795238304564848
0.0814592043439404
0.0830503804525829
0.0842608603277012
0.0850582522785389
0.0854196209854746
0.0854714845822713
0.0854370656216979
0.0854037712318266
0.0853715743123607
0.0853404761054491
0.0853104778126313
0.0852815805946108
0.085253785571033
0.0852270938202701
0.0852015063792156
0.0851770242430838
0.085153648365218
0.0851313796569073
0.085110218987209
0.0850901671827819
0.0850712250277247
0.0850533932634246
0.0850366725884113
0.0850210636582227
0.0850065670852754
0.0849931834387451
0.0849809132444566
0.0849697569847795
0.0849597150985337
0.084950787980904
0.0849429759833616
0.0849362794135951
0.0849306985354507
0.0849262335688795
0.0849228846898941
0.0849206520305349
0.0849195356788429
0.0849195356788429
0.0849206520305349
0.0849228846898942
0.0849262335688795
0.0849306985354508
0.0849362794135952
0.0849429759833616
0.0849507879809039
0.0849597150985336
0.0849697569847794
0.0849809132444566
0.0849931834387451
0.0850065670852752
0.0850210636582229
0.0850366725884116
0.0850533932634246
0.0850712250277248
0.0850901671827819
0.0851102189872086
0.0851313796569066
0.0851536483652177
0.0851770242430837
0.0852015063792159
0.0852270938202701
0.0852537855710331
0.0852815805946107
0.0853104778126311
0.0853404761054489
0.0853715743123613
0.0854037712318271
0.0854370656216984
0.0854714845822718
0.085419620985475
0.0850582522785392
0.0842608603277016