# Residuals            
# Time                 	Ux                     	Uy                     	p                      	k                      	omega                  
1                      	9.999999999641803e-01	1.000000000000000e+00	1.000000000000000e+00	9.999999999995208e-01	4.530944310226821e-02
2                      	8.309734498461017e-01	8.836202088426274e-01	9.795044389162614e-01	3.935344784246477e-01	2.135181004004075e-02
3                      	1.683283549891894e-01	1.210123228911440e-01	9.134844364688763e-01	1.932436137871610e-01	1.413007660719996e-03
4                      	1.716063219553753e-01	2.596908202355039e-01	5.724640079024903e-01	1.081274978363724e-01	2.383656405065140e-03
5                      	3.089246301884309e-01	5.751074629154498e-01	8.447552391899895e-01	5.151611470566810e-02	8.740437206335568e-04
6                      	3.988232658866228e-01	4.152638898361699e-01	7.966339041931870e-01	3.486805227239810e-02	7.196987783349724e-04
7                      	4.765718222120798e-01	6.132133236232123e-01	6.902395693648239e-01	2.988743962603699e-02	9.594716991158096e-04
8                      	3.836988093198225e-01	5.631917078402466e-01	8.748302790935464e-01	2.373785079778314e-02	8.821141429717443e-04
9                      	3.190082739643101e-01	2.242268124640834e-01	7.945707737730913e-01	2.274561133216546e-02	3.616391666357186e-03
10                     	2.531609160292170e-01	2.159550787816797e-01	7.101987274000438e-01	2.155114889851729e-02	5.864734701207046e-04
11                     	1.516681817559811e-01	2.725075651939385e-01	7.555554965683995e-01	1.884704942308909e-02	7.179313763290123e-04
12                     	1.141055837559742e-01	1.954359851630912e-01	7.569304189195017e-01	2.127183066013425e-02	5.683324149504221e-04
13                     	2.122844573312224e-01	2.954574791365018e-01	7.722714425509941e-01	1.999983623116685e-02	2.688528594738598e-04
14                     	2.636061612255474e-01	3.246675319895124e-01	7.809329707953174e-01	2.188070078398779e-02	1.580933797306094e-04
15                     	1.306349938410208e-01	1.845705769719441e-01	7.819969722259447e-01	2.204170264930165e-02	1.288710456671513e-04
16                     	1.538909716612969e-01	2.137554072561633e-01	7.202854394710360e-01	2.055619653056636e-02	1.222996414466470e-04
17                     	1.571414823933558e-01	2.133674446666682e-01	7.004366215673071e-01	2.588328093775914e-02	1.889434242899637e-04
18                     	8.114973819386177e-02	1.449841905718944e-01	7.085467014243656e-01	2.691875141513815e-02	1.744888179198174e-04
19                     	5.342935893138182e-02	1.379958137582898e-01	7.058782716123103e-01	2.634054337599821e-02	1.104863855215936e-04
20                     	9.366859259980478e-02	1.284115520879439e-01	7.651051477277747e-01	2.573474014980664e-02	1.483764208439880e-04
21                     	9.086028476189149e-02	1.321501900216541e-01	7.580824176856390e-01	2.571819949455041e-02	1.949135949494471e-04
22                     	5.011366911527805e-02	1.379022747783772e-01	7.706034007670615e-01	2.761268603744397e-02	1.111606563526029e-04
23                     	5.171291961201813e-02	1.120510236710849e-01	7.718737307540239e-01	2.654534338710263e-02	2.135318689780063e-04
24                     	6.205825001591617e-02	1.041253927291421e-01	6.842635517054211e-01	2.803888859760647e-02	7.181308442863688e-05
25                     	4.585749950728757e-02	8.825312856902186e-02	6.723197147548119e-01	2.903002657179079e-02	9.029181543800734e-05
26                     	2.934222891026227e-02	6.215673950837382e-02	6.743863007031518e-01	3.008468601812201e-02	8.218000024835184e-05
27                     	3.419101953885362e-02	6.376727529127253e-02	6.699101589046669e-01	3.275949145286978e-02	5.234710611429081e-05
28                     	3.576269291106251e-02	7.656814011794977e-02	7.177173939328654e-01	3.810447619026007e-02	4.613736620611637e-05
29                     	2.680687462490711e-02	6.594666499627001e-02	7.554362482917742e-01	4.261028557124539e-02	7.891348854686730e-05
30                     	2.280924057467352e-02	5.351825724356206e-02	7.497312044352427e-01	4.785771188284015e-02	8.545133010233507e-05
31                     	2.910521462679370e-02	5.097778886959194e-02	6.788443070984748e-01	5.666713468744002e-02	4.936530175862799e-05
32                     	2.851329478443303e-02	4.443228224188964e-02	6.197693769406569e-01	6.873750955845512e-02	5.445401832593156e-05
33                     	2.122615786324646e-02	3.693552246403195e-02	5.836459117406568e-01	8.781240592863415e-02	5.412722947838857e-05
34                     	1.777703596361741e-02	3.853697280379584e-02	6.106881190459504e-01	1.010620616036594e-01	4.577508470729429e-05
35                     	1.930421383548063e-02	4.242651931069249e-02	6.573064478537062e-01	1.150505350932457e-01	4.390009242958514e-05
36                     	1.853123739494216e-02	3.794857806530696e-02	6.537499251269322e-01	1.243204484606562e-01	4.644056354615100e-05
37                     	1.675382013747694e-02	3.056383875251212e-02	6.155277804577356e-01	1.350349158313827e-01	4.494407978661944e-05
38                     	1.881555604381437e-02	2.850508180131449e-02	5.670974536810718e-01	1.487720077069937e-01	4.534237549076155e-05
39                     	1.996381839813399e-02	2.856692279112934e-02	5.222602973017251e-01	1.803711870045777e-01	6.065476145798924e-05
40                     	1.814694002991871e-02	2.801764338871250e-02	4.913206987038939e-01	2.044449228239096e-01	6.179263824623963e-05
41                     	1.589383700242810e-02	2.831995256557284e-02	5.027412097642142e-01	1.919366561143108e-01	4.883620099673666e-05
42                     	1.636520050421376e-02	3.033879696890147e-02	5.184370860066175e-01	2.199658316624929e-01	5.468664558593827e-05
43                     	1.653098456068532e-02	3.072520753999814e-02	5.207873520107128e-01	2.403710040071208e-01	5.753008626867456e-05
44                     	1.626803170323135e-02	3.003935109000436e-02	5.130158131008782e-01	2.386003670514495e-01	4.957999227364801e-05
45                     	1.726760931099046e-02	2.961650637917371e-02	4.878296105227086e-01	2.316400057384914e-01	4.898894248888626e-05
46                     	1.856940688926992e-02	2.962670325771582e-02	4.535548940501912e-01	2.280751720856692e-01	5.954682891434283e-05
47                     	1.851559146406964e-02	2.942502015288836e-02	4.363903854432167e-01	2.173740593592402e-01	5.715587730348577e-05
48                     	1.798316365963917e-02	2.932852293507576e-02	4.270496856480221e-01	2.013038905433313e-01	5.424923345965633e-05
49                     	1.786123926347890e-02	2.967243036279077e-02	4.172688956443217e-01	1.857979491846466e-01	5.356327381180765e-05
50                     	1.805192014338434e-02	2.967041462291809e-02	4.030882330706516e-01	1.653984845504446e-01	5.034897841443003e-05
51                     	1.817227815353927e-02	2.890443704341702e-02	3.870765171468052e-01	1.480655244591353e-01	5.705556008938920e-05
52                     	1.812630711089229e-02	2.795523192832728e-02	3.771269393801457e-01	1.328103608067661e-01	5.172840383438604e-05
53                     	1.791248783657196e-02	2.722787017996458e-02	3.578359282326078e-01	1.162033444240290e-01	4.876220852289641e-05
54                     	1.740811314436592e-02	2.706381205984879e-02	3.368627502542016e-01	1.021859367073998e-01	5.469763341894342e-05
55                     	1.658374706032825e-02	2.700122452321127e-02	3.222200307088713e-01	9.136833777200042e-02	5.460570793967786e-05
56                     	1.587279054146455e-02	2.704188157026272e-02	3.224670356742599e-01	7.991596236037687e-02	5.353033435470187e-05
57                     	1.532897793613745e-02	2.698598377518829e-02	3.263866469356376e-01	6.970268638154156e-02	5.448384879031892e-05
58                     	1.470811469007393e-02	2.653707368503842e-02	3.361076902859334e-01	6.078328778028574e-02	5.633162831846196e-05
59                     	1.407021896190668e-02	2.595164808207027e-02	3.296807215500467e-01	5.369499373332037e-02	5.245912793901470e-05
60                     	1.351735865971262e-02	2.540574601233468e-02	3.173338490878442e-01	4.792995635829527e-02	5.009187173270688e-05
61                     	1.305792655404395e-02	2.503358223604730e-02	3.172424784048611e-01	4.391323309450135e-02	5.137312699533420e-05
62                     	1.267794133725612e-02	2.436970295368419e-02	3.077948514835301e-01	4.108821157495460e-02	5.639035881518460e-05
63                     	1.242132350772535e-02	2.343589649925660e-02	3.041188665216272e-01	3.952082516760703e-02	6.223915551732987e-05
64                     	1.219280681736421e-02	2.247506719333530e-02	2.923670511678974e-01	3.912507419494864e-02	6.691236823833263e-05
65                     	1.197811639337844e-02	2.130005738387310e-02	2.867856107367378e-01	3.938251020494011e-02	6.833383781196584e-05
66                     	1.178848454785392e-02	2.027874890321613e-02	2.849392497292891e-01	4.028630830698164e-02	6.448413544865915e-05
67                     	1.154111214159654e-02	1.926612078225674e-02	2.783161755609267e-01	4.137563261576271e-02	5.952963137469310e-05
68                     	1.125842516595893e-02	1.833927202976565e-02	2.828403957428817e-01	4.295252094179005e-02	6.023041213522875e-05
69                     	1.095905146374109e-02	1.751396398371327e-02	2.755258754388122e-01	4.406508447167396e-02	6.365980849562686e-05
70                     	1.061154486277059e-02	1.679991165192083e-02	2.612923154126181e-01	4.507269984160238e-02	7.212433238177460e-05
71                     	1.032528854497630e-02	1.633900173939956e-02	2.517900992645964e-01	4.591771059159874e-02	7.436802539202743e-05
72                     	1.003079265792494e-02	1.582423540990884e-02	2.452166493028869e-01	4.614726390374859e-02	7.497206204299762e-05
73                     	9.753019172666699e-03	1.561233970165635e-02	2.463546819589386e-01	4.596328310744662e-02	6.901916252325904e-05
74                     	9.463825474186300e-03	1.541431852805648e-02	2.530964075159172e-01	4.564626452693370e-02	6.611249341994437e-05
75                     	9.204736538410179e-03	1.535761377126607e-02	2.632895170739491e-01	4.478263781305424e-02	6.516572249434837e-05
76                     	8.958054288902811e-03	1.538876490618392e-02	2.594407820127032e-01	4.377917784796179e-02	6.707528249043219e-05
77                     	8.691246779751577e-03	1.548038955300895e-02	2.489488759339165e-01	4.253073177316530e-02	6.943805726234925e-05
78                     	8.476556174068034e-03	1.563142270350532e-02	2.425574214482771e-01	4.127982002194121e-02	7.680486015553713e-05
79                     	8.320577069061332e-03	1.588608351988226e-02	2.484184635767631e-01	4.007017814189980e-02	7.537817096721298e-05
80                     	8.147534404180151e-03	1.594977098615272e-02	2.532818301647963e-01	3.862526912435026e-02	7.120075447242983e-05
81                     	7.997504962581319e-03	1.599372422185298e-02	2.526575175231970e-01	3.733433940728259e-02	6.818492467283034e-05
82                     	7.924755331576201e-03	1.612423578086924e-02	2.497575336097028e-01	3.635540109859834e-02	6.950015353829274e-05
83                     	7.942078439470967e-03	1.631909486016879e-02	2.470525103249559e-01	3.535474101160405e-02	7.121350338537148e-05
84                     	8.085213456473433e-03	1.658018548208947e-02	2.464625692447822e-01	3.507908879203431e-02	7.312820539787904e-05
85                     	8.294979547638970e-03	1.687970003673857e-02	2.543476217429453e-01	3.508218929052563e-02	8.253062890649960e-05
86                     	8.626213256226469e-03	1.729881142214775e-02	2.602606826408918e-01	3.585011115766321e-02	7.907323652500274e-05
87                     	8.965726367963481e-03	1.762770875843288e-02	2.633467697070103e-01	3.679525868590520e-02	8.102988518345816e-05
88                     	9.307675437518818e-03	1.808484491555187e-02	2.591023512392092e-01	3.848618158083565e-02	8.043530134844255e-05
89                     	9.653485904685764e-03	1.872281355239874e-02	2.546883048227006e-01	4.076163564966352e-02	8.364087400101741e-05
90                     	9.970384480234573e-03	1.933806613870366e-02	2.530940472186716e-01	4.424680156961009e-02	8.432111328233090e-05
91                     	1.029879125457075e-02	1.982826200585016e-02	2.530581652582852e-01	4.737792274635554e-02	7.898226966341871e-05
92                     	1.059776070065916e-02	2.025954104203557e-02	2.476327997351821e-01	5.013228120123175e-02	8.196705896338991e-05
93                     	1.083120478879772e-02	2.074838484475019e-02	2.468714956725594e-01	5.185885084437369e-02	8.952479308539090e-05
94                     	1.101320048701916e-02	2.137495515793920e-02	2.458421561753074e-01	5.291125485039933e-02	8.896709922006487e-05
95                     	1.108366350164046e-02	2.191069485367852e-02	2.457248438974519e-01	5.214993611646067e-02	8.262773757972875e-05
96                     	1.108747434483837e-02	2.233680108283730e-02	2.476271813554730e-01	5.058496482987001e-02	8.470644197977873e-05
97                     	1.110051159186470e-02	2.262792364291048e-02	2.547357072453745e-01	4.866832468818182e-02	9.369838805172855e-05
98                     	1.111371199742538e-02	2.285621927982432e-02	2.562606271164206e-01	4.579757169741460e-02	9.111312750903831e-05
99                     	1.107009470142614e-02	2.297065320163975e-02	2.490738722529423e-01	4.302557724281929e-02	8.746306154094997e-05
100                    	1.091938776736472e-02	2.308466874248270e-02	2.269541356755388e-01	4.009373418995246e-02	8.487732008285788e-05
101                    	1.075353201644001e-02	2.312740004044319e-02	2.221969218012287e-01	3.744978358188245e-02	8.621766179097511e-05
102                    	1.066157679508553e-02	2.310241085565044e-02	2.403579777834292e-01	3.514159822706094e-02	8.767481578412023e-05
103                    	1.059197182910400e-02	2.305835147135873e-02	2.427119189504292e-01	3.301266328100144e-02	8.769218546812588e-05
104                    	1.042087811010529e-02	2.299250229114116e-02	2.392758574875428e-01	3.097089922541395e-02	9.628539201473947e-05
105                    	1.017783016097471e-02	2.295167311778928e-02	2.375908907022822e-01	2.928251263405532e-02	8.980374363574595e-05
106                    	9.911525042617287e-03	2.275211972066585e-02	2.311628015363075e-01	2.775936798964912e-02	9.496587245966057e-05
107                    	9.727281517942993e-03	2.261178495789975e-02	2.322109369064485e-01	2.640529173691265e-02	9.214691195957607e-05
108                    	9.602404437581336e-03	2.233277079401734e-02	2.311332626962733e-01	2.531012825279541e-02	9.843131635562604e-05
109                    	9.477063017200629e-03	2.201428236739693e-02	2.321146592276539e-01	2.454672328953670e-02	9.497396546764573e-05
110                    	9.342351346644450e-03	2.159577292473712e-02	2.305334818150606e-01	2.382155745988490e-02	9.208323676957903e-05
111                    	9.209478238092345e-03	2.118050048216751e-02	2.299201233592455e-01	2.314845964383527e-02	8.879464643932269e-05
112                    	9.108417242396100e-03	2.093803652343210e-02	2.211139421818236e-01	2.269154332985613e-02	8.997066374956697e-05
113                    	8.984219005054219e-03	2.073334259797414e-02	2.112711413063423e-01	2.252243753288695e-02	9.185623732941562e-05
114                    	8.864540541553298e-03	2.047780677281363e-02	2.074401954596107e-01	2.250602969241202e-02	9.595330829512094e-05
115                    	8.802499148514024e-03	2.025934024242220e-02	2.124224313231836e-01	2.269022792121036e-02	8.854638712851822e-05
116                    	8.761113406615782e-03	1.995646981306334e-02	2.200253430419772e-01	2.292359215575505e-02	8.852284474244093e-05
117                    	8.678958234994396e-03	1.954644192181982e-02	2.152053705504021e-01	2.314819249693041e-02	8.774972574983107e-05
118                    	8.582102753271075e-03	1.910044225192176e-02	2.034420642431770e-01	2.329419828737890e-02	8.914582703386641e-05
119                    	8.497100252527276e-03	1.856866368435224e-02	1.918818019290982e-01	2.331355638742140e-02	8.873499900384245e-05
120                    	8.419664287254216e-03	1.800585115157838e-02	1.831132820107390e-01	2.334849195622824e-02	8.447086851686351e-05
121                    	8.350042560946267e-03	1.741131694269913e-02	1.791787069791630e-01	2.332565915472196e-02	8.607759450538590e-05
122                    	8.268555788076356e-03	1.674693172407208e-02	1.749534891233687e-01	2.316910122156300e-02	8.267480177930575e-05
123                    	8.174930871363692e-03	1.604265586590076e-02	1.654924884005381e-01	2.287053468495855e-02	8.577699787033022e-05
124                    	8.068944861017785e-03	1.537563156748595e-02	1.572492934029744e-01	2.249852170651161e-02	8.126897761894212e-05
125                    	7.936029520304628e-03	1.470338783227300e-02	1.523294156967085e-01	2.198512018487344e-02	8.135303652838286e-05
126                    	7.806109232222753e-03	1.406150991352844e-02	1.457224709709331e-01	2.134361390873174e-02	7.998148321730819e-05
127                    	7.670380275607989e-03	1.347217827220472e-02	1.380029593105868e-01	2.065202789152298e-02	8.116932637099367e-05
128                    	7.534019316051212e-03	1.293994735531614e-02	1.328583354020799e-01	1.999572248372384e-02	8.264266196191539e-05
129                    	7.380430325169191e-03	1.249873491340718e-02	1.286775742846339e-01	1.936234080329685e-02	8.197135995843066e-05
130                    	7.238837327855292e-03	1.211878100295581e-02	1.247525588655349e-01	1.878586119519798e-02	8.063926938351465e-05
131                    	7.108625107751306e-03	1.179165511400964e-02	1.221640857364515e-01	1.828240464848913e-02	7.709423251399947e-05
132                    	7.000895772791406e-03	1.150215807480761e-02	1.209539084452669e-01	1.778960017074947e-02	7.908280206149789e-05
133                    	6.904078854659625e-03	1.127649869934622e-02	1.192459978377343e-01	1.732537754318011e-02	7.757502407002988e-05
134                    	6.801533273249880e-03	1.110836115637339e-02	1.165470450928221e-01	1.692511537609127e-02	7.541911341370626e-05
135                    	6.688718881232122e-03	1.099322164002913e-02	1.125054243615010e-01	1.656951436244157e-02	7.626152029631208e-05
136                    	6.582529892624206e-03	1.088535677346215e-02	1.095866604034727e-01	1.623295903186332e-02	7.536338629521496e-05
137                    	6.496448025115682e-03	1.080620543450531e-02	1.101456259232582e-01	1.591481958789337e-02	7.366681827666178e-05
138                    	6.446553162940460e-03	1.075572611057439e-02	1.127346931247122e-01	1.559865315615228e-02	7.324695599868294e-05
139                    	6.409752646261801e-03	1.073999426544785e-02	1.126589097075350e-01	1.530548805776367e-02	7.377669122862988e-05
140                    	6.353938471723159e-03	1.076301054674209e-02	1.120192622408063e-01	1.500002179369038e-02	7.280608261195239e-05
141                    	6.289718471672598e-03	1.083857188671124e-02	1.066636257028589e-01	1.470881146126356e-02	7.212615802502219e-05
142                    	6.236301746921882e-03	1.092019857388083e-02	1.055544621538695e-01	1.441780985906373e-02	7.126276116409705e-05
143                    	6.221149827969234e-03	1.100469355643507e-02	1.110645736653051e-01	1.413987458618352e-02	7.072172907956800e-05
144                    	6.228416259887909e-03	1.109738865151935e-02	1.154683457774661e-01	1.387051578497456e-02	7.007206228575476e-05
145                    	6.222082004667093e-03	1.121595066682566e-02	1.136581891171156e-01	1.362229719583784e-02	6.989067573737510e-05
146                    	6.195908486393263e-03	1.136575624334841e-02	1.085396429069205e-01	1.337435499246635e-02	6.947096061324783e-05
147                    	6.176345151269446e-03	1.150993314679638e-02	1.096363613044308e-01	1.313617427281156e-02	7.080842840582853e-05
148                    	6.188210228535647e-03	1.163230527782448e-02	1.169009782722693e-01	1.290821539797247e-02	6.899873112612403e-05
149                    	6.200452794578386e-03	1.173752907839737e-02	1.184674101636373e-01	1.270497420953659e-02	6.884680324835940e-05
150                    	6.189080237163132e-03	1.186934461186679e-02	1.140208980612045e-01	1.250961687283557e-02	6.821298232986080e-05
151                    	6.165110436798829e-03	1.199328432097462e-02	1.106316694310239e-01	1.231973787986227e-02	6.841865926361417e-05
152                    	6.161350519506201e-03	1.207908607306483e-02	1.162544544856068e-01	1.215343561819903e-02	6.869108159217849e-05
153                    	6.167357562812304e-03	1.215608377322840e-02	1.214068930123391e-01	1.199360328531595e-02	6.964920766883445e-05
154                    	6.152896563298968e-03	1.226615081057160e-02	1.178042519836336e-01	1.184368324272700e-02	6.914126794725720e-05
155                    	6.118926251265367e-03	1.234245056090159e-02	1.127767124724908e-01	1.171050457204985e-02	6.767174353345529e-05
156                    	6.094979799210997e-03	1.240671830059752e-02	1.146321198083894e-01	1.158332185686182e-02	6.839089891379621e-05
157                    	6.084779128444952e-03	1.244067676540299e-02	1.215816105183084e-01	1.147103848438443e-02	6.845990057034248e-05
158                    	6.057985268283586e-03	1.248409350929044e-02	1.202794752552261e-01	1.135786531162882e-02	7.024204152768871e-05
159                    	6.006268411598273e-03	1.256919962888652e-02	1.144216159033987e-01	1.124595798578782e-02	6.866823111979885e-05
160                    	5.958507668184779e-03	1.259267698195235e-02	1.131534804449928e-01	1.114900287585452e-02	6.753165493177217e-05
161                    	5.933247707959876e-03	1.258420637087403e-02	1.187424234887806e-01	1.105158739050851e-02	6.722561197410156e-05
162                    	5.902220372223903e-03	1.258935740475980e-02	1.204334316304630e-01	1.097151677858791e-02	6.762634809413595e-05
163                    	5.847432032807447e-03	1.262469797339729e-02	1.161342307820073e-01	1.090061186671812e-02	6.857857189643331e-05
164                    	5.784586457459843e-03	1.267686964347391e-02	1.127631857418835e-01	1.083915505692627e-02	6.800965961754093e-05
165                    	5.743788829499979e-03	1.269420454522274e-02	1.150041957811776e-01	1.077733155515840e-02	6.739758980478660e-05
166                    	5.709770927659205e-03	1.270387120427170e-02	1.189038268600066e-01	1.072025111154755e-02	6.745366065854502e-05
167                    	5.655070766153849e-03	1.274197304956752e-02	1.164911041823374e-01	1.068812984856956e-02	6.872367307188631e-05
168                    	5.580314912195798e-03	1.281365990928201e-02	1.114643362188937e-01	1.067658730312248e-02	6.871527007085645e-05
169                    	5.522997576513308e-03	1.285004098084469e-02	1.117952970785177e-01	1.065370842477168e-02	6.771327744874756e-05
170                    	5.482388863714042e-03	1.288031796158285e-02	1.151890539889017e-01	1.066243410028798e-02	6.733446078060167e-05
171                    	5.433313510276446e-03	1.290463710421939e-02	1.156156128511081e-01	1.068858569881197e-02	6.783853436328986e-05
172                    	5.382355151864064e-03	1.294712334382101e-02	1.132886825210072e-01	1.072257186925204e-02	6.776481699481023e-05
173                    	5.330543145418806e-03	1.298764787549291e-02	1.102059113680020e-01	1.076043464481597e-02	6.790068509156594e-05
174                    	5.317039056757995e-03	1.303211071264053e-02	1.116627915921331e-01	1.081905226658529e-02	6.972444073009338e-05
175                    	5.298061100649774e-03	1.305470043835502e-02	1.132401045640272e-01	1.086789975174678e-02	6.780639780323476e-05
176                    	5.295959311562609e-03	1.303699622074548e-02	1.128835369446726e-01	1.094925086445976e-02	6.881123763202552e-05
177                    	5.265833187041427e-03	1.302978322479901e-02	1.104336532682639e-01	1.099203613639054e-02	6.845899780500391e-05
178                    	5.244193100517542e-03	1.300460015704762e-02	1.092356077958884e-01	1.103072523987883e-02	6.966614995648040e-05
179                    	5.221513322422515e-03	1.292630173047870e-02	1.107389339603907e-01	1.106318518657888e-02	6.807095607852932e-05
180                    	5.200681614505579e-03	1.285085006133078e-02	1.121846965318791e-01	1.109485864901694e-02	6.867381311186698e-05
181                    	5.180737038837701e-03	1.276255465697938e-02	1.126020468056840e-01	1.110162791364002e-02	6.765660570789122e-05
182                    	5.156460134541014e-03	1.265965577044576e-02	1.130688902316155e-01	1.110588712234213e-02	6.702746243528731e-05
183                    	5.134911264196164e-03	1.254320485961248e-02	1.131940668252956e-01	1.110326348804417e-02	6.712987437093298e-05
184                    	5.110572893845424e-03	1.239993097602857e-02	1.125831463991946e-01	1.110370261693743e-02	6.718630990112394e-05
185                    	5.085812834956336e-03	1.224398612127535e-02	1.114554962966293e-01	1.111039458071067e-02	6.704376470312843e-05
186                    	5.066902145034008e-03	1.207219273043158e-02	1.107045748912803e-01	1.111800820442820e-02	6.694504080183555e-05
187                    	5.046065225207902e-03	1.189278995599261e-02	1.095362011292085e-01	1.112419542989394e-02	6.738655656847456e-05
188                    	5.029044673074472e-03	1.170744255254199e-02	1.094948412670581e-01	1.111431520300877e-02	6.648991819699636e-05
189                    	5.012273429114716e-03	1.155830747517798e-02	1.088034241701977e-01	1.108978838586356e-02	6.578666659480713e-05
190                    	4.992675470293272e-03	1.142547578088877e-02	1.083200161271596e-01	1.104596228121816e-02	6.460442901571552e-05
191                    	4.974303720125806e-03	1.131349164783517e-02	1.069894515791758e-01	1.099094089271140e-02	6.379255779923019e-05
192                    	4.957259201707368e-03	1.122618423116263e-02	1.051002499459073e-01	1.093063989907693e-02	6.349726736997716e-05
193                    	4.937756526042490e-03	1.117258642997913e-02	1.037817499015640e-01	1.084312714797196e-02	6.310370659047681e-05
194                    	4.920055883503197e-03	1.116091252748187e-02	1.033075505046386e-01	1.075379229100297e-02	6.286324580868925e-05
195                    	4.897412549734482e-03	1.118505647858867e-02	1.036395447169345e-01	1.066246971435651e-02	6.238142411505483e-05
196                    	4.875937421421944e-03	1.122640496346173e-02	1.039707266447969e-01	1.057065563170072e-02	6.311037231746826e-05
197                    	4.851304733266983e-03	1.126147952113395e-02	1.046634474265222e-01	1.047161269837115e-02	6.160798672027868e-05
198                    	4.825778387541728e-03	1.132275512554833e-02	1.049384028137625e-01	1.036880984183999e-02	6.168771614981836e-05
199                    	4.802778278806899e-03	1.139749086030388e-02	1.052011454205643e-01	1.028655408354496e-02	6.070932932905663e-05
200                    	4.780688655861266e-03	1.147950400434197e-02	1.060768745336189e-01	1.019639752481786e-02	6.119724756321688e-05
201                    	4.759850850066381e-03	1.157815128083739e-02	1.065666943186035e-01	1.010604470954502e-02	6.010525795701179e-05
202                    	4.741217644010468e-03	1.166243389837654e-02	1.066857332753652e-01	1.002377233306425e-02	6.022316522344295e-05
203                    	4.724443408174986e-03	1.174449720312529e-02	1.075736149242945e-01	9.930019146774554e-03	5.937155154687649e-05
204                    	4.709398984276039e-03	1.182595025713663e-02	1.078215043791766e-01	9.844917874216442e-03	5.868453987404425e-05
205                    	4.696206582422201e-03	1.190074309045595e-02	1.087092960053961e-01	9.754144476551856e-03	5.830037689877635e-05
206                    	4.687047693907795e-03	1.197173909352830e-02	1.096040683080386e-01	9.671430504233415e-03	5.813226930844069e-05
207                    	4.681959954419203e-03	1.204242640582347e-02	1.109825980025391e-01	9.601246049602446e-03	5.805633393583572e-05
208                    	4.679088587482750e-03	1.210640072282567e-02	1.113946020546872e-01	9.520226499108135e-03	5.782405232561626e-05
209                    	4.678627951415331e-03	1.217522971966248e-02	1.113102189653074e-01	9.458153738246051e-03	5.772857058584099e-05
210                    	4.680686435608018e-03	1.225062680477130e-02	1.110835312804484e-01	9.388441988188763e-03	5.808097335716715e-05
211                    	4.683741237269722e-03	1.234063990153521e-02	1.104874568463977e-01	9.329615669513652e-03	5.742905306303364e-05
212                    	4.689782575969383e-03	1.241472277328220e-02	1.113435080149981e-01	9.279673389035908e-03	5.665945844195546e-05
213                    	4.701967021958885e-03	1.248223327776870e-02	1.120687046022695e-01	9.244251675899290e-03	5.597479308579645e-05
214                    	4.716315421348339e-03	1.254387565938300e-02	1.135429667096997e-01	9.214154250132021e-03	5.590407248492358e-05
215                    	4.733120830365202e-03	1.259954373779253e-02	1.144933423347460e-01	9.191695253342376e-03	5.574621211631910e-05
216                    	4.751106119478948e-03	1.265039397076859e-02	1.139376173944379e-01	9.168891888766456e-03	5.548280200402219e-05
217                    	4.767622111820258e-03	1.270142877146658e-02	1.139643203596227e-01	9.146567322520257e-03	5.673429434886743e-05
218                    	4.782079121896626e-03	1.276764565553843e-02	1.131054070279345e-01	9.121272377320251e-03	5.503277071721121e-05
219                    	4.795599818330231e-03	1.282516197774692e-02	1.135323675031698e-01	9.110163736095496e-03	5.493360161171698e-05
220                    	4.811843954969648e-03	1.287623055222090e-02	1.146945380870806e-01	9.099108073461705e-03	5.407029934038313e-05
221                    	4.831541281098183e-03	1.291611499933341e-02	1.162052824545556e-01	9.087453042775431e-03	5.353786122196738e-05
222                    	4.852201196312080e-03	1.294975701013716e-02	1.173545809506802e-01	9.076496669468021e-03	5.353447870510437e-05