4 	0.00391112967796265 	-2.08166817117217e-17 	0.142445373133179 	2.1187294784891e-05 	840.588738156032 	5.31092264162241e-06 	2.91216705719354e-38
4 	0.0118766651674913 	-2.42861286636753e-17 	0.142443284192911 	0.000238982390993339 	238.260457774691 	7.5062445208601e-05 	0
4 	0.020134001548576 	-3.12250225675825e-17 	0.142438400234736 	0.00116851350883306 	61.32263192252 	0.000339648438991815 	0
4 	0.028693828342395 	-3.81639164714898e-17 	0.142423751268551 	0.00308234895747065 	25.7665663509462 	0.000439841372252849 	0
4 	0.0375672266585909 	-3.81639164714898e-17 	0.14239307010862 	0.00534552227388169 	14.0314884929682 	0.000166604336988486 	0
4 	0.0467656835403032 	-3.81639164714898e-17 	0.142343617405266 	0.00741823992489028 	9.18737368912948 	3.06772301996262e-05 	0
4 	0.0563011068347006 	-3.81639164714898e-17 	0.142277954926335 	0.00921076631338942 	6.79674072873123 	6.77609122093853e-05 	0
4 	0.0661858406082648 	-3.46944695195361e-17 	0.142200387416549 	0.0107828882944582 	5.42743009938238 	0.00017250866280063 	0
4 	0.0764326811267815 	-3.46944695195361e-17 	0.142114092693732 	0.0121977337674197 	4.55409008226413 	0.000298957579232484 	0
4 	0.0870548934207257 	-3.46944695195361e-17 	0.142021060046939 	0.0135002944131526 	3.95393412482979 	0.000434102632570001 	0
4 	0.0980662284574838 	-3.81639164714898e-17 	0.141922723136951 	0.0147213314929509 	3.5193009779819 	0.000574793044632365 	0
4 	0.109480940942647 	-3.46944695195361e-17 	0.141820264988735 	0.0158823540934106 	3.19247490146572 	0.000720758715718097 	0
4 	0.121313807773416 	-2.77555756156289e-17 	0.141714706720627 	0.0169989363454916 	2.93992318355907 	0.000872650855423428 	0
4 	0.13358014716801 	-2.77555756156289e-17 	0.141606950684115 	0.0180827566130686 	2.74089966848809 	0.00103145523902249 	0
4 	0.146295838495838 	-2.77555756156289e-17 	0.141497813805412 	0.0191428565059972 	2.58191384858538 	0.00119830855770773 	0
4 	0.159477342834115 	-2.42861286636753e-17 	0.141388050013712 	0.0201864372284899 	2.4538359922124 	0.00137444507856429 	0
4 	0.173141724277517 	-1.73472347597681e-17 	0.141278363824748 	0.0212193770038149 	2.35028498993339 	0.00156118874543665 	0
4 	0.18730667202848 	-1.73472347597681e-17 	0.141169418858287 	0.0222465752686383 	2.26668305012427 	0.00175996159648672 	0
4 	0.201990523296728 	-2.42861286636753e-17 	0.14106184372636 	0.0232721855418873 	2.19967685676873 	0.00197229783759841 	0
4 	0.217212287037676 	-3.12250225675825e-17 	0.140956236645286 	0.0242997740907209 	2.14676982630811 	0.00219985949911752 	0
4 	0.232991668560441 	-3.81639164714898e-17 	0.140853169689805 	0.0253324271505139 	2.10608098304821 	0.00244445199592154 	0
4 	0.249349095037321 	-4.16333634234434e-17 	0.140753193422657 	0.0263728208810383 	2.07618248328439 	0.00270803874572137 	0
4 	0.266305741947753 	-4.16333634234434e-17 	0.140656842520567 	0.0274232629593708 	2.05598750633047 	0.00299275422263042 	0
4 	0.283883560490999 	-4.16333634234434e-17 	0.140564642947444 	0.0284857113483679 	2.04467127639519 	0.00330091477598796 	0
4 	0.30210530600303 	-4.5102810375397e-17 	0.140477121200387 	0.0295617735626351 	2.04161439358837 	0.00363502634448462 	0
4 	0.320994567414413 	-4.5102810375397e-17 	0.140394816146395 	0.0306526882320878 	2.04636149138327 	0.00399778787696989 	0
4 	0.340575797787321 	-3.81639164714898e-17 	0.140318293740161 	0.031759289667513 	2.0585905929535 	0.00439208885293697 	0
4 	0.360874345971201 	-2.77555756156289e-17 	0.140248164135811 	0.0328819552943045 	2.0780900083293 	0.00482099868568143 	0
4 	0.38191648941809 	-2.77555756156289e-17 	0.140185101503153 	0.0340205351283095 	2.10474053344212 	0.00528774430349336 	0
4 	0.403729468200046 	-3.81639164714898e-17 	0.140129877486221 	0.0351742618616051 	2.13850127028254 	0.00579566891921647 	0
4 	0.426341520272733 	-4.5102810375397e-17 	0.140083429697803 	0.0363416396004954 	2.17939769038835 	0.00634816958941165 	0
4 	0.449781918030829 	-3.81639164714898e-17 	0.140046876458023 	0.0375202581205673 	2.22751068024389 	0.0069486820472052 	0
4 	0.474081006202548 	-2.77555756156289e-17 	0.140021034913192 	0.0387059023733994 	2.28296546144122 	0.0076005006330612 	0
4 	0.499270241132363 	-3.12250225675825e-17 	0.1400057954694 	0.0398941628956658 	2.34591732263968 	0.00830676557572099 	0
4 	0.525382231502763 	-3.81639164714898e-17 	0.140004834828188 	0.0410793008172946 	2.4165314790244 	0.00908014169970428 	0
4 	0.552450780547767 	-3.81639164714898e-17 	0.140043692976602 	0.0422544217287859 	2.49500314930786 	0.0100917203030402 	0
4 	0.580510929812849 	-3.46944695195361e-17 	0.140139775996322 	0.0434211362625356 	2.58239297148943 	0.0112411970862301 	0
4 	0.60959900451791 	-3.81639164714898e-17 	0.14027206507601 	0.0445764179739902 	2.6787027458355 	0.0126188195892411 	0
4 	0.639752660582032 	-3.12250225675825e-17 	0.140420345470636 	0.0456699521518925 	2.77934208360502 	0.0140340604848877 	0
4 	0.671010933370886 	-2.77555756156289e-17 	0.140582114307327 	0.0466230768459694 	2.87607743409023 	0.0153122458691967 	0
4 	0.7034142882299 	-3.81639164714898e-17 	0.140764267912458 	0.0473554990537597 	2.95965257929823 	0.0163622217269689 	0
4 	0.737004672868606 	-3.81639164714898e-17 	0.140973271443114 	0.04780103197516 	3.02265610094735 	0.0171490072526887 	0
4 	0.771825571663976 	-4.5102810375397e-17 	0.14121145651693 	0.0479110899822894 	3.06114448074604 	0.0176525622404352 	0
4 	0.807922061953053 	-4.85722573273506e-17 	0.141477255557685 	0.0476521256862601 	3.07402070958198 	0.0178447726945726 	0
4 	0.845340872387742 	-3.81639164714898e-17 	0.141767072228527 	0.0470042206364456 	3.06136218560781 	0.0176922309827993 	0
4 	0.884130443427309 	-3.10081821330854e-17 	0.142077476351558 	0.0459622368167708 	3.02321675841738 	0.0171718089979067 	0
4 	0.924340990046897 	-2.62376925741492e-17 	0.14240634551534 	0.0445417891975605 	2.95938504121826 	0.016287401097799 	0
4 	0.966024566743241 	-2.99239799605999e-17 	0.142752572338792 	0.0427874178496383 	2.8699551953347 	0.0150799922665735 	0
4 	1.00923513492173 	-3.16587034365767e-17 	0.143117005666411 	0.0407646087178345 	2.75524647495498 	0.0136157518830959 	0
4 	1.05402863275205 	-3.38271077815477e-17 	0.143501207953747 	0.0385605676916351 	2.6166260555 	0.0119816747625358 	0
4 	1.10046304758287 	-3.51281503885303e-17 	0.1439066572888 	0.0362790070413474 	2.4573493822809 	0.0102790599577772 	0
4 	1.14859849100923 	-3.72965547335014e-17 	0.144333807791425 	0.0340371719173525 	2.28509222654738 	0.00862074631693373 	0
4 	1.19849727668994 	-3.98986399474666e-17 	0.144778820743034 	0.0319427177072132 	2.11067158222043 	0.00712076315998889 	0
4 	1.25022400101563 	-3.90312782094782e-17 	0.145237341350016 	0.0300539556932321 	1.94076472885141 	0.00586782146713752 	0
4 	1.30384562673185 	-3.81639164714898e-17 	0.1457385464324 	0.0283707848894905 	1.77751758008194 	0.00481633742914993 	0
4 	1.35943156962565 	-3.38271077815477e-17 	0.14626833837769 	0.0268788064407534 	1.6226011215895 	0.0039366983866646 	0
4 	1.41705378838762 	-3.20923843055709e-17 	0.146786434459743 	0.0255652326510352 	1.47886531631704 	0.00321523252780942 	0
4 	1.47678687776592 	-3.29597460435593e-17 	0.147295606227591 	0.0244043692858555 	1.34899478311707 	0.00263407542719113 	0
4 	1.53870816513277 	-3.12250225675825e-17 	0.147796318511556 	0.0233514283496213 	1.23328148453519 	0.00218297306325161 	0
4 	1.60289781058851 	-2.94902990916057e-17 	0.148292005545256 	0.0223517601354568 	1.130003681595 	0.00183518447020328 	0
4 	1.66943891073266 	-3.12250225675825e-17 	0.1487842007085 	0.0213572013654878 	1.03816556471926 	0.00155989000609956 	0
4 	1.73841760623657 	-3.12250225675825e-17 	0.149268320677361 	0.0203334348078068 	0.95770719714783 	0.0013310528956389 	0
4 	1.80992319335659 	-3.12250225675825e-17 	0.14973809099714 	0.0192584011806063 	0.887700812121099 	0.00113028862446009 	0
4 	1.88404823953248 	-3.12250225675825e-17 	0.150189350702616 	0.0181216897212621 	0.8264223120951 	0.00094655388292517 	0
4 	1.96088870322037 	-2.94902990916057e-17 	0.15059918559041 	0.0169666409821655 	0.774413123231156 	0.000780619330348135 	0
4 	2.02025965173184 	-3.12250225675825e-17 	0.150898507627641 	0.0160196366094495 	0.738920861649435 	0.000655507102385425 	0
4 	2.06006301192217 	-2.77555756156289e-17 	0.151098949354716 	0.0153326611828817 	0.716399593642398 	0.000572161918689502 	0
4 	2.09845978584128 	-2.77555756156289e-17 	0.15126400373025 	0.0147177890649795 	0.698571322593178 	0.000500589228565721 	0
4 	2.13549967996945 	-3.46944695195361e-17 	0.151413859518587 	0.0141309149484783 	0.683659865444918 	0.000434968081828655 	0
4 	2.17123064424048 	-3.46944695195361e-17 	0.151548003447479 	0.0135725067519418 	0.671551579688101 	0.000375267218926129 	0
4 	2.20569893411515 	-3.12250225675825e-17 	0.151667278902208 	0.0130426245686096 	0.662160657712269 	0.00032117395941797 	0
4 	2.23894917046122 	-2.77555756156289e-17 	0.151772871706184 	0.0125410011691853 	0.655425952647483 	0.000272427590333347 	0
4 	2.27102439731725 	-3.46944695195361e-17 	0.151865883081917 	0.0120671198529835 	0.651309807264998 	0.000228778120985056 	0
4 	2.30196613761521 	-4.16333634234434e-17 	0.151947355350788 	0.0116202863671146 	0.649798079882422 	0.00018999188639593 	0
4 	2.33181444693391 	-4.16333634234434e-17 	0.152018295313764 	0.0111996917809299 	0.650900829655066 	0.000155862398944922 	0
4 	2.3606079653529 	-4.16333634234434e-17 	0.152079671901587 	0.0108044651410895 	0.654653367237932 	0.000126218118420269 	0
4 	2.3883839674739 	-3.81639164714898e-17 	0.152132412238984 	0.0104337161548576 	0.661117533946693 	0.000100928492927055 	0
4 	2.41517841067461 	-3.12250225675825e-17 	0.15217739912506 	0.0100865687908928 	0.670383155397924 	7.99090061148292e-05 	0
4 	2.44102598165722 	-3.46944695195361e-17 	0.152215468824226 	0.00976218689183269 	0.682569655495116 	6.31254085489336e-05 	0
4 	2.46596014135207 	-4.16333634234434e-17 	0.152247408957827 	0.00945979287800383 	0.697827833212987 	5.05972814003279e-05 	0
4 	2.49001316823443 	-4.5102810375397e-17 	0.152273956592898 	0.009178680496419 	0.716341809034314 	4.2401045886593e-05 	0
4 	2.51321620011054 	-4.85722573273506e-17 	0.152295796599947 	0.0089182224006988 	0.738331147326662 	3.86724579983499e-05 	0
4 	2.535599274427 	-4.85722573273506e-17 	0.152313560336016 	0.00867787317893246 	0.764053160692125 	3.96085609485364e-05 	0
4 	2.55719136715571 	-4.85722573273506e-17 	0.152327824712937 	0.00845716830615404 	0.793805406781632 	4.5469027868042e-05 	0
4 	2.57802043030465 	-4.85722573273506e-17 	0.152339111713379 	0.00825571940549375 	0.827928401370288 	5.65768274932253e-05 	0
4 	2.59811342810315 	-4.85722573273506e-17 	0.152347888415314 	0.00807320617056267 	0.866808597669507 	7.33181996449173e-05 	0
4 	2.61749637190832 	-4.85722573273506e-17 	0.152354567579049 	0.00790936533865819 	0.91088172447971 	9.61420473448313e-05 	0
4 	2.63619435387806 	-4.85722573273506e-17 	0.152359508839196 	0.00776397720928164 	0.960636637113681 	0.000125559044190591 	0
4 	2.65423157945406 	-4.16333634234434e-17 	0.152363020526203 	0.00763685036320018 	1.01661991463526 	0.000162141012296839 	0
4 	2.67163139869691 	-3.46944695195361e-17 	0.152365362118315 	0.0075278054273307 	1.07944153024252 	0.000206521422195052 	0
4 	2.68841633651388 	-3.46944695195361e-17 	0.152366747295652 	0.00743665890808771 	1.14978201848247 	0.000259398153797411 	0
4 	2.7046081218185 	-3.46944695195361e-17 	0.152367347535504 	0.00736320822634416 	1.22840164759118 	0.00032153986893858 	0
4 	2.72022771565972 	-3.46944695195361e-17 	0.152367296154918 	0.00730721907333003 	1.3161521576185 	0.000393797403057106 	0
4 	2.73529533835694 	-3.46944695195361e-17 	0.152366692677484 	0.00726841602205168 	1.41399162485064 	0.000477121415650072 	0
4 	2.74983049567625 	-3.46944695195361e-17 	0.152365607380145 	0.00724647695404454 	1.5230029458267 	0.000572587103950193 	0
4 	2.76385200408156 	-3.81639164714898e-17 	0.152364085866637 	0.00724103131870561 	1.64441629799543 	0.00068142608453209 	0
4 	2.77737801509343 	-3.81639164714898e-17 	0.152362153519154 	0.00725166160109757 	1.77963574517107 	0.000805064635088573 	0
4 	2.79042603878708 	-3.46944695195361e-17 	0.152359819701728 	0.00727790674317335 	1.93026995181038 	0.000945166451140808 	0
4 	2.80301296646003 	-3.81639164714898e-17 	0.152357081625244 	0.00731926577468456 	2.09816680829589 	0.00110367700489553 	0
4 	2.81515509249872 	-4.16333634234434e-17 	0.15235392779211 	0.00737519969595083 	2.28545172659656 	0.00128286557129646 	0
4 	2.82686813547237 	-4.16333634234434e-17 	0.152350340844165 	0.0074451298308097 	2.49456954529188 	0.00148536009066467 	0
4 	2.83816725848142 	-4.16333634234434e-17 	0.152346299810308 	0.00752843152857551 	2.72833054357596 	0.00171416948252009 	0
4 	2.84906708878691 	-4.5102810375397e-17 	0.152341783691083 	0.00762442331777921 	2.989962275354 	0.00197268817828238 	0
4 	2.85958173674616 	-4.85722573273506e-17 	0.152336779750224 	0.00773235347685717 	3.28317124046407 	0.00226467873355215 	0
4 	2.86972481407933 	-4.85722573273506e-17 	0.152331278549066 	0.00785138856221272 	3.61222241195201 	0.00259424611546908 	0
4 	2.87950945149043 	-4.85722573273506e-17 	0.152325180583139 	0.00798061098918492 	3.98205050093608 	0.00296803995925286 	0
4 	2.88894831566566 	-4.85722573273506e-17 	0.152318273882848 	0.00811901362491847 	4.39863143368911 	0.00340199271767312 	0
4 	2.89805362567106 	-4.85722573273506e-17 	0.152310804847032 	0.00826542637019754 	4.87026108126097 	0.00390756783156293 	0
4 	2.90683716877067 	-4.85722573273506e-17 	0.152303000456635 	0.00841824936164441 	5.40758910098902 	0.00449913852308826 	0
4 	2.91531031568569 	-5.20417042793042e-17 	0.152294754037083 	0.00857418831680989 	6.02063663857888 	0.00518570259865597 	0
4 	2.92348403531448 	-5.55111512312578e-17 	0.152286133063095 	0.0087275164717279 	6.71701564379581 	0.00596203082737496 	0
4 	2.93136890893229 	-5.89805981832114e-17 	0.152277159028417 	0.00887073126791965 	7.50312666260716 	0.0068225733145382 	0
4 	2.93897514388925 	-5.89805981832114e-17 	0.15226777339694 	0.00899519738072451 	8.38590996325516 	0.00776454018926208 	0
4 	2.94631258682425 	-5.20417042793042e-17 	0.152257934823185 	0.00909140748451684 	9.37478255908198 	0.0087859029186142 	0
4 	2.95339073641193 	-4.85722573273506e-17 	0.152247655807206 	0.00914898995698113 	10.4850224003602 	0.00988429810745363 	0
4 	2.96021875565915 	-4.85722573273506e-17 	0.152236998559619 	0.00915650955847506 	11.7411180669801 	0.011056374968456 	0
4 	2.96680548376697 	-4.85722573273506e-17 	0.152226065296317 	0.00910112879237183 	13.1748086385836 	0.0122968054937747 	0
4 	2.97315944757337 	-4.85722573273506e-17 	0.152214993247587 	0.00896809692673704 	14.8293905017135 	0.01359597130178 	0
4 	2.97928887259171 	-4.85722573273506e-17 	0.152203952734492 	0.00873975729026408 	16.7708696173078 	0.0149345847777208 	0
4 	2.98520169365902 	-4.85722573273506e-17 	0.152193143847394 	0.00839426270704056 	19.0991628259465 	0.0162733800430526 	0
4 	2.99090556520806 	-5.55111512312578e-17 	0.152182790549846 	0.00790416347541626 	21.967141985615 	0.0175287496209036 	0
4 	2.99640787117633 	-6.24500451351651e-17 	0.152173137797957 	0.00723568589989444 	25.6185774753016 	0.0185244791792331 	0
4 	3.00171573456492 	-6.24500451351651e-17 	0.152164420140028 	0.00635165780548407 	30.4712866006171 	0.0189721681777697 	0
4 	3.00683602665962 	-6.24500451351651e-17 	0.152156848781057 	0.00521794996645611 	37.3277349712051 	0.018246729759965 	0
4 	3.01177537592612 	-6.24500451351651e-17 	0.152150764327477 	0.00383355645506558 	47.9667481716218 	0.0150650745285073 	0
4 	3.01654017659085 	-6.24500451351651e-17 	0.152146403936949 	0.00234698858831175 	67.1426782189207 	0.00940508454245578 	0
4 	3.02113659691864 	-6.24500451351651e-17 	0.152143542403726 	0.00109740082104112 	110.737351442905 	0.00377904696713705 	0
4 	3.02557058719784 	-6.59194920871187e-17 	0.152141625071005 	0.000358394955662407 	247.826768007108 	0.000852724126174684 	0
4 	3.02984788744324 	-6.93889390390723e-17 	0.152140120911156 	7.19087307097385e-05 	1001.42605173423 	9.35875324829261e-05 	0
