4 	0.00391112967796265 	-2.08166817117217e-17 	-0.0357917089535585 	2.38523000120859e-05 	0
4 	0.0118766651674913 	-2.42861286636753e-17 	-0.0971702208502326 	-6.91074381956812e-05 	0
4 	0.020134001548576 	-3.12250225675825e-17 	-0.142807692235744 	-0.000260172737205111 	-3.5991458820041e-22
4 	0.028693828342395 	-3.81639164714898e-17 	-0.168520320851409 	-0.000582816842267854 	-3.82769811594731e-21
4 	0.0375672266585909 	-3.81639164714898e-17 	-0.178343459513849 	-0.00100054191856356 	2.0907160867426e-23
4 	0.0467656835403032 	-3.81639164714898e-17 	-0.180466067363679 	-0.00147351092160929 	3.07343726941247e-21
4 	0.0563011068347006 	-3.81639164714898e-17 	-0.179491788372199 	-0.00199009199153489 	6.48804026856897e-23
4 	0.0661858406082648 	-3.46944695195361e-17 	-0.177164865254964 	-0.00254452405396396 	5.786989240828e-22
4 	0.0764326811267815 	-3.46944695195361e-17 	-0.174126643784163 	-0.00313192731232131 	-1.22252127552494e-22
4 	0.0870548934207257 	-3.46944695195361e-17 	-0.170637356349578 	-0.00374946446800459 	-9.85875812326402e-23
4 	0.0980662284574838 	-3.81639164714898e-17 	-0.166812021200295 	-0.004395933012993 	3.60998938497432e-22
4 	0.109480940942647 	-3.46944695195361e-17 	-0.162702664673352 	-0.00507099001156103 	-1.89476990963992e-24
4 	0.121313807773416 	-2.77555756156289e-17 	-0.158330553699413 	-0.00577473568385846 	-2.85743109531451e-23
4 	0.13358014716801 	-2.77555756156289e-17 	-0.153700240194171 	-0.00650754512710734 	-5.62594916267111e-23
4 	0.146295838495838 	-2.77555756156289e-17 	-0.148806207126592 	-0.00726999294212894 	-5.15875799760722e-23
4 	0.159477342834115 	-2.42861286636753e-17 	-0.143636202076999 	-0.00806281206391828 	-5.12770580558962e-24
4 	0.173141724277517 	-1.73472347597681e-17 	-0.138172961883709 	-0.00888687043270814 	4.36200011911761e-23
4 	0.18730667202848 	-1.73472347597681e-17 	-0.13239509820512 	-0.00974315891090192 	2.98250896338971e-24
4 	0.201990523296728 	-2.42861286636753e-17 	-0.126277515713937 	-0.0106327864350143 	-5.6197612785576e-22
4 	0.217212287037676 	-3.12250225675825e-17 	-0.119791552374975 	-0.0115569799572189 	4.59574180753607e-22
4 	0.232991668560441 	-3.81639164714898e-17 	-0.112904942582699 	-0.012517087708793 	4.87687666199707e-22
4 	0.249349095037321 	-4.16333634234434e-17 	-0.105581658472664 	-0.0135145848042206 	9.84349063016418e-22
4 	0.266305741947753 	-4.16333634234434e-17 	-0.0977816603300978 	-0.0145510803942433 	5.89035971504994e-22
4 	0.283883560490999 	-4.16333634234434e-17 	-0.0894605734032215 	-0.0156283255846055 	1.06018267694545e-21
4 	0.30210530600303 	-4.5102810375397e-17 	-0.080569300582064 	-0.0167482211948422 	5.65888031391093e-23
4 	0.320994567414413 	-4.5102810375397e-17 	-0.071053575806756 	-0.0179128241209859 	1.02690761255724e-21
4 	0.340575797787321 	-3.81639164714898e-17 	-0.0608534604465228 	-0.019124350653258 	9.62021639970726e-22
4 	0.360874345971201 	-2.77555756156289e-17 	-0.049902783646278 	-0.0203851749615907 	-1.09692000714486e-21
4 	0.38191648941809 	-2.77555756156289e-17 	-0.0381285276116475 	-0.0216978208555041 	-3.6973628556894e-23
4 	0.403729468200046 	-3.81639164714898e-17 	-0.025450160198179 	-0.0230649390959946 	4.59139446703468e-23
4 	0.426341520272733 	-4.5102810375397e-17 	-0.011778920504738 	-0.0244892415961113 	1.20688464208058e-21
4 	0.449781918030829 	-3.81639164714898e-17 	0.00298294036429897 	-0.0259733795029814 	8.3978670007113e-23
4 	0.474081006202548 	-2.77555756156289e-17 	0.018943073714126 	-0.0275200763638166 	1.28498378441023e-21
4 	0.499270241132363 	-3.12250225675825e-17 	0.0362197922456128 	-0.0291329724425444 	8.71872428319309e-23
4 	0.525382231502763 	-3.81639164714898e-17 	0.054942738038767 	-0.0308158925284157 	4.52868543030901e-23
4 	0.552450780547767 	-3.81639164714898e-17 	0.0752768852609256 	-0.032556708953379 	9.93768906302457e-24
4 	0.580510929812849 	-3.46944695195361e-17 	0.0977907224548412 	-0.0343706812932262 	-3.12162199058518e-21
4 	0.60959900451791 	-3.81639164714898e-17 	0.123317246072702 	-0.0362765502791024 	1.03776638396717e-23
4 	0.639752660582032 	-3.12250225675825e-17 	0.152260005667626 	-0.038263663814965 	3.707831552715e-21
4 	0.671010933370886 	-2.77555756156289e-17 	0.184615310299779 	-0.0403019920751018 	-3.84382466610974e-21
4 	0.7034142882299 	-3.81639164714898e-17 	0.220173545556837 	-0.042350272181143 	4.14504960769489e-21
4 	0.737004672868606 	-3.81639164714898e-17 	0.258680549767716 	-0.044361254024665 	-9.73363014153934e-23
4 	0.771825571663976 	-4.5102810375397e-17 	0.299891049298054 	-0.0462859668535746 	-3.73484526424102e-23
4 	0.807922061953053 	-4.85722573273506e-17 	0.343534422950115 	-0.0480762626400803 	-2.46551717127847e-22
4 	0.845340872387742 	-3.81639164714898e-17 	0.389253016829108 	-0.0496867529957147 	2.53137505369206e-22
4 	0.884130443427309 	-3.10081821330854e-17 	0.436563387561523 	-0.0510752944041531 	2.23673325577655e-19
4 	0.924340990046897 	-2.62376925741492e-17 	0.484839342592014 	-0.0522046289341903 	-8.59452433190467e-19
4 	0.966024566743241 	-2.99239799605999e-17 	0.533340103618646 	-0.0530485884811439 	-1.59002873136635e-18
4 	1.00923513492173 	-3.16587034365767e-17 	0.581265978878284 	-0.0535843572910601 	6.5872771864593e-23
4 	1.05402863275205 	-3.38271077815477e-17 	0.627788851517909 	-0.0537966525504648 	-8.77376410329851e-21
4 	1.10046304758287 	-3.51281503885303e-17 	0.672101977890519 	-0.0536812854434473 	-2.96012470688272e-22
4 	1.14859849100923 	-3.72965547335014e-17 	0.713493011592457 	-0.0532495868734236 	7.14204521603744e-21
4 	1.19849727668994 	-3.98986399474666e-17 	0.751469334358114 	-0.0525340664440579 	7.28287040051517e-21
4 	1.25022400101563 	-3.90312782094782e-17 	0.7859493725583 	-0.0515844001542108 	1.01323137268277e-21
4 	1.30384562673185 	-3.81639164714898e-17 	0.817407857595444 	-0.0504057897681617 	-1.07491185889838e-20
4 	1.35943156962565 	-3.38271077815477e-17 	0.846353817896333 	-0.0490399769134589 	-1.11646634675523e-20
4 	1.41705378838762 	-3.20923843055709e-17 	0.872924278118686 	-0.047528451916578 	-5.54874229649751e-22
4 	1.47678687776592 	-3.29597460435593e-17 	0.897238202895475 	-0.0459489902713751 	-2.72472730521586e-24
4 	1.53870816513277 	-3.12250225675825e-17 	0.919568867031497 	-0.0443350649466235 	7.58010280832904e-21
4 	1.60289781058851 	-2.94902990916057e-17 	0.940229899246915 	-0.042691026012833 	-8.02990380059315e-21
4 	1.66943891073266 	-3.12250225675825e-17 	0.959491573285311 	-0.041003407405655 	-4.48718616653762e-21
4 	1.73841760623657 	-3.12250225675825e-17 	0.977556474031643 	-0.0392522195988824 	-9.80686871102257e-21
4 	1.80992319335659 	-3.12250225675825e-17 	0.994552765307682 	-0.0374193513576978 	1.91938719488457e-20
4 	1.88404823953248 	-3.12250225675825e-17 	1.01052536885248 	-0.0354905943525223 	-1.40393962561155e-21
4 	1.96088870322037 	-2.94902990916057e-17 	1.02493175815236 	-0.0335358726018883 	-1.63704600897223e-21
4 	2.02025965173184 	-3.12250225675825e-17 	1.03535914927388 	-0.0319637773532255 	0
4 	2.06006301192217 	-2.77555756156289e-17 	1.04233294850045 	-0.0308119767870977 	0
4 	2.09845978584128 	-2.77555756156289e-17 	1.04819984461182 	-0.0297671931465101 	0
4 	2.13549967996945 	-3.46944695195361e-17 	1.05348451410791 	-0.0287558817933478 	0
4 	2.17123064424048 	-3.46944695195361e-17 	1.05822899755423 	-0.0277763288939305 	0
4 	2.20569893411515 	-3.12250225675825e-17 	1.06247087223127 	-0.0268282974775742 	0
4 	2.23894917046122 	-2.77555756156289e-17 	1.06624357583871 	-0.0259114514879246 	0
4 	2.27102439731725 	-3.46944695195361e-17 	1.06957665885145 	-0.0250252398410301 	0
4 	2.30196613761521 	-4.16333634234434e-17 	1.07249600736348 	-0.0241689847651128 	0
4 	2.33181444693391 	-4.16333634234434e-17 	1.07502404478862 	-0.0233419157654537 	0
4 	2.3606079653529 	-4.16333634234434e-17 	1.07717991597927 	-0.0225431866444834 	0
4 	2.3883839674739 	-3.81639164714898e-17 	1.07897965561335 	-0.0217718923116332 	0
4 	2.41517841067461 	-3.12250225675825e-17 	1.08043634188693 	-0.0210270841807606 	0
4 	2.44102598165722 	-3.46944695195361e-17 	1.08156023677252 	-0.0203077831962945 	0
4 	2.46596014135207 	-4.16333634234434e-17 	1.08235891483228 	-0.0196129906727368 	0
4 	2.49001316823443 	-4.5102810375397e-17 	1.08283738342003 	-0.0189416972512768 	0
4 	2.51321620011054 	-4.85722573273506e-17 	1.08299819786289 	-0.0182928902157315 	0
4 	2.535599274427 	-4.85722573273506e-17 	1.08284157575213 	-0.0176655593689063 	0
4 	2.55719136715571 	-4.85722573273506e-17 	1.08236551467422 	-0.0170587016312048 	0
4 	2.57802043030465 	-4.85722573273506e-17 	1.08156591744887 	-0.0164713244810528 	0
4 	2.59811342810315 	-4.85722573273506e-17 	1.08043672807435 	-0.0159024483180782 	0
4 	2.61749637190832 	-4.85722573273506e-17 	1.07897007998849 	-0.0153511078007654 	0
4 	2.63619435387806 	-4.85722573273506e-17 	1.07715645586777 	-0.0148163521952257 	0
4 	2.65423157945406 	-4.16333634234434e-17 	1.07498485504341 	-0.0142972447755118 	0
4 	2.67163139869691 	-3.46944695195361e-17 	1.07244296091702 	-0.0137928613428434 	0
4 	2.68841633651388 	-3.46944695195361e-17 	1.06951729691535 	-0.0133022879839786 	0
4 	2.7046081218185 	-3.46944695195361e-17 	1.06619335614646 	-0.0128246182674978 	0
4 	2.72022771565972 	-3.46944695195361e-17 	1.06245568775706 	-0.0123589501762424 	0
4 	2.73529533835694 	-3.46944695195361e-17 	1.05828792279388 	-0.0119043831845333 	0
4 	2.74983049567625 	-3.46944695195361e-17 	1.05367272470295 	-0.0114600159952015 	0
4 	2.76385200408156 	-3.81639164714898e-17 	1.04859165464038 	-0.0110249455363568 	0
4 	2.77737801509343 	-3.81639164714898e-17 	1.04302494918628 	-0.0105982678642421 	0
4 	2.79042603878708 	-3.46944695195361e-17 	1.03695121700345 	-0.0101790816100383 	0
4 	2.80301296646003 	-3.81639164714898e-17 	1.03034707024577 	-0.0097664945269154 	0
4 	2.81515509249872 	-4.16333634234434e-17 	1.02318671476191 	-0.00935963356457569 	0
4 	2.82686813547237 	-4.16333634234434e-17 	1.01544152914893 	-0.00895765893090406 	0
4 	2.83816725848142 	-4.16333634234434e-17 	1.00707966546583 	-0.00855978277736008 	0
4 	2.84906708878691 	-4.5102810375397e-17 	0.998065702820546 	-0.00816529044880412 	0
4 	2.85958173674616 	-4.85722573273506e-17 	0.98836037748751 	-0.00777355158856512 	0
4 	2.86972481407933 	-4.85722573273506e-17 	0.977920396092544 	-0.00738401670038144 	0
4 	2.87950945149043 	-4.85722573273506e-17 	0.96669824312384 	-0.0069963932017591 	0
4 	2.88894831566566 	-4.85722573273506e-17 	0.954633834373876 	-0.00661073194803044 	0
4 	2.89805362567106 	-4.85722573273506e-17 	0.941612517089655 	-0.0062252768923038 	0
4 	2.90683716877067 	-4.85722573273506e-17 	0.92745480233697 	-0.00583769672356358 	0
4 	2.91531031568569 	-5.20417042793042e-17 	0.911991653619019 	-0.00544609154417792 	0
4 	2.92348403531448 	-5.55111512312578e-17 	0.895111567344947 	-0.00505102584534097 	0
4 	2.93136890893229 	-5.89805981832114e-17 	0.87674006391566 	-0.00465421066106156 	0
4 	2.93897514388925 	-5.89805981832114e-17 	0.856813573133404 	-0.00425788122728295 	0
4 	2.94631258682425 	-5.20417042793042e-17 	0.835263595716679 	-0.00386468039970645 	0
4 	2.95339073641193 	-4.85722573273506e-17 	0.812005431051755 	-0.00347748098167495 	0
4 	2.96021875565915 	-4.85722573273506e-17 	0.786927045077701 	-0.00309920992524237 	0
4 	2.96680548376697 	-4.85722573273506e-17 	0.759875568562834 	-0.0027327204925505 	0
4 	2.97315944757337 	-4.85722573273506e-17 	0.730640172949847 	-0.00238071188423626 	0
4 	2.97928887259171 	-4.85722573273506e-17 	0.698929985309322 	-0.00204567983629037 	0
4 	2.98520169365902 	-4.85722573273506e-17 	0.664345250093804 	-0.00172989677942042 	0
4 	2.99090556520806 	-5.55111512312578e-17 	0.626338268830256 	-0.00143541282802398 	-2.15579001726644e-15
4 	2.99640787117633 	-6.24500451351651e-17 	0.584165818509723 	-0.00116403634975407 	-6.38339643430861e-15
4 	3.00171573456492 	-6.24500451351651e-17 	0.53686049594388 	-0.000917624065404463 	7.8527587814686e-15
4 	3.00683602665962 	-6.24500451351651e-17 	0.483137534126352 	-0.000698053165020149 	2.44391823914567e-15
4 	3.01177537592612 	-6.24500451351651e-17 	0.421249519222598 	-0.000505288638042475 	0
4 	3.01654017659085 	-6.24500451351651e-17 	0.350043057389981 	-0.000339766833337539 	0
4 	3.02113659691864 	-6.24500451351651e-17 	0.271349681283189 	-0.000204389018026939 	0
4 	3.02557058719784 	-6.59194920871187e-17 	0.190167182485735 	-0.00010344111860797 	0
4 	3.02984788744324 	-6.93889390390723e-17 	0.111199079618303 	-3.8466790735157e-05 	0
