5 	0.00391112967796258 	1.73472347597681e-17 	0.199166374832807 	2.80342544523989e-05 	889.587649126382 	3.46371688114125e-06 	1.38567885922685e-38
5 	0.0118766651674913 	1.04083408558608e-17 	0.199161999020553 	0.000425582987014121 	195.782395114671 	6.28499315625714e-05 	0
5 	0.020134001548576 	3.46944695195361e-18 	0.199149736850832 	0.00230508128020464 	55.3840842006655 	0.000254872954011992 	0
5 	0.0286938283423949 	3.46944695195361e-18 	0.199117718371279 	0.00574301221293149 	24.2299101946568 	0.000125306806165665 	0
5 	0.0375672266585908 	1.04083408558608e-17 	0.199053041914101 	0.00918686144226845 	13.9320198290125 	3.04428716809279e-05 	0
5 	0.046765683540303 	1.73472347597681e-17 	0.198955012867891 	0.0120977653701173 	9.56387445664009 	0.000137040027818076 	0
5 	0.0563011068347006 	2.08166817117217e-17 	0.198832399890757 	0.0145642154234927 	7.29134450351541 	0.000301691865291002 	0
5 	0.0661858406082648 	1.73472347597681e-17 	0.198692617806039 	0.0167245993876435 	5.92548761775438 	0.000476161041040204 	0
5 	0.0764326811267815 	1.04083408558608e-17 	0.198539590913342 	0.0186738288379981 	5.02129157325471 	0.000653044251254026 	0
5 	0.0870548934207257 	1.04083408558608e-17 	0.198375699858672 	0.0204729753249653 	4.38178692345993 	0.000832802084374401 	0
5 	0.0980662284574838 	1.04083408558608e-17 	0.198202873871974 	0.0221625631955078 	3.90776457704801 	0.00101700810062935 	0
5 	0.109480940942647 	1.38777878078145e-17 	0.198022801345847 	0.0237707011521276 	3.54415293568527 	0.0012072241643424 	0
5 	0.121313807773416 	2.42861286636753e-17 	0.197836978013977 	0.0253177249271981 	3.25802491969607 	0.00140488293558437 	0
5 	0.13358014716801 	2.42861286636753e-17 	0.197646766475328 	0.0268189028227724 	3.02851850348311 	0.00161132736515838 	0
5 	0.146295838495838 	1.73472347597681e-17 	0.197453443967146 	0.0282860723528737 	2.84179105695429 	0.00182786241370965 	0
5 	0.159477342834115 	1.38777878078145e-17 	0.197258229478032 	0.029728668191909 	2.68830741399833 	0.00205579936410604 	0
5 	0.173141724277517 	2.08166817117217e-17 	0.197062297932169 	0.0311543895014533 	2.56129484575511 	0.00229649140668183 	0
5 	0.18730667202848 	1.73472347597681e-17 	0.196866787502967 	0.0325696448807687 	2.45581911105262 	0.00255136192038421 	0
5 	0.201990523296728 	1.04083408558608e-17 	0.196672802624609 	0.0339798547380927 	2.36820882540235 	0.00282192722491969 	0
5 	0.217212287037676 	1.73472347597681e-17 	0.196481413995291 	0.0353896586385659 	2.29568403737297 	0.00310981511151007 	0
5 	0.232991668560442 	2.08166817117217e-17 	0.196293656511683 	0.0368030567286068 	2.23610915878805 	0.00341677982135229 	0
5 	0.249349095037321 	2.42861286636753e-17 	0.196110525864183 	0.0382235033822182 	2.18782414067657 	0.00374471359487863 	0
5 	0.266305741947753 	2.08166817117217e-17 	0.195932974363284 	0.0396539644796564 	2.14952629406433 	0.00409565446543645 	0
5 	0.283883560490999 	1.38777878078145e-17 	0.1957619064909 	0.0410969454411205 	2.12018569565195 	0.00447178956362794 	0
5 	0.30210530600303 	1.38777878078145e-17 	0.195598174680196 	0.0425544943114772 	2.09898332423656 	0.00487545280583083 	0
5 	0.320994567414413 	1.73472347597681e-17 	0.195442575644077 	0.0440281822620356 	2.08526483485186 	0.00530911519738329 	0
5 	0.34057579778732 	2.08166817117217e-17 	0.195295846828849 	0.0455190660096923 	2.07850521557069 	0.00577536460214313 	0
5 	0.3608743459712 	2.08166817117217e-17 	0.195158664232369 	0.0470276429191012 	2.07828105710471 	0.00627687240638571 	0
5 	0.38191648941809 	2.42861286636753e-17 	0.195031647687939 	0.0485538011884355 	2.08424812005852 	0.00681635352317008 	0
5 	0.403729468200046 	2.08166817117217e-17 	0.19491535900512 	0.0500966561381326 	2.09612250974735 	0.00739649709973922 	0
5 	0.426341520272734 	1.38777878078145e-17 	0.194810302048328 	0.0516544340704328 	2.11366420259385 	0.00801988022777429 	0
5 	0.449781918030829 	1.38777878078145e-17 	0.194716924404316 	0.0532243185057181 	2.13666192505081 	0.00868885162549268 	0
5 	0.474081006202548 	1.38777878078145e-17 	0.194635639844328 	0.0548022692037982 	2.1649185526388 	0.00940537224894572 	0
5 	0.499270241132363 	1.04083408558608e-17 	0.194566914268296 	0.0563828137984387 	2.19823630565089 	0.0101708071490388 	0
5 	0.525382231502763 	1.04083408558608e-17 	0.194511217786304 	0.0579588124967667 	2.23640107289207 	0.0109857437904147 	0
5 	0.552450780547767 	1.38777878078145e-17 	0.194467940569415 	0.0595211953151603 	2.27916511687394 	0.0118499829795719 	0
5 	0.580510929812849 	1.04083408558608e-17 	0.194434071842275 	0.0610586648914372 	2.32622709168476 	0.0127627983976432 	0
5 	0.60959900451791 	1.04083408558608e-17 	0.194415604629143 	0.0625573999558127 	2.37720979945984 	0.0137479198169469 	0
5 	0.639752660582032 	1.38777878078145e-17 	0.194464329676199 	0.0640023906965499 	2.43170176179589 	0.0149978026664996 	0
5 	0.671010933370886 	2.42861286636753e-17 	0.194618158726913 	0.0653863938138035 	2.48960366275733 	0.0163335441295587 	0
5 	0.7034142882299 	3.46944695195361e-17 	0.194822060992427 	0.0666900242512187 	2.54962600963209 	0.017850483061445 	0
5 	0.737004672868606 	3.12250225675825e-17 	0.195008791810133 	0.067845012762811 	2.6077829392892 	0.0192771289143522 	0
5 	0.771825571663976 	2.42861286636753e-17 	0.195161159994109 	0.0687661025519482 	2.65889295822903 	0.0204414214643248 	0
5 	0.807922061953053 	2.77555756156289e-17 	0.195289054599002 	0.0693767138869457 	2.69809412990474 	0.0212837307686985 	0
5 	0.845340872387742 	4.5102810375397e-17 	0.195406648637629 	0.0696190074298458 	2.72160056356692 	0.0218079163428933 	0
5 	0.884130443427308 	5.20417042793042e-17 	0.195523406402408 	0.0694528117279768 	2.72679791875845 	0.0220288609500914 	0
5 	0.924340990046896 	5.20417042793042e-17 	0.195642392339003 	0.0688520252789491 	2.71213044034742 	0.0219439281768329 	0
5 	0.966024566743241 	5.20417042793042e-17 	0.195761720651781 	0.0678040078225909 	2.67700086407001 	0.0215329319126458 	0
5 	1.00923513492173 	4.85722573273506e-17 	0.195876939780789 	0.0663127916663849 	2.62168184465127 	0.0207755751522211 	0
5 	1.05402863275205 	5.89805981832114e-17 	0.195982963692894 	0.0644040590896661 	2.54724690291446 	0.0196722661445518 	0
5 	1.10046304758287 	6.24500451351651e-17 	0.196075042675636 	0.0621288256057709 	2.45555519470396 	0.0182579678695807 	0
5 	1.14859849100923 	5.55111512312578e-17 	0.196148972384872 	0.0595630698561204 	2.34926541535804 	0.0166043575859907 	0
5 	1.19849727668994 	5.89805981832114e-17 	0.196201004456482 	0.0568018168597353 	2.23178878301182 	0.0148105144336337 	0
5 	1.25022400101563 	6.93889390390723e-17 	0.196227869999062 	0.0539480811303923 	2.1070852727279 	0.0129856966244322 	0
5 	1.30384562673185 	7.63278329429795e-17 	0.196227241790599 	0.0510995953149711 	1.97935196230219 	0.0112298382613061 	0
5 	1.35943156962565 	7.28583859910259e-17 	0.196198777340224 	0.0483446920589066 	1.85395501641074 	0.00962092048290255 	0
5 	1.41705378838762 	6.93889390390723e-17 	0.196145320924926 	0.045740309677796 	1.73442695061248 	0.00820636661260832 	0
5 	1.47678687776592 	6.93889390390723e-17 	0.19607224733837 	0.0433030627619747 	1.62144641060853 	0.00700472073337892 	0
5 	1.53870816513277 	7.28583859910259e-17 	0.195984138387763 	0.0410184623754425 	1.51418489067765 	0.00601193142746195 	0
5 	1.60289781058851 	7.28583859910259e-17 	0.19590068929278 	0.0388305872663232 	1.40843300663447 	0.00512666091080771 	0
5 	1.66943891073266 	6.59194920871187e-17 	0.195817288135104 	0.0367047189564992 	1.30251830732833 	0.00434458753020375 	0
5 	1.73841760623657 	5.89805981832114e-17 	0.195709974988704 	0.0346404958100592 	1.19992400317401 	0.00363418587612329 	0
5 	1.80992319335659 	5.89805981832114e-17 	0.195573628577119 	0.0326420184405211 	1.10678188963826 	0.0030057452849279 	0
5 	1.88404823953248 	5.89805981832114e-17 	0.19540233578739 	0.0307034680149771 	1.02738851612918 	0.00246474052074181 	0
5 	1.96088870322037 	5.55111512312578e-17 	0.195197574701082 	0.028815579164828 	0.961929664547544 	0.00200987616645246 	0
5 	2.02025965173184 	5.55111512312578e-17 	0.195016408787316 	0.0273603681934083 	0.921444376770579 	0.00170213830336063 	0
5 	2.06006301192217 	5.55111512312578e-17 	0.194883480871386 	0.0263825265883502 	0.897407376700287 	0.00151669008760087 	0
5 	2.09845978584128 	5.20417042793042e-17 	0.194751253404766 	0.0254656853853077 	0.877568798616831 	0.00135423669237084 	0
5 	2.13549967996945 	4.85722573273506e-17 	0.194618138925772 	0.0245896598394004 	0.861081214542174 	0.00120820516257876 	0
5 	2.17123064424048 	4.85722573273506e-17 	0.194484236459338 	0.0237511181012186 	0.847636343761427 	0.00107619110148256 	0
5 	2.20569893411515 	4.85722573273506e-17 	0.194349893076983 	0.0229474155411705 	0.837005942873092 	0.000956377207535289 	0
5 	2.23894917046122 	4.5102810375397e-17 	0.194215451269006 	0.0221764045864003 	0.829024640663691 	0.000847336258917908 	0
5 	2.27102439731725 	4.16333634234434e-17 	0.194081210017506 	0.0214362960503974 	0.823577252236054 	0.000747924483414238 	0
5 	2.30196613761521 	4.16333634234434e-17 	0.193947450088276 	0.0207255607770011 	0.820589680606388 	0.000657216835775212 	0
5 	2.33181444693391 	4.5102810375397e-17 	0.193814445142535 	0.0200428615257602 	0.820022618103144 	0.000574460082994759 	0
5 	2.3606079653529 	5.20417042793042e-17 	0.193682464907666 	0.0193870071008847 	0.821867419962281 	0.000499039165291362 	0
5 	2.3883839674739 	5.55111512312578e-17 	0.193551776490341 	0.0187569225667375 	0.82614367459477 	0.000430453909989598 	0
5 	2.41517841067461 	5.55111512312578e-17 	0.193422644474194 	0.0181516309039205 	0.832898125820259 	0.000368303297901004 	0
5 	2.44102598165722 	5.55111512312578e-17 	0.193295329953457 	0.0175702426787045 	0.842204710965764 	0.000312275233216738 	0
5 	2.46596014135207 	5.20417042793042e-17 	0.193170088853258 	0.0170119512539987 	0.854165567258397 	0.000262140457378156 	0
5 	2.49001316823443 	3.81639164714898e-17 	0.193047169845925 	0.0164760317990358 	0.868912931017733 	0.000217749730296928 	0
5 	2.51321620011054 	2.77555756156289e-17 	0.192926812086948 	0.0159618428987898 	0.886611913819911 	0.00017903374760816 	0
5 	2.535599274427 	2.77555756156289e-17 	0.192809242934751 	0.0154688299615159 	0.907464190834147 	0.000146005520395113 	0
5 	2.55719136715571 	2.77555756156289e-17 	0.19269467577426 	0.0149965299063402 	0.931712682117565 	0.000118765141716999 	0
5 	2.57802043030465 	2.77555756156289e-17 	0.192583308027632 	0.0145445768084575 	0.959647350296729 	9.75070220418837e-05 	0
5 	2.59811342810315 	2.42861286636753e-17 	0.192475319404399 	0.014112708306483 	0.991612279498522 	8.25298077964819e-05 	0
5 	2.61749637190832 	2.42861286636753e-17 	0.192370870417217 	0.0137007726480468 	1.02801424147406 	7.42493130113288e-05 	0
5 	2.63619435387806 	2.77555756156289e-17 	0.192270101167523 	0.0133087362734328 	1.06933299534806 	7.32148977231251e-05 	0
5 	2.65423157945406 	2.77555756156289e-17 	0.192173130387568 	0.0129366918155049 	1.11613360562391 	8.01298173259111e-05 	0
5 	2.67163139869691 	2.42861286636753e-17 	0.192080054711324 	0.0125848663251925 	1.16908109526603 	9.58761369930879e-05 	0
5 	2.68841633651388 	1.38777878078145e-17 	0.191990948136875 	0.0122536294090022 	1.2289577703571 	0.000121544839047308 	0
5 	2.7046081218185 	1.04083408558608e-17 	0.191905861637525 	0.0119435007783491 	1.29668354971059 	0.000158471722611597 	0
5 	2.72022771565972 	1.38777878078145e-17 	0.191824822878407 	0.0116551564476177 	1.37333959180789 	0.000208279564611429 	0
5 	2.73529533835694 	1.38777878078145e-17 	0.191747836000681 	0.0113894324667998 	1.46019541177375 	0.000272926724244682 	0
5 	2.74983049567625 	1.38777878078145e-17 	0.191674881447191 	0.0111473246284735 	1.55873949644354 	0.00035476185864404 	0
5 	2.76385200408156 	1.38777878078145e-17 	0.191605915822539 	0.010929982054153 	1.67071312597928 	0.000456583593387875 	0
5 	2.77737801509343 	1.38777878078145e-17 	0.191540871807153 	0.010738691973249 	1.79814666827978 	0.000581702776597784 	0
5 	2.79042603878708 	2.08166817117217e-17 	0.191479658177914 	0.0105748524320381 	1.94339701419396 	0.000734003284196522 	0
5 	2.80301296646003 	2.77555756156289e-17 	0.191422160024522 	0.0104399292427199 	2.10918408897747 	0.000917995247277513 	0
5 	2.81515509249872 	3.12250225675825e-17 	0.191368239292922 	0.010335393410577 	2.29862359663834 	0.0011388521732159 	0
5 	2.82686813547237 	3.12250225675825e-17 	0.191317735843212 	0.0102626358418929 	2.51525252368625 	0.00140242104674918 	0
5 	2.83816725848142 	2.77555756156289e-17 	0.191270469215464 	0.0102228576650607 	2.76304379100912 	0.0017151926791229 	0
5 	2.84906708878691 	2.08166817117217e-17 	0.191226240960501 	0.0102169372981192 	3.04640731745734 	0.00208421918727004 	0
5 	2.85958173674616 	1.38777878078145e-17 	0.191184836914624 	0.0102452796353565 	3.37017733177833 	0.00251696793244227 	0
5 	2.86972481407933 	1.04083408558608e-17 	0.19114603199263 	0.010307658279721 	3.73959080749445 	0.00302110852086294 	0
5 	2.87950945149043 	1.04083408558608e-17 	0.191109610622278 	0.0104030680428234 	4.16027005145266 	0.0036042416681489 	0
5 	2.88894831566566 	2.08166817117217e-17 	0.191075392355515 	0.0105296109096218 	4.63823396943206 	0.00427360087216885 	0
5 	2.89805362567106 	2.77555756156289e-17 	0.191043084386651 	0.0106844425946819 	5.17997652713661 	0.00503753777933108 	0
5 	2.90683716877067 	3.12250225675825e-17 	0.191011768916785 	0.0108637824680804 	5.79278941532545 	0.0059360111107226 	0
5 	2.91531031568569 	3.12250225675825e-17 	0.190981309563379 	0.0110626592350343 	6.48781099501135 	0.00698975786221701 	0
5 	2.92348403531448 	2.77555756156289e-17 	0.190952025953183 	0.0112747100098055 	7.2806299146131 	0.00820511536387974 	0
5 	2.93136890893229 	2.77555756156289e-17 	0.190924187943184 	0.011489578463918 	8.18155616813728 	0.00959515320561318 	0
5 	2.93897514388925 	2.42861286636753e-17 	0.190898290323532 	0.0116909755005914 	9.19123409396412 	0.011099438247819 	0
5 	2.94631258682425 	2.42861286636753e-17 	0.19087412153962 	0.011860832815613 	10.308648157635 	0.012680821194624 	0
5 	2.95339073641193 	2.77555756156289e-17 	0.19085127386474 	0.0119816596682799 	11.5379583051282 	0.0143217053540977 	0
5 	2.96021875565915 	2.08166817117217e-17 	0.190829460545854 	0.0120370319093047 	12.8936337068711 	0.0160162417868596 	0
5 	2.96680548376697 	1.73472347597681e-17 	0.190808562637695 	0.0120109047363836 	14.4091875611011 	0.0177645865049082 	0
5 	2.97315944757337 	2.42861286636753e-17 	0.190788595169988 	0.0118863894314285 	16.1342646542199 	0.0195688797219049 	0
5 	2.97928887259171 	2.42861286636753e-17 	0.190769671009182 	0.0116444731029921 	18.1367245747948 	0.0214287909678342 	0
5 	2.98520169365902 	1.73472347597681e-17 	0.190751975579167 	0.0112617984010282 	20.5223371268632 	0.0233314599959294 	0
5 	2.99090556520806 	1.73472347597681e-17 	0.190735746874018 	0.0107077337287665 	23.456367418109 	0.0252293239817579 	0
5 	2.99640787117633 	2.08166817117217e-17 	0.190721243986713 	0.00994133412877691 	27.1997839040762 	0.0269930540398908 	0
4.99999999999999 	3.00171573456492 	2.42861286636753e-17 	0.190708693639113 	0.00890909004749345 	32.1866597452699 	0.0283110114964053 	0
4.99999999999999 	3.00683602665962 	3.12250225675825e-17 	0.190698276551061 	0.00754788188710819 	39.2026549796415 	0.0285970421489407 	0
4.99999999999999 	3.01177537592612 	3.46944695195361e-17 	0.190690313065054 	0.00579364975839671 	49.8571861275911 	0.0259072729836559 	0
4.99999999999999 	3.01654017659085 	3.46944695195361e-17 	0.190684870215854 	0.00370681865823621 	68.0552955279728 	0.0179693352593236 	0
4.99999999999999 	3.02113659691864 	3.12250225675825e-17 	0.190681489874985 	0.00173545649783674 	106.045941931581 	0.00734093272150209 	0
4.99999999999999 	3.02557058719784 	2.77555756156289e-17 	0.190679455579806 	0.000518312908418007 	213.59490012267 	0.00135566376372934 	0
4.99999999999999 	3.02984788744324 	2.42861286636753e-17 	0.190678052540088 	8.10276881415002e-05 	687.202803469861 	9.51685419570574e-05 	0
