4 	0.0118766651674913 	1.73472347597681e-18 	-0.101113526112824 	-4.74514627243921e-06 	3.38464036393707e-23
4 	0.020134001548576 	-5.20417042793042e-18 	-0.149624632899444 	-0.000126248105582327 	2.78443456227368e-21
4 	0.0286938283423949 	-6.93889390390723e-18 	-0.178105144313233 	-0.000354177425029614 	-4.04360141470357e-22
4 	0.0375672266585909 	-8.67361737988404e-18 	-0.189838826460625 	-0.000683151709466923 	-1.78585214154901e-22
4 	0.0467656835403032 	-1.38777878078145e-17 	-0.192894299421124 	-0.0010759362827743 	-1.43549127231137e-22
4 	0.0563011068347006 	-1.38777878078145e-17 	-0.192317966013564 	-0.00151485051329398 	1.27975455244468e-21
4 	0.0661858406082649 	-1.73472347597681e-17 	-0.190145433768541 	-0.0019917230993055 	1.16096061819087e-21
4 	0.0764326811267816 	-2.42861286636753e-17 	-0.187140193183295 	-0.00250105832367748 	-1.29876566415734e-21
4 	0.0870548934207257 	-2.42861286636753e-17 	-0.183613540021921 	-0.00303965282615004 	-6.0081331651473e-22
4 	0.0980662284574838 	-2.25514051876985e-17 	-0.179703893263002 	-0.00360604496269751 	3.3385209342899e-22
4 	0.109480940942647 	-2.94902990916057e-17 	-0.175474906629706 	-0.00419975338072923 	-1.4619386653422e-22
4 	0.121313807773416 	-3.46944695195361e-17 	-0.170953876046349 	-0.00482083235582724 	-4.44255051462973e-22
4 	0.13358014716801 	-3.46944695195361e-17 	-0.166148431061525 	-0.00546967803328618 	-2.7777216378697e-23
4 	0.146295838495838 	-3.46944695195361e-17 	-0.161054422325714 	-0.00614694278850104 	-8.06907125009664e-23
4 	0.159477342834115 	-3.12250225675825e-17 	-0.155659880849926 	-0.00685349273929755 	1.18285753928525e-22
4 	0.173141724277517 	-2.77555756156289e-17 	-0.149947074747945 	-0.00759038742984558 	0
4 	0.18730667202848 	-3.12250225675825e-17 	-0.143893575878431 	-0.00835887356749025 	5.99698026189594e-24
4 	0.201990523296728 	-3.46944695195361e-17 	-0.137472775706374 	-0.00916038835312385 	4.79318989936366e-22
4 	0.217212287037676 	-3.12250225675825e-17 	-0.130654073620575 	-0.00999656977462872 	2.06539315327547e-22
4 	0.232991668560441 	-2.42861286636753e-17 	-0.12340285590105 	-0.0108692723306911 	-2.12391293952033e-22
4 	0.249349095037321 	-2.08166817117217e-17 	-0.115680329556001 	-0.0117805872151466 	-3.06724675175087e-22
4 	0.266305741947753 	-1.73472347597681e-17 	-0.107443246037818 	-0.0127328662058364 	2.48124978329751e-23
4 	0.283883560490999 	-1.04083408558608e-17 	-0.0986435331877435 	-0.0137287484783957 	5.45406734473356e-22
4 	0.30210530600303 	-6.93889390390723e-18 	-0.0892278436931651 	-0.0147711893410774 	5.77485181020176e-24
4 	0.320994567414414 	-6.93889390390723e-18 	-0.0791370218529591 	-0.0158634895176524 	0
4 	0.340575797787321 	-6.93889390390723e-18 	-0.0683054860010178 	-0.0170093232027296 	-9.69892117753739e-24
4 	0.360874345971201 	-6.93889390390723e-18 	-0.0566605208303365 	-0.0182127620918255 	-1.07547629076229e-21
4 	0.381916489418091 	-1.04083408558608e-17 	-0.0441214718172815 	-0.0194782879188399 	-6.47226722995938e-22
4 	0.403729468200046 	-1.38777878078145e-17 	-0.0305988327834178 	-0.0208107783884317 	-9.7360419361103e-23
4 	0.426341520272733 	-1.38777878078145e-17 	-0.0159932181627485 	-0.0222154787121812 	5.96631717949085e-22
4 	0.449781918030829 	-6.93889390390723e-18 	-0.000194181946794833 	-0.023698107924475 	1.31691663869217e-23
4 	0.474081006202548 	-3.46944695195361e-18 	0.0169211667758284 	-0.0252651187841454 	4.89576069394262e-22
4 	0.499270241132364 	-6.93889390390723e-18 	0.0354899745531103 	-0.0269214655932818 	-5.89548195391645e-22
4 	0.525382231502763 	-6.93889390390723e-18 	0.0557135829427399 	-0.0286715682901594 	-2.0918481231595e-21
4 	0.552450780547767 	-2.42861286636753e-17 	0.0780206749998908 	-0.0305312108527958 	-2.73520284344301e-21
4 	0.58051092981285 	-4.5102810375397e-17 	0.103103001814214 	-0.0325270215511724 	-6.88556498962914e-22
4 	0.599204596617261 	-4.68375338513738e-17 	0.120953250994557 	-0.0338942223800978 	-2.59591228504287e-22
4 	0.614010237655017 	-5.03069808033274e-17 	0.136101164752325 	-0.0350063359650704 	-1.08540105332851e-21
4 	0.639752660582033 	-5.55111512312578e-17 	0.163741074268358 	-0.0369595863285725 	-2.65653229693653e-21
4 	0.671010933370887 	-4.85722573273506e-17 	0.199558258422922 	-0.0393417401900164 	-3.58624728898153e-21
4 	0.703414288229901 	-4.5102810375397e-17 	0.238852158185549 	-0.0417683119952904 	-2.70776955243668e-21
4 	0.737004672868606 	-5.55111512312578e-17 	0.281369110930615 	-0.0441787106977265 	4.94819122174939e-23
4 	0.771825571663976 	-5.89805981832114e-17 	0.326796596836388 	-0.0465101214621198 	2.74266063090066e-21
4 	0.807922061953054 	-4.85722573273506e-17 	0.37472267635986 	-0.0487016632747883 	1.3194620847658e-21
4 	0.845340872387743 	-4.16333634234434e-17 	0.424602887282349 	-0.0506972228843808 	-2.27297994154904e-21
4 	0.884130443427309 	-4.16333634234434e-17 	0.475761497256792 	-0.052446669055134 	3.66177701471005e-21
4 	0.924340990046898 	-4.16333634234434e-17 	0.527422296224772 	-0.0539053457194576 	-1.54615519980834e-21
4 	0.966024566743242 	-4.85722573273506e-17 	0.578745965593989 	-0.0550326006781688 	-1.34451153255787e-20
4 	1.00923513492173 	-5.20417042793042e-17 	0.628850384221151 	-0.0557907267452446 	-8.99649695287387e-21
4 	1.05402863275206 	-4.5102810375397e-17 	0.676807444452974 	-0.0561467985646142 	4.24769474473743e-21
4 	1.10046304758287 	-4.5102810375397e-17 	0.721663579521613 	-0.0560818470881612 	4.71273885048025e-21
4 	1.14859849100923 	-5.20417042793042e-17 	0.76262158743819 	-0.0555973489999252 	-2.25276855240799e-21
4 	1.19849727668995 	-5.89805981832114e-17 	0.799375484317651 	-0.0547048676083048 	-1.09155924671931e-21
4 	1.25022400101563 	-6.24500451351651e-17 	0.831976082062607 	-0.0534829982182065 	-1.56238392148903e-20
4 	1.30384562673186 	-6.93889390390723e-17 	0.860467801910409 	-0.0520387031783039 	2.62659282890949e-16
4 	1.35943156962565 	-8.32667268468867e-17 	0.885127475637941 	-0.0505070914604063 	1.5115357922599e-15
4 	1.41705378838762 	-8.32667268468867e-17 	0.906602289464577 	-0.0489620343875434 	-1.550538736278e-15
4 	1.47678687776592 	-7.97972798949331e-17 	0.925650534712956 	-0.0474286953852564 	-1.78808598250036e-16
4 	1.53870816513278 	-8.32667268468867e-17 	0.942956697906666 	-0.045899523100048 	-6.18833872255138e-23
4 	1.60289781058851 	-7.97972798949331e-17 	0.959059220147665 	-0.0443478618755979 	-6.24803909836053e-22
4 	1.66943891073267 	-7.28583859910259e-17 	0.974307243752543 	-0.0427421488986091 	-1.84853436326829e-20
4 	1.73841760623657 	-6.93889390390723e-17 	0.988872019404555 	-0.0410554719062487 	1.15195822704725e-23
4 	1.8099231933566 	-6.93889390390723e-17 	1.00279231904583 	-0.0392692841113675 	1.97648135718181e-20
4 	1.88404823953249 	-6.46184494801361e-17 	1.01600883857016 	-0.0373706451067064 	-4.1610162200302e-20
4 	1.96088870322038 	-6.11490025281825e-17 	1.02833674067202 	-0.0353448008702841 	-2.54689686303275e-22
4 	2.02025965173185 	-6.24500451351651e-17 	1.03682559087541 	-0.0337769419739676 	0
4 	2.06006301192217 	-6.24500451351651e-17 	1.04219447929312 	-0.0326734526472607 	0
4 	2.09845978584128 	-5.55111512312578e-17 	1.04696566420957 	-0.0316211518607128 	0
4 	2.13549967996946 	-4.85722573273506e-17 	1.05122346288775 	-0.0306004189553046 	0
4 	2.17123064424048 	-4.85722573273506e-17 	1.05500188347675 	-0.0296090048925747 	0
4 	2.20569893411516 	-4.85722573273506e-17 	1.05833197040674 	-0.0286472249144431 	0
4 	2.23894917046123 	-5.55111512312578e-17 	1.06124172767223 	-0.0277150684024636 	0
4 	2.27102439731726 	-6.59194920871187e-17 	1.06375610717015 	-0.026812178723748 	0
4 	2.30196613761522 	-7.28583859910259e-17 	1.06589705392354 	-0.0259380605386662 	0
4 	2.33181444693392 	-7.63278329429795e-17 	1.06768359161008 	-0.0250921225972542 	0
4 	2.3606079653529 	-7.63278329429795e-17 	1.06913193611493 	-0.0242736896809887 	0
4 	2.38838396747391 	-7.63278329429795e-17 	1.07025562823664 	-0.0234820187164236 	0
4 	2.41517841067461 	-7.97972798949331e-17 	1.07106567930094 	-0.0227163146736663 	0
4 	2.44102598165722 	-8.32667268468867e-17 	1.07157072557627 	-0.0219757438204635 	0
4 	2.46596014135208 	-8.67361737988404e-17 	1.07177718891246 	-0.0212594445454743 	0
4 	2.49001316823444 	-9.0205620750794e-17 	1.07168944186067 	-0.020566536091222 	0
4 	2.51321620011054 	-8.67361737988404e-17 	1.07130997567325 	-0.0198961253481847 	0
4 	2.535599274427 	-8.67361737988404e-17 	1.07063956904803 	-0.0192473118024193 	0
4 	2.55719136715571 	-9.71445146547012e-17 	1.06967745432253 	-0.0186191907149572 	0
4 	2.57802043030465 	-1.04083408558608e-16 	1.0684214761368 	-0.0180108546078266 	0
4 	2.59811342810315 	-1.04083408558608e-16 	1.06686823554059 	-0.0174213931437975 	0
4 	2.61749637190832 	-1.00180280737661e-16 	1.06501321038072 	-0.0168498915195312 	0
4 	2.63619435387806 	-9.62771529167128e-17 	1.06285084091354 	-0.0162954275449455 	0
4 	2.65423157945406 	-9.97465998686664e-17 	1.06037456834481 	-0.0157570676523508 	0
4 	2.67163139869691 	-1.0321604682062e-16 	1.05757681380453 	-0.0152338621615201 	0
4 	2.68841633651388 	-9.97465998686664e-17 	1.0544488864355 	-0.014724840213113 	0
4 	2.7046081218185 	-9.97465998686664e-17 	1.05098081197574 	-0.0142290048633778 	0
4 	2.72022771565972 	-1.0321604682062e-16 	1.04716107740278 	-0.0137453288991654 	0
4 	2.73529533835694 	-9.62771529167128e-17 	1.04297629263054 	-0.0132727519781585 	0
4 	2.74983049567625 	-8.93382590128056e-17 	1.03841077650037 	-0.0128101797235233 	0
4 	2.76385200408157 	-8.5868812060852e-17 	1.03344608092597 	-0.0123564854083985 	0
4 	2.77737801509344 	-8.23993651088983e-17 	1.02806047363444 	-0.0119105148580863 	0
4 	2.79042603878708 	-8.23993651088983e-17 	1.02222840623246 	-0.0114710951735955 	0
4 	2.80301296646003 	-7.89299181569447e-17 	1.01592000022334 	-0.0110370478516756 	0
4 	2.81515509249873 	-7.54604712049911e-17 	1.00910058910591 	-0.010607206996786 	0
4 	2.82686813547238 	-7.54604712049911e-17 	1.00173035970981 	-0.0101804437654706 	0
4 	2.83816725848143 	-7.58941520739853e-17 	0.993764140111486 	-0.00975569708229749 	0
4 	2.84906708878692 	-7.63278329429795e-17 	0.985151384443419 	-0.00933200128285666 	0
4 	2.85958173674616 	-7.63278329429795e-17 	0.97583640617995 	-0.00890849724869939 	0
4 	2.86972481407933 	-7.63278329429795e-17 	0.965758897274162 	-0.00848450758157606 	0
4 	2.87950945149043 	-7.63278329429795e-17 	0.954853942107925 	-0.00806030606079693 	0
4 	2.88894831566567 	-7.28583859910259e-17 	0.943013881955341 	-0.00763388130695762 	0
4 	2.89805362567107 	-6.59194920871187e-17 	0.930020332026688 	-0.00720214941908323 	0
4 	2.90683716877067 	-5.89805981832114e-17 	0.915637129212832 	-0.0067607380786414 	0
4 	2.9153103156857 	-5.55111512312578e-17 	0.899728117905144 	-0.00631043360307292 	0
4 	2.92348403531449 	-5.89805981832114e-17 	0.882214056818011 	-0.00585312364370666 	0
4 	2.9313689089323 	-6.54858112181245e-17 	0.863046143092184 	-0.00539173966664379 	0
4 	2.93897514388925 	-6.85215773010839e-17 	0.84218999752631 	-0.00492994338584222 	0
4 	2.94631258682425 	-7.19910242530375e-17 	0.81961269307273 	-0.00447170053984372 	0
4 	2.95339073641193 	-7.54604712049911e-17 	0.795269942747914 	-0.00402097640407713 	0
4 	2.96021875565916 	-7.19910242530375e-17 	0.769092237213338 	-0.00358154379028909 	0
4 	2.96680548376697 	-7.19910242530375e-17 	0.740969308209172 	-0.00315685632642008 	0
4 	2.97315944757337 	-7.54604712049911e-17 	0.710732698506848 	-0.00274998318036083 	0
4 	2.97928887259171 	-7.54604712049911e-17 	0.678134679072516 	-0.00236359259458342 	0
4 	2.98520169365903 	-6.85215773010839e-17 	0.642820782432108 	-0.00199999636483104 	0
4 	2.99090556520807 	-6.50521303491303e-17 	0.604291223642782 	-0.00166119277828597 	0
4 	2.99640787117633 	-7.19910242530375e-17 	0.561861267536904 	-0.00134887375910603 	0
4 	3.00171573456492 	-7.54604712049911e-17 	0.514659084485302 	-0.00106480950480029 	0
4 	3.00683602665963 	-7.54604712049911e-17 	0.461592052729381 	-0.000811532575744872 	0
4 	3.01177537592612 	-7.54604712049911e-17 	0.400939128377601 	-0.000588188827870969 	0
4 	3.01654017659085 	-7.54604712049911e-17 	0.331421140417886 	-0.000394875690132467 	0
4 	3.02113659691864 	-7.54604712049911e-17 	0.255167883711214 	-0.000235871507445696 	0
4 	3.02557058719784 	-7.89299181569447e-17 	0.177586494706331 	-0.000116989859484393 	0
4 	3.02984788744324 	-8.5868812060852e-17 	0.103149972054506 	-4.0456709897161e-05 	0
