/*--------------------------------*- C++ -*----------------------------------*\
  =========                 |
  \\      /  F ield         | OpenFOAM: The Open Source CFD Toolbox
   \\    /   O peration     | Website:  https://openfoam.org
    \\  /    A nd           | Version:  7
     \\/     M anipulation  |
\*---------------------------------------------------------------------------*/
FoamFile
{
    version     2.0;
    format      ascii;
    class       volScalarField;
    location    "0";
    object      k_LES;
}
// * * * * * * * * * * * * * * * * * * * * * * * * * * * * * * * * * * * * * //

dimensions      [0 2 -2 0 0 0 0];

internalField   nonuniform List<scalar>
15600
(
0.00299937
0.00229406
0.00165131
0.00039615
0.00607180
0.00403339
0.00207351
0.00188283
0.00143611
0.00071932
0.00047629
0.00133541
0.00089434
0.00057351
0.00127128
0.00124964
0.00254319
0.00176849
0.00189876
0.00190671
0.00333282
0.00170542
0.00200303
0.00237408
0.00269240
0.00286726
0.00318354
0.00335305
0.00344893
0.00358669
0.00370625
0.00366631
0.00385283
0.00393011
0.00391548
0.00387736
0.00392170
0.00386074
0.00385025
0.00383615
0.00382283
0.00370938
0.00368294
0.00363529
0.00350487
0.00337164
0.00329375
0.00321491
0.00318357
0.00310414
0.00308196
0.00297937
0.00290564
0.00278913
0.00276216
0.00270793
0.00252911
0.00252934
0.00245797
0.00229027
0.00222738
0.00224678
0.00208626
0.00200019
0.00194152
0.00187453
0.00180839
0.00176794
0.00170390
0.00168339
0.00162608
0.00160264
0.00155865
0.00152284
0.00147856
0.00142583
0.00138867
0.00134009
0.00132193
0.00125077
0.00121817
0.00121634
0.00120551
0.00117475
0.00109382
0.00108655
0.00106888
0.00108468
0.00100656
0.00098986
0.00096846
0.00092538
0.00095308
0.00093014
0.00089718
0.00087700
0.00088578
0.00088342
0.00101599
0.00310401
0.00162058
0.00058702
0.00023891
0.00044673
0.00009559
-0.00045677
-0.00011889
-0.00018954
0.00028622
-0.00042777
-0.00025139
0.00022731
-0.00006335
-0.00021398
-0.00030419
-0.00020687
-0.00075593
-0.00065400
0.00002553
0.00163444
0.00731440
0.00773567
0.00603357
0.00362856
0.01017945
0.00891922
0.00529972
0.00426387
0.00392202
0.00241788
0.00267588
0.00364840
0.00335168
0.00383222
0.00517155
0.00539500
0.00691215
0.00680572
0.00731069
0.00776453
0.00822198
0.00760835
0.00895318
0.01020465
0.01130234
0.01208698
0.01295356
0.01358869
0.01419674
0.01478442
0.01490458
0.01502371
0.01544598
0.01576278
0.01580092
0.01588350
0.01608891
0.01610170
0.01618776
0.01621831
0.01610834
0.01575149
0.01566306
0.01547234
0.01521755
0.01483720
0.01453467
0.01424447
0.01399486
0.01385952
0.01363164
0.01343682
0.01317021
0.01286187
0.01261892
0.01227970
0.01185564
0.01153797
0.01112759
0.01087260
0.01065047
0.01037744
0.01016640
0.00988962
0.00956365
0.00924069
0.00904363
0.00885688
0.00863712
0.00852243
0.00836400
0.00821309
0.00800418
0.00782881
0.00764733
0.00743975
0.00725511
0.00704513
0.00685162
0.00665195
0.00649122
0.00635444
0.00621865
0.00606307
0.00590680
0.00577634
0.00565746
0.00553857
0.00537414
0.00526084
0.00513398
0.00498767
0.00485223
0.00471296
0.00459845
0.00449489
0.00444615
0.00445535
0.00469757
0.00744160
0.00784459
0.00696093
0.00523681
0.00720702
0.00380042
0.00167194
0.00161825
0.00120830
0.00207396
0.00039004
-0.00001859
0.00100090
0.00147549
0.00019670
0.00149277
0.00324973
-0.00087135
0.00070977
0.00191893
0.00474699
0.01360694
0.01655485
0.01385021
0.01163033
0.01726673
0.01432971
0.00964130
0.00778787
0.00735059
0.00681736
0.00685871
0.00735215
0.00737664
0.00779676
0.00927747
0.00961457
0.01090756
0.01099520
0.01170835
0.01213840
0.01253245
0.01342761
0.01555108
0.01729249
0.01889995
0.02026031
0.02142234
0.02236537
0.02344513
0.02436776
0.02465782
0.02497036
0.02545387
0.02592926
0.02616828
0.02637438
0.02670367
0.02689429
0.02714245
0.02717633
0.02708274
0.02668153
0.02647671
0.02627021
0.02604357
0.02553630
0.02511041
0.02475005
0.02434847
0.02418599
0.02382581
0.02362380
0.02323921
0.02284052
0.02247534
0.02194357
0.02139868
0.02090540
0.02028770
0.01995615
0.01959588
0.01915731
0.01883096
0.01844730
0.01789316
0.01741055
0.01711742
0.01682762
0.01646832
0.01629724
0.01603113
0.01576782
0.01543162
0.01514089
0.01483620
0.01453735
0.01422594
0.01388482
0.01351814
0.01320844
0.01293671
0.01267683
0.01242472
0.01215686
0.01192297
0.01167207
0.01146514
0.01123659
0.01096202
0.01073838
0.01049342
0.01022539
0.00995419
0.00967300
0.00944076
0.00919842
0.00900737
0.00890748
0.00906807
0.01159602
0.01334935
0.01450868
0.01455613
0.01564017
0.01299333
0.01167725
0.00973883
0.00727655
0.00666789
0.00524352
0.00396759
0.00392089
0.00351089
0.00387379
0.00965716
0.01105485
0.00229390
0.00649284
0.00807577
0.01000531
0.02107700
0.02734483
0.02375202
0.01927514
0.02117819
0.01790163
0.01320355
0.01182190
0.01104003
0.01007432
0.01007914
0.01065277
0.01092537
0.01153917
0.01260702
0.01302719
0.01394324
0.01436863
0.01487656
0.01534070
0.01595476
0.01765148
0.02005318
0.02200988
0.02392041
0.02557594
0.02696255
0.02810384
0.02942561
0.03063647
0.03105334
0.03142958
0.03209297
0.03266036
0.03298294
0.03323665
0.03370526
0.03396069
0.03437764
0.03451253
0.03443635
0.03404173
0.03384362
0.03366416
0.03345228
0.03287508
0.03243293
0.03210942
0.03162112
0.03143161
0.03107596
0.03088363
0.03046019
0.02997829
0.02955518
0.02896193
0.02836392
0.02778197
0.02708009
0.02667833
0.02626404
0.02574961
0.02542432
0.02490298
0.02427941
0.02375970
0.02340781
0.02305484
0.02263434
0.02239774
0.02205054
0.02173244
0.02133710
0.02096428
0.02057734
0.02024986
0.01987144
0.01944863
0.01898050
0.01859019
0.01825392
0.01794174
0.01763114
0.01729140
0.01699036
0.01671484
0.01643734
0.01614332
0.01581824
0.01552726
0.01520254
0.01487968
0.01454049
0.01418303
0.01388082
0.01355833
0.01326600
0.01305695
0.01309131
0.01519653
0.01773085
0.01979216
0.02095400
0.02242267
0.02106731
0.02034915
0.01926793
0.01787404
0.01796450
0.01597658
0.01430714
0.01260230
0.01094218
0.01253143
0.01826691
0.01825349
0.00976769
0.01508452
0.01793703
0.01707025
0.02900361
0.03776751
0.03233671
0.02661913
0.02360977
0.02112600
0.01638842
0.01485061
0.01366908
0.01287540
0.01303586
0.01346597
0.01401151
0.01461939
0.01535141
0.01572586
0.01596500
0.01655326
0.01704750
0.01761077
0.01855075
0.02062824
0.02311901
0.02520071
0.02731262
0.02917553
0.03069861
0.03199834
0.03348429
0.03481226
0.03536272
0.03585794
0.03658946
0.03720860
0.03767793
0.03797915
0.03850639
0.03884189
0.03933979
0.03954977
0.03947558
0.03914998
0.03890860
0.03878843
0.03862254
0.03800434
0.03758110
0.03729254
0.03676869
0.03652625
0.03619046
0.03601731
0.03553115
0.03503646
0.03457557
0.03392320
0.03332863
0.03274918
0.03195414
0.03151540
0.03107829
0.03053177
0.03011860
0.02958750
0.02890958
0.02837259
0.02799314
0.02759599
0.02716398
0.02684784
0.02648010
0.02610724
0.02567626
0.02525042
0.02481567
0.02446594
0.02405447
0.02358166
0.02305784
0.02262869
0.02223708
0.02188340
0.02154231
0.02117201
0.02085510
0.02055169
0.02025601
0.01992007
0.01957652
0.01925950
0.01890885
0.01857448
0.01822204
0.01783318
0.01750419
0.01717496
0.01684621
0.01659492
0.01654682
0.01822352
0.02090955
0.02332023
0.02498227
0.02685014
0.02641141
0.02631956
0.02593124
0.02570800
0.02571813
0.02481365
0.02423438
0.02359107
0.02112064
0.02293568
0.02863011
0.02897219
0.02197264
0.02469739
0.02930498
0.02575271
0.03797553
0.04668663
0.04032238
0.03101912
0.02647798
0.02329605
0.01892577
0.01732196
0.01590833
0.01543324
0.01555144
0.01584514
0.01635320
0.01680415
0.01708680
0.01733531
0.01752230
0.01802350
0.01853064
0.01923948
0.02050908
0.02280896
0.02531999
0.02751178
0.02978412
0.03179294
0.03340913
0.03487109
0.03641024
0.03781408
0.03846532
0.03904181
0.03981851
0.04052850
0.04106076
0.04142555
0.04199688
0.04236989
0.04296346
0.04319636
0.04316527
0.04288219
0.04261553
0.04255384
0.04240772
0.04176437
0.04139513
0.04111054
0.04057249
0.04027682
0.03995910
0.03979375
0.03926452
0.03874937
0.03827772
0.03756164
0.03699140
0.03636844
0.03554118
0.03505492
0.03460248
0.03400279
0.03352755
0.03297798
0.03229842
0.03176974
0.03135723
0.03094351
0.03048767
0.03011992
0.02973188
0.02932875
0.02887539
0.02841373
0.02794707
0.02755593
0.02711405
0.02660172
0.02606695
0.02559587
0.02518382
0.02479562
0.02445890
0.02409390
0.02373962
0.02342301
0.02310944
0.02275188
0.02240926
0.02208013
0.02174101
0.02139901
0.02106152
0.02067240
0.02033324
0.02003446
0.01972323
0.01948876
0.01939825
0.02070876
0.02323645
0.02566978
0.02763678
0.02932279
0.03031610
0.03106391
0.03093747
0.03116446
0.03097379
0.03051574
0.03047107
0.03054939
0.03121588
0.03271170
0.03539997
0.03686333
0.03311781
0.03421406
0.03889006
0.03579112
0.04820757
0.05587366
0.04903392
0.03489501
0.02892169
0.02521347
0.02137454
0.01910791
0.01796631
0.01729836
0.01729147
0.01760915
0.01803264
0.01835881
0.01838812
0.01845513
0.01857821
0.01905289
0.01963107
0.02047402
0.02202834
0.02445834
0.02701734
0.02932505
0.03171088
0.03382931
0.03553528
0.03714677
0.03868407
0.04010692
0.04084497
0.04149893
0.04230352
0.04306738
0.04364638
0.04409363
0.04467716
0.04510283
0.04569667
0.04592671
0.04596786
0.04576411
0.04543979
0.04541595
0.04529018
0.04466217
0.04434501
0.04404689
0.04349912
0.04316226
0.04284239
0.04266781
0.04213176
0.04159338
0.04109187
0.04036228
0.03979613
0.03913699
0.03828124
0.03774434
0.03727807
0.03663266
0.03610361
0.03553806
0.03486028
0.03432426
0.03388993
0.03347104
0.03300628
0.03258763
0.03218172
0.03175813
0.03128577
0.03079994
0.03032287
0.02987258
0.02940876
0.02886888
0.02833833
0.02785391
0.02741126
0.02700176
0.02665875
0.02630433
0.02594056
0.02560372
0.02527149
0.02490752
0.02457355
0.02422870
0.02389988
0.02356210
0.02324691
0.02287361
0.02252888
0.02226503
0.02198570
0.02179746
0.02169642
0.02273213
0.02499103
0.02732529
0.02937966
0.03123227
0.03263248
0.03354342
0.03393164
0.03475571
0.03484713
0.03488420
0.03489689
0.03504204
0.03621447
0.03742491
0.04039141
0.04084353
0.04007891
0.03876090
0.04445403
0.04631416
0.05853972
0.06578119
0.05825388
0.03973743
0.03140794
0.02703019
0.02317230
0.02079938
0.01944566
0.01879417
0.01875853
0.01897829
0.01924687
0.01940563
0.01931356
0.01927444
0.01930712
0.01981014
0.02045353
0.02147203
0.02324960
0.02578972
0.02841776
0.03083578
0.03330061
0.03552009
0.03732504
0.03905125
0.04055658
0.04195287
0.04277475
0.04350139
0.04431659
0.04510882
0.04570010
0.04623336
0.04679732
0.04726022
0.04783222
0.04804572
0.04817449
0.04805227
0.04768144
0.04763906
0.04753406
0.04697559
0.04669040
0.04637069
0.04582712
0.04545768
0.04512776
0.04494595
0.04441320
0.04381484
0.04328581
0.04258061
0.04199420
0.04130153
0.04043919
0.03982314
0.03936007
0.03866920
0.03810947
0.03752132
0.03685995
0.03631896
0.03586037
0.03544334
0.03496867
0.03450104
0.03408226
0.03363916
0.03315900
0.03265190
0.03217576
0.03166753
0.03117890
0.03061560
0.03009396
0.02960990
0.02915395
0.02872517
0.02837783
0.02802839
0.02765736
0.02729183
0.02695152
0.02658997
0.02626901
0.02591268
0.02558321
0.02523770
0.02494752
0.02459962
0.02425657
0.02400576
0.02377178
0.02362584
0.02353086
0.02435405
0.02632811
0.02853292
0.03058876
0.03255120
0.03411659
0.03543561
0.03611178
0.03685802
0.03750486
0.03812508
0.03813778
0.03842141
0.03918499
0.04024471
0.04338357
0.04434897
0.04459187
0.04136556
0.04576196
0.05516307
0.06734767
0.07489160
0.06770423
0.04565294
0.03394828
0.02869360
0.02478745
0.02203000
0.02057004
0.01997171
0.01994111
0.02002436
0.02016642
0.02014916
0.01999789
0.01987182
0.01988609
0.02039775
0.02112363
0.02232482
0.02429339
0.02694755
0.02965980
0.03216806
0.03467891
0.03698984
0.03890665
0.04070770
0.04219348
0.04352357
0.04442712
0.04521153
0.04604307
0.04682358
0.04741115
0.04800548
0.04854429
0.04900563
0.04955974
0.04975889
0.04998915
0.04991710
0.04951308
0.04942887
0.04933220
0.04886410
0.04859385
0.04825621
0.04773721
0.04735032
0.04700006
0.04680509
0.04626998
0.04559756
0.04504339
0.04436733
0.04376657
0.04304627
0.04217735
0.04148490
0.04100420
0.04028321
0.03972439
0.03913200
0.03848417
0.03792078
0.03742988
0.03702069
0.03653926
0.03603108
0.03560013
0.03513901
0.03464880
0.03412349
0.03365661
0.03310520
0.03258661
0.03202165
0.03151030
0.03102947
0.03055716
0.03012108
0.02976393
0.02940969
0.02903793
0.02864801
0.02829474
0.02794060
0.02762888
0.02727063
0.02692401
0.02657246
0.02629958
0.02598565
0.02564666
0.02538953
0.02519412
0.02509080
0.02499631
0.02564924
0.02736427
0.02940573
0.03140622
0.03340682
0.03511925
0.03647229
0.03773311
0.03828479
0.03904601
0.03983512
0.04059203
0.04101934
0.04209040
0.04268630
0.04509638
0.04762023
0.04648260
0.04353773
0.04524530
0.06033522
0.07381815
0.08236911
0.07693557
0.05226393
0.03701613
0.03043338
0.02619919
0.02325460
0.02169055
0.02096195
0.02085289
0.02079150
0.02077866
0.02064244
0.02049889
0.02028748
0.02034992
0.02089187
0.02169978
0.02309221
0.02523078
0.02800779
0.03080773
0.03338339
0.03591885
0.03831375
0.04034123
0.04219228
0.04368584
0.04494249
0.04591852
0.04675038
0.04757902
0.04831851
0.04890541
0.04952219
0.05002928
0.05045474
0.05100580
0.05121302
0.05152360
0.05147813
0.05105183
0.05091934
0.05082141
0.05043939
0.05015769
0.04982086
0.04933921
0.04894159
0.04857521
0.04837076
0.04780655
0.04706148
0.04648169
0.04583547
0.04523049
0.04448416
0.04360034
0.04284126
0.04233043
0.04159723
0.04105029
0.04047855
0.03982821
0.03923366
0.03871022
0.03830666
0.03782406
0.03728925
0.03683818
0.03636675
0.03586123
0.03532743
0.03486453
0.03429397
0.03373952
0.03318916
0.03268389
0.03220458
0.03171559
0.03127302
0.03090603
0.03053493
0.03017141
0.02975996
0.02939458
0.02905549
0.02873998
0.02838801
0.02802172
0.02767005
0.02739693
0.02711482
0.02678323
0.02651428
0.02633884
0.02627461
0.02618428
0.02668116
0.02819059
0.03005688
0.03199783
0.03402097
0.03582269
0.03722755
0.03882151
0.03952128
0.04025989
0.04108874
0.04181960
0.04302423
0.04400808
0.04534243
0.04661781
0.04898763
0.04763487
0.04527176
0.04444534
0.06135512
0.07726106
0.08811050
0.08531670
0.05966080
0.04057838
0.03240013
0.02756465
0.02443329
0.02260233
0.02178113
0.02153840
0.02137189
0.02121590
0.02103104
0.02086502
0.02065280
0.02076108
0.02135270
0.02224412
0.02382124
0.02611135
0.02901562
0.03189868
0.03452677
0.03707038
0.03954398
0.04167379
0.04355537
0.04506954
0.04627687
0.04730464
0.04818403
0.04897355
0.04966127
0.05026526
0.05086621
0.05133346
0.05169758
0.05225372
0.05248290
0.05285781
0.05283911
0.05238405
0.05220456
0.05211405
0.05177646
0.05147422
0.05112983
0.05070745
0.05030675
0.04993079
0.04969834
0.04911667
0.04828950
0.04768084
0.04706168
0.04646266
0.04568708
0.04478718
0.04398176
0.04341319
0.04269426
0.04213834
0.04162608
0.04097101
0.04032907
0.03978523
0.03938209
0.03889554
0.03835503
0.03787121
0.03739516
0.03687770
0.03634706
0.03587803
0.03530589
0.03471015
0.03418851
0.03368671
0.03319491
0.03269743
0.03224753
0.03186242
0.03147679
0.03112212
0.03069568
0.03032051
0.02999600
0.02966493
0.02931712
0.02894300
0.02859730
0.02831106
0.02805384
0.02773158
0.02745094
0.02727598
0.02723371
0.02716220
0.02753230
0.02885979
0.03055533
0.03238339
0.03436599
0.03619203
0.03779650
0.03935127
0.04043071
0.04120829
0.04218223
0.04306781
0.04403525
0.04524081
0.04687164
0.04792034
0.04960014
0.04866368
0.04646179
0.04437442
0.05929434
0.07735891
0.09183324
0.09251344
0.06771647
0.04472257
0.03459336
0.02896885
0.02551229
0.02345023
0.02247953
0.02210008
0.02180132
0.02153322
0.02133124
0.02114726
0.02097447
0.02114216
0.02181121
0.02279960
0.02452746
0.02696465
0.02998662
0.03295655
0.03564694
0.03816930
0.04070614
0.04293887
0.04484932
0.04638516
0.04754294
0.04860201
0.04953351
0.05027821
0.05090636
0.05153446
0.05209384
0.05252580
0.05281691
0.05336817
0.05363369
0.05404642
0.05405470
0.05360250
0.05335229
0.05326639
0.05293868
0.05263171
0.05224823
0.05188523
0.05151984
0.05112104
0.05084024
0.05026151
0.04934813
0.04871451
0.04810632
0.04750859
0.04671065
0.04579561
0.04496698
0.04432060
0.04362888
0.04304884
0.04260717
0.04195530
0.04127891
0.04071578
0.04031095
0.03981042
0.03927295
0.03875684
0.03827279
0.03775819
0.03723505
0.03674369
0.03617776
0.03556164
0.03506044
0.03456596
0.03405430
0.03354878
0.03308553
0.03268191
0.03229177
0.03193844
0.03150586
0.03112116
0.03080013
0.03045539
0.03010468
0.02973204
0.02939234
0.02909253
0.02884389
0.02853773
0.02825024
0.02806040
0.02802150
0.02797360
0.02825204
0.02941432
0.03094392
0.03267871
0.03461594
0.03646215
0.03819104
0.03973786
0.04106087
0.04189343
0.04277447
0.04383915
0.04490904
0.04579734
0.04776767
0.04848814
0.04870565
0.04946812
0.04734164
0.04487415
0.05566947
0.07462189
0.09288942
0.09833032
0.07604297
0.04940995
0.03712797
0.03047581
0.02654857
0.02424325
0.02308383
0.02257204
0.02216272
0.02182703
0.02158890
0.02139932
0.02127199
0.02150150
0.02227526
0.02338535
0.02522562
0.02780642
0.03094140
0.03401589
0.03677201
0.03924073
0.04181780
0.04415161
0.04609151
0.04765367
0.04877162
0.04983976
0.05082197
0.05154437
0.05208144
0.05275721
0.05324536
0.05365319
0.05389723
0.05441638
0.05471397
0.05514138
0.05517505
0.05475537
0.05441866
0.05432603
0.05397607
0.05367611
0.05324014
0.05293094
0.05264049
0.05219091
0.05185701
0.05128088
0.05029452
0.04964960
0.04902991
0.04842228
0.04760796
0.04668672
0.04583871
0.04510532
0.04443580
0.04383708
0.04344272
0.04281130
0.04212783
0.04154821
0.04112897
0.04061922
0.04008297
0.03953970
0.03903882
0.03853125
0.03801510
0.03749689
0.03693660
0.03633271
0.03584205
0.03534839
0.03482407
0.03429964
0.03381855
0.03339898
0.03301007
0.03264956
0.03222068
0.03183021
0.03149276
0.03114646
0.03078270
0.03041681
0.03008417
0.02977175
0.02951664
0.02923715
0.02895238
0.02872949
0.02868235
0.02865307
0.02887327
0.02986987
0.03125614
0.03290422
0.03479906
0.03662390
0.03839359
0.03987119
0.04119873
0.04249219
0.04343752
0.04449370
0.04557593
0.04707545
0.04811709
0.04899640
0.04897663
0.04979858
0.04798616
0.04558997
0.05212988
0.07007701
0.09164830
0.10257747
0.08430781
0.05485772
0.04007251
0.03219643
0.02765933
0.02505916
0.02368910
0.02299702
0.02247216
0.02209009
0.02182518
0.02164232
0.02157206
0.02188102
0.02277646
0.02400641
0.02593424
0.02864879
0.03190430
0.03509173
0.03792090
0.04031518
0.04290765
0.04533539
0.04728456
0.04886950
0.05000967
0.05104393
0.05207393
0.05278915
0.05321215
0.05396057
0.05436380
0.05476029
0.05499300
0.05545457
0.05576030
0.05620561
0.05625305
0.05584459
0.05545044
0.05530791
0.05493566
0.05462809
0.05416392
0.05389975
0.05369062
0.05317744
0.05277264
0.05219238
0.05116584
0.05052784
0.04989603
0.04924537
0.04841741
0.04749696
0.04662725
0.04582169
0.04514693
0.04455616
0.04416930
0.04356256
0.04290940
0.04231745
0.04186714
0.04135674
0.04080823
0.04024761
0.03972032
0.03922142
0.03870536
0.03816259
0.03760954
0.03704179
0.03655245
0.03605201
0.03552835
0.03498348
0.03447717
0.03403886
0.03364784
0.03327819
0.03285489
0.03246862
0.03210446
0.03174667
0.03137357
0.03102053
0.03069538
0.03037552
0.03011834
0.02985567
0.02957770
0.02931860
0.02925534
0.02924270
0.02941456
0.03024959
0.03151421
0.03307188
0.03487564
0.03670749
0.03847328
0.04003073
0.04140634
0.04277478
0.04388819
0.04500127
0.04623475
0.04781807
0.04864258
0.04936915
0.05070994
0.04995642
0.04836888
0.04629389
0.04945973
0.06482879
0.08843861
0.10489976
0.09215137
0.06094010
0.04349124
0.03415826
0.02888334
0.02591140
0.02431300
0.02342672
0.02279839
0.02234935
0.02207078
0.02190331
0.02189091
0.02229604
0.02331638
0.02467504
0.02667592
0.02950447
0.03288522
0.03618801
0.03908844
0.04142906
0.04400139
0.04652696
0.04845325
0.05005289
0.05125278
0.05224089
0.05330983
0.05401758
0.05435382
0.05514186
0.05545789
0.05586217
0.05612993
0.05650221
0.05683650
0.05728101
0.05731915
0.05689644
0.05647394
0.05623009
0.05586770
0.05551306
0.05505821
0.05482360
0.05466785
0.05409782
0.05362258
0.05302672
0.05199811
0.05135572
0.05072050
0.05000854
0.04916988
0.04824551
0.04734561
0.04650133
0.04579872
0.04523728
0.04482988
0.04424812
0.04363232
0.04303117
0.04255646
0.04203898
0.04146104
0.04089398
0.04034173
0.03985244
0.03932458
0.03876776
0.03822529
0.03769767
0.03720173
0.03669219
0.03617787
0.03561372
0.03509251
0.03462864
0.03422637
0.03384190
0.03342624
0.03304601
0.03266034
0.03227624
0.03189988
0.03156450
0.03124720
0.03092785
0.03067116
0.03041189
0.03014098
0.02985374
0.02976030
0.02975754
0.02989033
0.03058728
0.03174089
0.03320780
0.03493243
0.03674157
0.03845190
0.04010789
0.04147951
0.04276742
0.04412064
0.04516980
0.04647895
0.04779191
0.04895718
0.04954333
0.05089811
0.04996527
0.04856434
0.04686946
0.04792721
0.05986940
0.08355806
0.10520276
0.09923431
0.06757685
0.04742339
0.03643221
0.03029180
0.02684555
0.02500426
0.02390795
0.02314950
0.02262441
0.02234368
0.02219528
0.02224353
0.02274789
0.02389270
0.02539776
0.02746450
0.03037992
0.03388682
0.03730343
0.04026909
0.04259435
0.04514440
0.04772638
0.04962795
0.05123721
0.05247974
0.05344305
0.05454936
0.05523944
0.05553962
0.05633538
0.05655434
0.05696958
0.05729132
0.05756138
0.05795158
0.05836658
0.05840245
0.05793277
0.05746758
0.05713955
0.05677569
0.05638466
0.05594453
0.05571959
0.05557378
0.05497028
0.05443478
0.05381446
0.05280476
0.05216327
0.05150664
0.05072260
0.04989295
0.04894999
0.04800630
0.04716128
0.04643087
0.04589624
0.04545984
0.04489129
0.04429295
0.04370034
0.04320988
0.04267210
0.04206317
0.04149005
0.04093186
0.04043894
0.03990529
0.03932752
0.03879824
0.03829356
0.03779302
0.03728744
0.03677357
0.03620470
0.03567679
0.03518449
0.03476500
0.03435579
0.03395645
0.03356521
0.03317293
0.03276297
0.03238918
0.03206922
0.03176104
0.03144930
0.03118529
0.03091822
0.03065641
0.03035572
0.03021291
0.03020593
0.03031977
0.03090295
0.03195740
0.03332477
0.03497292
0.03672322
0.03840502
0.04009322
0.04153767
0.04274002
0.04399682
0.04518860
0.04665834
0.04792103
0.04905256
0.04943024
0.05048346
0.04985140
0.04864082
0.04725306
0.04724091
0.05582940
0.07778956
0.10353913
0.10520081
0.07484016
0.05194481
0.03906368
0.03190076
0.02793157
0.02576432
0.02444840
0.02355248
0.02295151
0.02266788
0.02253321
0.02263439
0.02324878
0.02451434
0.02617902
0.02830006
0.03129244
0.03492492
0.03844642
0.04145580
0.04379999
0.04635885
0.04894897
0.05083561
0.05244742
0.05370215
0.05464352
0.05580730
0.05645890
0.05677749
0.05755884
0.05771751
0.05810413
0.05846723
0.05865454
0.05909741
0.05947339
0.05949568
0.05897891
0.05843768
0.05805683
0.05769550
0.05728372
0.05683003
0.05660102
0.05642652
0.05581852
0.05523908
0.05458153
0.05361812
0.05297206
0.05226257
0.05140866
0.05060077
0.04964007
0.04864850
0.04780514
0.04706574
0.04655115
0.04607265
0.04550093
0.04490202
0.04434379
0.04382962
0.04326487
0.04263570
0.04205666
0.04150810
0.04099283
0.04046577
0.03986092
0.03933200
0.03884095
0.03833611
0.03784892
0.03732443
0.03676200
0.03622746
0.03571771
0.03527099
0.03483558
0.03444503
0.03403959
0.03364533
0.03322322
0.03285193
0.03253905
0.03225157
0.03194476
0.03166675
0.03138308
0.03112542
0.03083105
0.03063098
0.03060838
0.03072038
0.03120747
0.03216937
0.03344806
0.03500459
0.03669948
0.03837432
0.04000758
0.04152297
0.04279957
0.04392718
0.04520585
0.04640229
0.04750684
0.04903430
0.04981892
0.04966137
0.04972781
0.04861664
0.04748411
0.04704206
0.05278603
0.07183255
0.10010046
0.10967042
0.08235711
0.05705412
0.04212816
0.03376854
0.02916508
0.02661442
0.02506518
0.02403314
0.02335138
0.02305614
0.02293046
0.02308632
0.02380797
0.02519214
0.02701833
0.02919750
0.03226211
0.03600006
0.03963578
0.04266193
0.04505894
0.04764847
0.05021321
0.05208192
0.05371528
0.05494484
0.05587472
0.05709247
0.05772044
0.05809258
0.05880745
0.05897722
0.05928074
0.05965975
0.05982917
0.06029647
0.06062658
0.06060410
0.06005005
0.05942370
0.05900309
0.05866794
0.05820316
0.05771750
0.05747258
0.05726969
0.05665563
0.05604151
0.05535663
0.05444176
0.05376089
0.05299852
0.05210717
0.05129677
0.05032323
0.04929160
0.04844317
0.04772843
0.04721065
0.04669269
0.04609581
0.04548983
0.04497202
0.04443332
0.04384546
0.04320246
0.04261552
0.04207795
0.04153207
0.04100647
0.04037629
0.03983334
0.03934967
0.03885174
0.03838474
0.03784380
0.03728546
0.03674902
0.03622823
0.03574954
0.03528415
0.03490230
0.03449089
0.03409104
0.03367013
0.03329587
0.03298616
0.03271322
0.03240930
0.03211337
0.03181249
0.03154969
0.03127568
0.03103672
0.03098837
0.03110282
0.03151034
0.03237706
0.03356693
0.03503378
0.03668102
0.03832972
0.03989278
0.04138474
0.04275745
0.04400876
0.04513717
0.04637593
0.04777906
0.04887799
0.04939604
0.04975667
0.04946131
0.04848034
0.04757412
0.04702136
0.05063069
0.06626496
0.09516474
0.11241384
0.08996568
0.06279566
0.04569206
0.03594104
0.03059808
0.02759201
0.02579381
0.02461880
0.02384932
0.02351774
0.02340409
0.02362035
0.02443412
0.02593354
0.02791343
0.03017151
0.03330381
0.03711411
0.04088193
0.04392666
0.04638636
0.04902388
0.05155077
0.05337727
0.05506375
0.05625856
0.05718383
0.05840967
0.05906952
0.05948652
0.06011970
0.06031581
0.06051642
0.06087177
0.06108173
0.06154610
0.06183715
0.06172613
0.06116377
0.06045509
0.05999895
0.05967653
0.05913919
0.05862522
0.05837471
0.05811448
0.05748573
0.05686421
0.05615750
0.05525232
0.05452797
0.05374387
0.05283636
0.05200396
0.05100249
0.04994761
0.04910535
0.04841287
0.04786457
0.04729814
0.04669816
0.04607621
0.04558920
0.04502141
0.04441739
0.04377875
0.04318203
0.04264745
0.04206635
0.04153066
0.04087397
0.04030696
0.03983224
0.03935878
0.03889549
0.03834470
0.03778621
0.03723950
0.03671080
0.03620333
0.03571799
0.03534190
0.03492922
0.03452688
0.03411172
0.03372664
0.03342240
0.03314129
0.03283369
0.03253024
0.03221747
0.03194242
0.03168794
0.03144009
0.03135636
0.03146877
0.03181362
0.03257422
0.03367528
0.03507068
0.03665223
0.03824600
0.03980326
0.04121404
0.04262856
0.04397315
0.04518408
0.04657993
0.04814082
0.04880489
0.04919030
0.04976184
0.04914381
0.04828272
0.04754590
0.04704017
0.04922121
0.06145459
0.08921931
0.11328745
0.09732522
0.06908018
0.04978819
0.03853271
0.03226579
0.02874543
0.02666816
0.02532815
0.02445140
0.02407020
0.02396368
0.02424800
0.02514208
0.02674172
0.02884222
0.03121425
0.03441789
0.03828915
0.04216274
0.04525276
0.04780375
0.05047195
0.05296411
0.05473191
0.05648054
0.05767307
0.05860722
0.05979089
0.06051984
0.06094856
0.06152371
0.06172235
0.06184880
0.06214249
0.06241063
0.06285069
0.06307347
0.06288548
0.06228227
0.06153455
0.06104682
0.06072295
0.06010041
0.05955544
0.05930244
0.05897606
0.05832418
0.05772056
0.05697767
0.05605738
0.05530679
0.05449166
0.05358433
0.05273678
0.05169636
0.05064417
0.04981931
0.04912037
0.04851674
0.04790356
0.04732029
0.04668312
0.04620516
0.04559142
0.04497761
0.04435440
0.04374349
0.04320282
0.04259085
0.04203709
0.04136651
0.04077152
0.04029981
0.03986144
0.03936853
0.03881688
0.03826299
0.03770459
0.03716625
0.03664577
0.03615547
0.03576755
0.03536249
0.03495868
0.03455372
0.03416268
0.03385170
0.03354239
0.03321804
0.03291319
0.03259988
0.03231741
0.03207142
0.03182709
0.03170788
0.03180952
0.03210873
0.03277193
0.03379196
0.03511469
0.03661708
0.03816122
0.03965163
0.04103364
0.04238885
0.04371329
0.04516396
0.04658772
0.04785910
0.04841307
0.04965220
0.04923804
0.04878145
0.04799132
0.04741616
0.04701392
0.04826694
0.05746032
0.08279582
0.11227103
0.10410781
0.07582197
0.05447382
0.04159508
0.03424401
0.03010978
0.02769675
0.02616066
0.02517141
0.02473760
0.02462073
0.02497445
0.02595017
0.02761163
0.02981132
0.03231596
0.03561263
0.03952472
0.04345080
0.04663445
0.04926116
0.05197959
0.05445255
0.05614676
0.05798121
0.05916829
0.06014968
0.06128189
0.06206152
0.06247798
0.06301124
0.06319279
0.06323213
0.06353899
0.06381433
0.06420080
0.06433524
0.06412243
0.06342872
0.06267360
0.06215250
0.06181154
0.06111056
0.06053944
0.06021811
0.05987219
0.05920361
0.05860357
0.05779407
0.05686185
0.05608357
0.05523201
0.05434288
0.05348296
0.05241443
0.05139917
0.05058283
0.04985169
0.04919340
0.04854438
0.04797684
0.04732314
0.04682417
0.04616532
0.04553999
0.04491203
0.04427776
0.04373418
0.04310807
0.04252311
0.04185796
0.04123896
0.04075681
0.04033990
0.03981564
0.03926562
0.03872114
0.03815350
0.03761160
0.03709656
0.03660103
0.03619314
0.03580230
0.03539707
0.03499669
0.03460477
0.03426626
0.03392666
0.03359259
0.03327231
0.03296387
0.03268785
0.03243776
0.03219283
0.03204888
0.03213070
0.03238001
0.03298457
0.03393097
0.03517701
0.03659417
0.03808240
0.03948545
0.04088619
0.04217666
0.04345751
0.04486136
0.04614663
0.04731052
0.04823360
0.04912252
0.04865463
0.04833398
0.04763733
0.04720435
0.04691888
0.04760007
0.05432536
0.07636846
0.10937417
0.10985584
0.08286918
0.05972055
0.04517330
0.03656392
0.03173327
0.02890549
0.02711825
0.02602267
0.02552820
0.02539555
0.02580216
0.02686248
0.02854318
0.03082513
0.03350218
0.03687670
0.04084148
0.04477738
0.04805919
0.05076953
0.05356851
0.05601636
0.05766349
0.05954683
0.06072042
0.06178978
0.06289067
0.06366762
0.06408060
0.06457214
0.06471453
0.06470601
0.06506684
0.06531254
0.06558051
0.06562603
0.06542599
0.06461966
0.06383009
0.06331748
0.06293534
0.06218223
0.06161676
0.06115452
0.06079439
0.06013404
0.05949257
0.05861729
0.05765607
0.05685519
0.05596720
0.05512038
0.05425488
0.05318347
0.05220545
0.05138894
0.05060354
0.04990380
0.04923759
0.04868436
0.04799560
0.04743962
0.04674600
0.04609985
0.04543271
0.04478005
0.04424045
0.04362318
0.04299332
0.04234696
0.04172577
0.04122660
0.04080264
0.04025725
0.03970434
0.03917125
0.03861078
0.03806740
0.03755685
0.03706101
0.03663254
0.03624897
0.03584028
0.03544178
0.03504896
0.03467345
0.03430790
0.03396368
0.03362922
0.03332713
0.03306370
0.03279931
0.03254831
0.03239382
0.03244498
0.03264696
0.03320974
0.03408843
0.03525499
0.03658275
0.03800366
0.03934381
0.04067371
0.04198318
0.04328045
0.04447286
0.04566423
0.04694710
0.04776813
0.04732807
0.04829365
0.04786343
0.04724278
0.04691280
0.04674154
0.04705001
0.05187933
0.07034332
0.10488613
0.11421621
0.09010653
0.06556467
0.04925830
0.03930017
0.03365095
0.03032714
0.02824010
0.02701697
0.02644115
0.02630053
0.02672099
0.02785859
0.02958272
0.03191306
0.03477484
0.03821291
0.04225522
0.04619526