/*--------------------------------*- C++ -*----------------------------------*\
  =========                 |
  \\      /  F ield         | OpenFOAM: The Open Source CFD Toolbox
   \\    /   O peration     | Website:  https://openfoam.org
    \\  /    A nd           | Version:  7
     \\/     M anipulation  |
\*---------------------------------------------------------------------------*/
FoamFile
{
    version     2.0;
    format      ascii;
    class       volVectorField;
    location    "0";
    object      U_LES;
}
// * * * * * * * * * * * * * * * * * * * * * * * * * * * * * * * * * * * * * //

dimensions      [0 1 -1 0 0 0 0];

internalField   nonuniform List<vector>
15600
(
(-0.01033077 0.00034572 0.00000000)
(-0.00768231 0.00023625 0.00000000)
(-0.01166856 0.00620151 0.00000000)
(-0.00418064 0.00436496 0.00000000)
(-0.02037091 0.01453573 0.00000000)
(-0.01461700 0.01039531 0.00000000)
(-0.00796230 0.00597445 0.00000000)
(-0.00757652 0.00574192 0.00000000)
(-0.00624740 0.00501744 0.00000000)
(-0.00343900 0.00339598 0.00000000)
(-0.00462211 0.00412691 0.00000000)
(-0.01160182 0.00895113 0.00000000)
(-0.01255479 0.00916571 0.00000000)
(-0.01507164 0.00851327 0.00000000)
(-0.01793012 0.01724410 0.00000000)
(-0.02443879 0.01395620 0.00000000)
(-0.03587048 0.01940859 0.00000000)
(-0.02898687 0.01412210 0.00000000)
(-0.02601212 0.00788193 0.00000000)
(-0.02836371 0.00625908 0.00000000)
(-0.03264809 0.00200630 0.00000000)
(-0.02783029 0.00014651 0.00000000)
(-0.03535048 0.00011462 0.00000000)
(-0.04149996 0.00006868 0.00000000)
(-0.04474409 0.00003632 0.00000000)
(-0.04720307 0.00003222 0.00000000)
(-0.04858269 0.00002324 0.00000000)
(-0.04921841 -0.00000008 0.00000000)
(-0.04858926 -0.00003009 0.00000000)
(-0.04650965 -0.00002591 0.00000000)
(-0.04482441 -0.00001078 0.00000000)
(-0.04390436 -0.00001968 0.00000000)
(-0.04140514 -0.00004712 0.00000000)
(-0.03904576 -0.00003087 0.00000000)
(-0.03715020 -0.00003636 0.00000000)
(-0.03473422 -0.00003707 0.00000000)
(-0.03245080 -0.00003687 0.00000000)
(-0.02977019 -0.00003531 0.00000000)
(-0.02763886 -0.00003479 0.00000000)
(-0.02422860 -0.00005125 0.00000000)
(-0.02113800 -0.00004044 0.00000000)
(-0.01836516 -0.00004169 0.00000000)
(-0.01560852 -0.00004461 0.00000000)
(-0.01203183 -0.00005201 0.00000000)
(-0.00864212 -0.00004800 0.00000000)
(-0.00631895 -0.00002674 0.00000000)
(-0.00419995 -0.00002525 0.00000000)
(-0.00215986 -0.00003548 0.00000000)
(0.00020647 -0.00002707 0.00000000)
(0.00192662 -0.00002629 0.00000000)
(0.00421473 -0.00003184 0.00000000)
(0.00576880 -0.00002314 0.00000000)
(0.00786634 -0.00004130 0.00000000)
(0.01017093 -0.00002420 0.00000000)
(0.01191348 -0.00002774 0.00000000)
(0.01382992 -0.00003107 0.00000000)
(0.01558620 -0.00002540 0.00000000)
(0.01738218 -0.00003134 0.00000000)
(0.01897224 -0.00001805 0.00000000)
(0.01982870 -0.00001605 0.00000000)
(0.02115030 -0.00002123 0.00000000)
(0.02222205 -0.00001280 0.00000000)
(0.02303000 -0.00001376 0.00000000)
(0.02404562 -0.00001565 0.00000000)
(0.02525868 -0.00001643 0.00000000)
(0.02620365 -0.00001002 0.00000000)
(0.02686508 -0.00000719 0.00000000)
(0.02728228 -0.00000668 0.00000000)
(0.02797914 -0.00000910 0.00000000)
(0.02842124 -0.00000592 0.00000000)
(0.02908621 -0.00000953 0.00000000)
(0.02970275 -0.00000736 0.00000000)
(0.03013387 -0.00000587 0.00000000)
(0.03040970 -0.00000257 0.00000000)
(0.03073069 -0.00000519 0.00000000)
(0.03106466 -0.00000400 0.00000000)
(0.03124344 -0.00000244 0.00000000)
(0.03139012 0.00000087 0.00000000)
(0.03140177 -0.00000232 0.00000000)
(0.03143613 0.00000099 0.00000000)
(0.03135855 0.00000106 0.00000000)
(0.03121178 0.00000387 0.00000000)
(0.03094509 0.00000412 0.00000000)
(0.03063040 0.00000717 0.00000000)
(0.03005184 0.00000755 0.00000000)
(0.02942360 0.00001038 0.00000000)
(0.02867564 0.00001263 0.00000000)
(0.02775390 0.00001860 0.00000000)
(0.02660712 0.00001660 0.00000000)
(0.02531870 0.00002057 0.00000000)
(0.02383213 0.00002579 0.00000000)
(0.02205367 0.00002659 0.00000000)
(0.02026723 0.00003572 0.00000000)
(0.01795667 0.00004135 0.00000000)
(0.01527629 0.00004784 0.00000000)
(0.01220331 0.00004518 0.00000000)
(0.00893496 0.00005739 0.00000000)
(0.00492411 0.00005238 0.00000000)
(0.00038644 0.00009071 0.00000000)
(-0.00561260 -0.00110784 0.00000000)
(-0.00129934 -0.00006347 0.00000000)
(0.00249970 0.00084635 0.00000000)
(0.00300936 0.00152049 0.00000000)
(0.00912722 0.00476612 0.00000000)
(0.00323989 0.00174527 0.00000000)
(-0.00555018 -0.00491450 0.00000000)
(-0.00294130 -0.00129334 0.00000000)
(0.00256117 0.00103067 0.00000000)
(0.00595852 0.00690818 0.00000000)
(0.00178326 -0.00110713 0.00000000)
(-0.00487352 -0.00470210 0.00000000)
(0.00629613 0.00778896 0.00000000)
(0.00480002 0.00390357 0.00000000)
(-0.00711326 -0.00552867 0.00000000)
(-0.00946277 -0.00674217 0.00000000)
(-0.00805500 -0.00589954 0.00000000)
(-0.03717190 -0.01994796 0.00000000)
(-0.01050080 0.00626562 0.00000000)
(0.00821321 0.00098339 0.00000000)
(-0.00594398 0.00017977 0.00000000)
(-0.01124882 0.00072799 0.00000000)
(-0.01695908 -0.00004039 0.00000000)
(-0.02513354 0.00905686 0.00000000)
(-0.01743822 0.01364063 0.00000000)
(-0.03545962 0.02528008 0.00000000)
(-0.02727318 0.01929317 0.00000000)
(-0.01774995 0.01327694 0.00000000)
(-0.01395524 0.01281238 0.00000000)
(-0.01276036 0.01246439 0.00000000)
(-0.01303825 0.01037943 0.00000000)
(-0.01800599 0.01392036 0.00000000)
(-0.02476101 0.02227627 0.00000000)
(-0.03082572 0.02676720 0.00000000)
(-0.04291438 0.02939655 0.00000000)
(-0.05208169 0.04237734 0.00000000)
(-0.05996659 0.03647643 0.00000000)
(-0.06877780 0.03688901 0.00000000)
(-0.06927156 0.03082890 0.00000000)
(-0.06967054 0.02223975 0.00000000)
(-0.06935671 0.01519374 0.00000000)
(-0.06902116 0.00511328 0.00000000)
(-0.07934812 0.00164299 0.00000000)
(-0.09924754 0.00107606 0.00000000)
(-0.11291875 0.00063369 0.00000000)
(-0.12045018 0.00033802 0.00000000)
(-0.12476514 0.00027899 0.00000000)
(-0.12815164 0.00015927 0.00000000)
(-0.12830359 -0.00005346 0.00000000)
(-0.12488464 -0.00030367 0.00000000)
(-0.11917366 -0.00030158 0.00000000)
(-0.11524892 -0.00014111 0.00000000)
(-0.11099591 -0.00023933 0.00000000)
(-0.10531558 -0.00041226 0.00000000)
(-0.09908325 -0.00030197 0.00000000)
(-0.09315643 -0.00036073 0.00000000)
(-0.08591522 -0.00038996 0.00000000)
(-0.07971268 -0.00039534 0.00000000)
(-0.07186903 -0.00038904 0.00000000)
(-0.06567721 -0.00041132 0.00000000)
(-0.05695927 -0.00054311 0.00000000)
(-0.04900001 -0.00044767 0.00000000)
(-0.04140544 -0.00042701 0.00000000)
(-0.03404309 -0.00048020 0.00000000)
(-0.02488679 -0.00052930 0.00000000)
(-0.01610031 -0.00050275 0.00000000)
(-0.00975674 -0.00030108 0.00000000)
(-0.00405642 -0.00029283 0.00000000)
(0.00157938 -0.00036395 0.00000000)
(0.00757341 -0.00028436 0.00000000)
(0.01261377 -0.00030300 0.00000000)
(0.01866552 -0.00031378 0.00000000)
(0.02320663 -0.00026643 0.00000000)
(0.02892108 -0.00041823 0.00000000)
(0.03493869 -0.00027669 0.00000000)
(0.03984087 -0.00029113 0.00000000)
(0.04504896 -0.00030058 0.00000000)
(0.04984163 -0.00027553 0.00000000)
(0.05458533 -0.00029456 0.00000000)
(0.05881878 -0.00016868 0.00000000)
(0.06147147 -0.00017558 0.00000000)
(0.06508678 -0.00021610 0.00000000)
(0.06811846 -0.00012715 0.00000000)
(0.07067243 -0.00015534 0.00000000)
(0.07348333 -0.00017924 0.00000000)
(0.07674120 -0.00017782 0.00000000)
(0.07936928 -0.00011464 0.00000000)
(0.08123169 -0.00008576 0.00000000)
(0.08264412 -0.00008376 0.00000000)
(0.08457737 -0.00009425 0.00000000)
(0.08588852 -0.00008280 0.00000000)
(0.08784488 -0.00010897 0.00000000)
(0.08973311 -0.00009175 0.00000000)
(0.09107504 -0.00005926 0.00000000)
(0.09192887 -0.00004329 0.00000000)
(0.09295991 -0.00005325 0.00000000)
(0.09391501 -0.00005335 0.00000000)
(0.09459137 -0.00002466 0.00000000)
(0.09505127 -0.00000472 0.00000000)
(0.09521256 -0.00001481 0.00000000)
(0.09530761 -0.00000015 0.00000000)
(0.09523529 0.00001578 0.00000000)
(0.09505330 0.00002751 0.00000000)
(0.09443835 0.00004224 0.00000000)
(0.09369608 0.00005837 0.00000000)
(0.09224027 0.00009249 0.00000000)
(0.09071442 0.00010482 0.00000000)
(0.08871931 0.00012636 0.00000000)
(0.08629233 0.00015871 0.00000000)
(0.08344946 0.00018058 0.00000000)
(0.08004952 0.00021804 0.00000000)
(0.07608055 0.00024997 0.00000000)
(0.07151684 0.00028760 0.00000000)
(0.06634722 0.00031722 0.00000000)
(0.06016449 0.00039053 0.00000000)
(0.05288964 0.00044798 0.00000000)
(0.04460649 0.00049473 0.00000000)
(0.03529084 0.00054862 0.00000000)
(0.02462372 0.00067141 0.00000000)
(0.01201992 0.00085372 0.00000000)
(0.00506814 -0.00062395 0.00000000)
(0.01106282 0.00139614 0.00000000)
(0.02330876 0.00681337 0.00000000)
(0.03405640 0.01726456 0.00000000)
(0.04953407 0.02658521 0.00000000)
(0.04268751 0.02454780 0.00000000)
(0.03868050 0.02157592 0.00000000)
(0.03415015 0.02075681 0.00000000)
(0.01678310 0.01785729 0.00000000)
(0.02756248 0.02855076 0.00000000)
(0.02252850 0.01231719 0.00000000)
(0.01382314 0.00695581 0.00000000)
(0.01445394 0.02001905 0.00000000)
(0.03127180 0.04017717 0.00000000)
(0.03031287 0.01799449 0.00000000)
(0.09154146 0.06605454 0.00000000)
(0.12947758 0.09440045 0.00000000)
(-0.02689467 -0.02078194 0.00000000)
(0.02723999 0.01530724 0.00000000)
(0.03687294 0.00338838 0.00000000)
(0.00080717 0.00110913 0.00000000)
(-0.00098570 0.00139478 0.00000000)
(-0.01845406 -0.00033659 0.00000000)
(-0.03661536 0.01331809 0.00000000)
(-0.03585758 0.02292299 0.00000000)
(-0.04942884 0.03450533 0.00000000)
(-0.03960240 0.02790467 0.00000000)
(-0.02911808 0.02220970 0.00000000)
(-0.02199505 0.02083168 0.00000000)
(-0.02106492 0.02058122 0.00000000)
(-0.02614835 0.02099251 0.00000000)
(-0.03390619 0.02654431 0.00000000)
(-0.04243461 0.03659490 0.00000000)
(-0.05370393 0.04550076 0.00000000)
(-0.06733347 0.04969438 0.00000000)
(-0.07999652 0.05832388 0.00000000)
(-0.08862625 0.05481799 0.00000000)
(-0.09633447 0.05247036 0.00000000)
(-0.09879725 0.04275578 0.00000000)
(-0.10156370 0.03281221 0.00000000)
(-0.10196541 0.02109753 0.00000000)
(-0.10436768 0.00905370 0.00000000)
(-0.12405596 0.00388472 0.00000000)
(-0.14902319 0.00259233 0.00000000)
(-0.16469117 0.00146713 0.00000000)
(-0.17278225 0.00078049 0.00000000)
(-0.17741768 0.00058224 0.00000000)
(-0.17947955 0.00025705 0.00000000)
(-0.17797843 -0.00026122 0.00000000)
(-0.17238893 -0.00080902 0.00000000)
(-0.16387892 -0.00084920 0.00000000)
(-0.15733444 -0.00047810 0.00000000)
(-0.15106112 -0.00071600 0.00000000)
(-0.14204395 -0.00106029 0.00000000)
(-0.13316037 -0.00087157 0.00000000)
(-0.12446087 -0.00099445 0.00000000)
(-0.11461923 -0.00103355 0.00000000)
(-0.10515114 -0.00109827 0.00000000)
(-0.09455896 -0.00102650 0.00000000)
(-0.08504964 -0.00112612 0.00000000)
(-0.07258088 -0.00140535 0.00000000)
(-0.06118730 -0.00121503 0.00000000)
(-0.05039257 -0.00111068 0.00000000)
(-0.03985437 -0.00126834 0.00000000)
(-0.02713180 -0.00139430 0.00000000)
(-0.01528188 -0.00127875 0.00000000)
(-0.00602391 -0.00084432 0.00000000)
(0.00231439 -0.00081650 0.00000000)
(0.01067376 -0.00095255 0.00000000)
(0.01897379 -0.00076668 0.00000000)
(0.02656462 -0.00085814 0.00000000)
(0.03518090 -0.00082238 0.00000000)
(0.04221055 -0.00075599 0.00000000)
(0.05053196 -0.00106500 0.00000000)
(0.05895047 -0.00076720 0.00000000)
(0.06636636 -0.00079377 0.00000000)
(0.07407533 -0.00081214 0.00000000)
(0.08108915 -0.00073749 0.00000000)
(0.08802661 -0.00078190 0.00000000)
(0.09418651 -0.00047734 0.00000000)
(0.09861808 -0.00048598 0.00000000)
(0.10382810 -0.00057058 0.00000000)
(0.10845408 -0.00038216 0.00000000)
(0.11256669 -0.00044501 0.00000000)
(0.11721961 -0.00048602 0.00000000)
(0.12182626 -0.00048322 0.00000000)
(0.12574802 -0.00033307 0.00000000)
(0.12877546 -0.00025892 0.00000000)
(0.13138009 -0.00025437 0.00000000)
(0.13430032 -0.00025798 0.00000000)
(0.13682628 -0.00025608 0.00000000)
(0.13993231 -0.00030453 0.00000000)
(0.14271300 -0.00026063 0.00000000)
(0.14497448 -0.00017521 0.00000000)
(0.14658959 -0.00014269 0.00000000)
(0.14839976 -0.00016196 0.00000000)
(0.15009858 -0.00015543 0.00000000)
(0.15145591 -0.00009078 0.00000000)
(0.15236833 -0.00003371 0.00000000)
(0.15300269 -0.00005054 0.00000000)
(0.15343839 -0.00001178 0.00000000)
(0.15362284 0.00002397 0.00000000)
(0.15345883 0.00006265 0.00000000)
(0.15286136 0.00009195 0.00000000)
(0.15210660 0.00014486 0.00000000)
(0.15067073 0.00022698 0.00000000)
(0.14845584 0.00027045 0.00000000)
(0.14608025 0.00032260 0.00000000)
(0.14289362 0.00040396 0.00000000)
(0.13900858 0.00047117 0.00000000)
(0.13434889 0.00056730 0.00000000)
(0.12905863 0.00065044 0.00000000)
(0.12267809 0.00075477 0.00000000)
(0.11537745 0.00085735 0.00000000)
(0.10657729 0.00103635 0.00000000)
(0.09622291 0.00121525 0.00000000)
(0.08411492 0.00135103 0.00000000)
(0.07043171 0.00151653 0.00000000)
(0.05451013 0.00182353 0.00000000)
(0.03596788 0.00228694 0.00000000)
(0.02688907 0.00182406 0.00000000)
(0.03453145 0.00541863 0.00000000)
(0.05245152 0.01486615 0.00000000)
(0.07180893 0.03185841 0.00000000)
(0.08758623 0.04511730 0.00000000)
(0.09647539 0.05879318 0.00000000)
(0.11065479 0.07151922 0.00000000)
(0.10257048 0.07466408 0.00000000)
(0.09874645 0.08124023 0.00000000)
(0.11233100 0.08555214 0.00000000)
(0.11265866 0.07499453 0.00000000)
(0.10678353 0.07124914 0.00000000)
(0.09578295 0.08261931 0.00000000)
(0.06846739 0.07400091 0.00000000)
(0.11554491 0.08482004 0.00000000)
(0.23758564 0.16760351 0.00000000)
(0.30450154 0.21669176 0.00000000)
(0.13517231 0.05201220 0.00000000)
(0.18491755 0.05446597 0.00000000)
(0.10382118 0.01160294 0.00000000)
(0.02493097 0.00270840 0.00000000)
(0.02167253 0.00204641 0.00000000)
(-0.00625975 -0.00089438 0.00000000)
(-0.04192159 0.01585989 0.00000000)
(-0.05695656 0.02983100 0.00000000)
(-0.06009425 0.04158786 0.00000000)
(-0.04991351 0.03515127 0.00000000)
(-0.03911158 0.02961596 0.00000000)
(-0.03121325 0.02973727 0.00000000)
(-0.03124774 0.02892303 0.00000000)
(-0.03735288 0.03038551 0.00000000)
(-0.04709171 0.03793312 0.00000000)
(-0.05863801 0.04846002 0.00000000)
(-0.07292745 0.05986988 0.00000000)
(-0.08781509 0.06673154 0.00000000)
(-0.10087819 0.07345928 0.00000000)
(-0.11054094 0.07105564 0.00000000)
(-0.11893381 0.06422329 0.00000000)
(-0.12464715 0.05394678 0.00000000)
(-0.12711591 0.04106474 0.00000000)
(-0.12928206 0.02686678 0.00000000)
(-0.13558805 0.01311307 0.00000000)
(-0.15964796 0.00657676 0.00000000)
(-0.18523633 0.00426002 0.00000000)
(-0.20026464 0.00234304 0.00000000)
(-0.20753882 0.00121508 0.00000000)
(-0.21073581 0.00080039 0.00000000)
(-0.21132267 0.00024059 0.00000000)
(-0.20802525 -0.00064935 0.00000000)
(-0.20043107 -0.00149179 0.00000000)
(-0.19042639 -0.00161202 0.00000000)
(-0.18153279 -0.00100548 0.00000000)
(-0.17315723 -0.00141622 0.00000000)
(-0.16266551 -0.00189803 0.00000000)
(-0.15205572 -0.00167197 0.00000000)
(-0.14090770 -0.00185268 0.00000000)
(-0.12939767 -0.00187130 0.00000000)
(-0.11791482 -0.00206469 0.00000000)
(-0.10543382 -0.00189007 0.00000000)
(-0.09346917 -0.00213726 0.00000000)
(-0.07893255 -0.00252910 0.00000000)
(-0.06524433 -0.00224464 0.00000000)
(-0.05240844 -0.00202028 0.00000000)
(-0.03990092 -0.00230433 0.00000000)
(-0.02509170 -0.00251619 0.00000000)
(-0.01152819 -0.00226273 0.00000000)
(-0.00033707 -0.00161036 0.00000000)
(0.00994593 -0.00156075 0.00000000)
(0.02012739 -0.00172413 0.00000000)
(0.02983767 -0.00142137 0.00000000)
(0.03920101 -0.00163259 0.00000000)
(0.04951515 -0.00150533 0.00000000)
(0.05844117 -0.00144630 0.00000000)
(0.06848530 -0.00188413 0.00000000)
(0.07832586 -0.00144020 0.00000000)
(0.08756537 -0.00149434 0.00000000)
(0.09706909 -0.00149786 0.00000000)
(0.10552664 -0.00135972 0.00000000)
(0.11384863 -0.00142734 0.00000000)
(0.12135208 -0.00093351 0.00000000)
(0.12718086 -0.00093461 0.00000000)
(0.13360780 -0.00104624 0.00000000)
(0.13943992 -0.00077479 0.00000000)
(0.14517065 -0.00086184 0.00000000)
(0.15076328 -0.00092201 0.00000000)
(0.15654082 -0.00090222 0.00000000)
(0.16162205 -0.00066365 0.00000000)
(0.16563511 -0.00052227 0.00000000)
(0.16924620 -0.00052024 0.00000000)
(0.17296126 -0.00049559 0.00000000)
(0.17647003 -0.00052916 0.00000000)
(0.18037635 -0.00058420 0.00000000)
(0.18401434 -0.00050782 0.00000000)
(0.18705726 -0.00035843 0.00000000)
(0.18943656 -0.00031771 0.00000000)
(0.19197133 -0.00033264 0.00000000)
(0.19427129 -0.00031638 0.00000000)
(0.19634351 -0.00021297 0.00000000)
(0.19782846 -0.00010889 0.00000000)
(0.19903964 -0.00012459 0.00000000)
(0.19989161 -0.00005432 0.00000000)
(0.20049453 0.00000756 0.00000000)
(0.20076154 0.00008463 0.00000000)
(0.20055508 0.00012824 0.00000000)
(0.19993481 0.00023454 0.00000000)
(0.19854726 0.00037081 0.00000000)
(0.19666978 0.00046186 0.00000000)
(0.19402737 0.00056152 0.00000000)
(0.19070408 0.00070039 0.00000000)
(0.18657810 0.00083045 0.00000000)
(0.18149442 0.00099963 0.00000000)
(0.17551625 0.00115627 0.00000000)
(0.16842291 0.00135583 0.00000000)
(0.16010520 0.00156042 0.00000000)
(0.15001962 0.00188077 0.00000000)
(0.13793988 0.00222458 0.00000000)
(0.12366510 0.00252114 0.00000000)
(0.10726048 0.00283020 0.00000000)
(0.08811412 0.00340451 0.00000000)
(0.06579696 0.00420542 0.00000000)
(0.05434234 0.00468479 0.00000000)
(0.06140269 0.00966271 0.00000000)
(0.07997277 0.02167312 0.00000000)
(0.10119303 0.04064016 0.00000000)
(0.11936227 0.06198594 0.00000000)
(0.13813942 0.08234994 0.00000000)
(0.15705572 0.10433390 0.00000000)
(0.16947906 0.12816970 0.00000000)
(0.18992817 0.14386080 0.00000000)
(0.20882255 0.15614276 0.00000000)
(0.21244861 0.15340347 0.00000000)
(0.21933807 0.16125089 0.00000000)
(0.21870099 0.17965542 0.00000000)
(0.21429125 0.19123032 0.00000000)
(0.24258227 0.20637403 0.00000000)
(0.40418641 0.28457681 0.00000000)
(0.48919298 0.34780530 0.00000000)
(0.40570070 0.15464594 0.00000000)
(0.41751434 0.11268050 0.00000000)
(0.21127054 0.02581263 0.00000000)
(0.06771636 0.00516148 0.00000000)
(0.05959760 0.00310227 0.00000000)
(0.02073900 -0.00165831 0.00000000)
(-0.03416491 0.01470858 0.00000000)
(-0.06940833 0.03549864 0.00000000)
(-0.06916886 0.04755137 0.00000000)
(-0.06109518 0.04279732 0.00000000)
(-0.04808871 0.03693738 0.00000000)
(-0.04121497 0.03643018 0.00000000)
(-0.04150262 0.03563687 0.00000000)
(-0.04804641 0.03982307 0.00000000)
(-0.05966968 0.04901770 0.00000000)
(-0.07340056 0.06011298 0.00000000)
(-0.08967864 0.07259969 0.00000000)
(-0.10530436 0.08132383 0.00000000)
(-0.11858977 0.08567557 0.00000000)
(-0.12920427 0.08374865 0.00000000)
(-0.13559504 0.07394150 0.00000000)
(-0.14336239 0.06199155 0.00000000)
(-0.14723111 0.04746605 0.00000000)
(-0.15183395 0.03185142 0.00000000)
(-0.16173259 0.01693292 0.00000000)
(-0.18702992 0.00926985 0.00000000)
(-0.21120220 0.00587047 0.00000000)
(-0.22447258 0.00314363 0.00000000)
(-0.23028959 0.00155713 0.00000000)
(-0.23182709 0.00088131 0.00000000)
(-0.23077316 0.00008402 0.00000000)
(-0.22582763 -0.00120497 0.00000000)
(-0.21687886 -0.00231489 0.00000000)
(-0.20558311 -0.00253362 0.00000000)
(-0.19511332 -0.00170701 0.00000000)
(-0.18540016 -0.00227590 0.00000000)
(-0.17376353 -0.00287992 0.00000000)
(-0.16179058 -0.00265868 0.00000000)
(-0.14923320 -0.00286794 0.00000000)
(-0.13654831 -0.00283623 0.00000000)
(-0.12372549 -0.00321359 0.00000000)
(-0.11000777 -0.00292750 0.00000000)
(-0.09608408 -0.00336781 0.00000000)
(-0.08027432 -0.00383547 0.00000000)
(-0.06498834 -0.00345428 0.00000000)
(-0.05094658 -0.00310463 0.00000000)
(-0.03704244 -0.00352083 0.00000000)
(-0.02108854 -0.00380261 0.00000000)
(-0.00666373 -0.00338226 0.00000000)
(0.00595305 -0.00255354 0.00000000)
(0.01765786 -0.00248464 0.00000000)
(0.02905657 -0.00261839 0.00000000)
(0.03965140 -0.00220584 0.00000000)
(0.05027036 -0.00256338 0.00000000)
(0.06166762 -0.00234208 0.00000000)
(0.07203179 -0.00229520 0.00000000)
(0.08313083 -0.00281404 0.00000000)
(0.09396871 -0.00224920 0.00000000)
(0.10440496 -0.00235150 0.00000000)
(0.11510478 -0.00231152 0.00000000)
(0.12456907 -0.00210208 0.00000000)
(0.13389765 -0.00217307 0.00000000)
(0.14215351 -0.00151786 0.00000000)
(0.14915386 -0.00149712 0.00000000)
(0.15642888 -0.00161201 0.00000000)
(0.16318630 -0.00128404 0.00000000)
(0.16983042 -0.00138433 0.00000000)
(0.17639401 -0.00145556 0.00000000)
(0.18280081 -0.00140300 0.00000000)
(0.18865283 -0.00109802 0.00000000)
(0.19352268 -0.00086866 0.00000000)
(0.19794593 -0.00086871 0.00000000)
(0.20228308 -0.00080483 0.00000000)
(0.20649226 -0.00088479 0.00000000)
(0.21109121 -0.00093031 0.00000000)
(0.21528138 -0.00081812 0.00000000)
(0.21884547 -0.00060843 0.00000000)
(0.22195308 -0.00056755 0.00000000)
(0.22508243 -0.00055726 0.00000000)
(0.22782853 -0.00052746 0.00000000)
(0.23051086 -0.00039159 0.00000000)
(0.23260366 -0.00023703 0.00000000)
(0.23430926 -0.00024222 0.00000000)
(0.23572101 -0.00013660 0.00000000)
(0.23663025 -0.00004215 0.00000000)
(0.23722594 0.00007754 0.00000000)
(0.23736239 0.00013849 0.00000000)
(0.23699678 0.00030466 0.00000000)
(0.23612879 0.00049331 0.00000000)
(0.23448997 0.00064465 0.00000000)
(0.23213519 0.00080515 0.00000000)
(0.22897771 0.00100608 0.00000000)
(0.22496235 0.00121379 0.00000000)
(0.21993652 0.00146290 0.00000000)
(0.21389624 0.00170487 0.00000000)
(0.20673005 0.00201897 0.00000000)
(0.19811453 0.00234649 0.00000000)
(0.18762102 0.00283915 0.00000000)
(0.17485810 0.00337218 0.00000000)
(0.15969324 0.00388089 0.00000000)
(0.14193389 0.00437449 0.00000000)
(0.12115708 0.00525480 0.00000000)
(0.09693462 0.00642688 0.00000000)
(0.08319055 0.00774307 0.00000000)
(0.08790109 0.01384958 0.00000000)
(0.10508040 0.02781269 0.00000000)
(0.12604993 0.04849075 0.00000000)
(0.14531188 0.07301338 0.00000000)
(0.16554094 0.09952727 0.00000000)
(0.18859810 0.12830177 0.00000000)
(0.21157350 0.15692833 0.00000000)
(0.23937764 0.17762243 0.00000000)
(0.25985194 0.19359095 0.00000000)
(0.27871085 0.20440181 0.00000000)
(0.30005151 0.22232587 0.00000000)
(0.32074003 0.25887222 0.00000000)
(0.33611941 0.27652700 0.00000000)
(0.36913090 0.31701158 0.00000000)
(0.52217907 0.36552872 0.00000000)
(0.61917479 0.43010142 0.00000000)
(0.64244176 0.29373466 0.00000000)
(0.64045304 0.17136519 0.00000000)
(0.35450628 0.04756165 0.00000000)
(0.13308913 0.01021290 0.00000000)
(0.11162126 0.00495170 0.00000000)
(0.06082818 -0.00205989 0.00000000)
(-0.01439528 0.01051594 0.00000000)
(-0.07386436 0.03677113 0.00000000)
(-0.07870691 0.05374530 0.00000000)
(-0.07118510 0.04970067 0.00000000)
(-0.05661152 0.04408300 0.00000000)
(-0.05173730 0.04403368 0.00000000)
(-0.05170427 0.04338516 0.00000000)
(-0.05906565 0.04936896 0.00000000)
(-0.07193216 0.05963028 0.00000000)
(-0.08678558 0.07129636 0.00000000)
(-0.10359139 0.08406926 0.00000000)
(-0.11877171 0.09326233 0.00000000)
(-0.13116213 0.09546126 0.00000000)
(-0.14213528 0.09253999 0.00000000)
(-0.14908440 0.08193379 0.00000000)
(-0.15781047 0.06824605 0.00000000)
(-0.16301396 0.05264499 0.00000000)
(-0.17006575 0.03602778 0.00000000)
(-0.18280496 0.02060167 0.00000000)
(-0.20781600 0.01184837 0.00000000)
(-0.22945812 0.00734159 0.00000000)
(-0.24072355 0.00382286 0.00000000)
(-0.24484337 0.00177174 0.00000000)
(-0.24490047 0.00082542 0.00000000)
(-0.24222030 -0.00021467 0.00000000)
(-0.23590359 -0.00190548 0.00000000)
(-0.22585513 -0.00326208 0.00000000)
(-0.21385087 -0.00356926 0.00000000)
(-0.20221774 -0.00257199 0.00000000)
(-0.19138672 -0.00326072 0.00000000)
(-0.17903714 -0.00397638 0.00000000)
(-0.16612062 -0.00379303 0.00000000)
(-0.15247599 -0.00402345 0.00000000)
(-0.13895775 -0.00391961 0.00000000)
(-0.12531198 -0.00450008 0.00000000)
(-0.11064827 -0.00412830 0.00000000)
(-0.09539505 -0.00476767 0.00000000)
(-0.07875841 -0.00528274 0.00000000)
(-0.06240364 -0.00479849 0.00000000)
(-0.04755420 -0.00434144 0.00000000)
(-0.03267821 -0.00487737 0.00000000)
(-0.01611608 -0.00520232 0.00000000)
(-0.00127536 -0.00460680 0.00000000)
(0.01244366 -0.00364603 0.00000000)
(0.02516052 -0.00355478 0.00000000)
(0.03739817 -0.00360422 0.00000000)
(0.04857698 -0.00309986 0.00000000)
(0.06011273 -0.00362045 0.00000000)
(0.07222341 -0.00331561 0.00000000)
(0.08367383 -0.00327356 0.00000000)
(0.09546469 -0.00382523 0.00000000)
(0.10696382 -0.00317636 0.00000000)
(0.11825084 -0.00333481 0.00000000)
(0.12966786 -0.00322991 0.00000000)
(0.13986904 -0.00294825 0.00000000)
(0.14969291 -0.00298338 0.00000000)
(0.15853573 -0.00221037 0.00000000)
(0.16644111 -0.00215659 0.00000000)
(0.17430523 -0.00225327 0.00000000)
(0.18163873 -0.00190035 0.00000000)
(0.18900056 -0.00198964 0.00000000)
(0.19612573 -0.00206763 0.00000000)
(0.20307430 -0.00196353 0.00000000)
(0.20954942 -0.00161498 0.00000000)
(0.21501169 -0.00128774 0.00000000)
(0.22010814 -0.00128667 0.00000000)
(0.22480950 -0.00118493 0.00000000)
(0.22963348 -0.00130648 0.00000000)
(0.23467203 -0.00133569 0.00000000)
(0.23925477 -0.00117605 0.00000000)
(0.24322008 -0.00092099 0.00000000)
(0.24691327 -0.00087898 0.00000000)
(0.25040033 -0.00082511 0.00000000)
(0.25351669 -0.00078110 0.00000000)
(0.25660162 -0.00062431 0.00000000)
(0.25917606 -0.00042017 0.00000000)
(0.26137253 -0.00040182 0.00000000)
(0.26314206 -0.00025889 0.00000000)
(0.26448123 -0.00012618 0.00000000)
(0.26537492 0.00003194 0.00000000)
(0.26591989 0.00012175 0.00000000)
(0.26591116 0.00034627 0.00000000)
(0.26533317 0.00058290 0.00000000)
(0.26412438 0.00080387 0.00000000)
(0.26209503 0.00103550 0.00000000)
(0.25925955 0.00130317 0.00000000)
(0.25553447 0.00159755 0.00000000)
(0.25077968 0.00192634 0.00000000)
(0.24503337 0.00226901 0.00000000)
(0.23800510 0.00270218 0.00000000)
(0.22953131 0.00316679 0.00000000)
(0.21914465 0.00385081 0.00000000)
(0.20637959 0.00459588 0.00000000)
(0.19106726 0.00534253 0.00000000)
(0.17300161 0.00606416 0.00000000)
(0.15163853 0.00726031 0.00000000)
(0.12682295 0.00884881 0.00000000)
(0.11114307 0.01087311 0.00000000)
(0.11289226 0.01785329 0.00000000)
(0.12733478 0.03308412 0.00000000)
(0.14675129 0.05499887 0.00000000)
(0.16502852 0.08149394 0.00000000)
(0.19011213 0.11305151 0.00000000)
(0.21553679 0.14389735 0.00000000)
(0.24164522 0.17213636 0.00000000)
(0.27149282 0.19913590 0.00000000)
(0.29246535 0.21950099 0.00000000)
(0.31592948 0.23872371 0.00000000)
(0.34257598 0.26217288 0.00000000)
(0.36977086 0.29559677 0.00000000)
(0.42652306 0.34598338 0.00000000)
(0.47910189 0.41107034 0.00000000)
(0.59196415 0.41278102 0.00000000)
(0.69566242 0.47312610 0.00000000)
(0.85279852 0.38978066 0.00000000)
(0.83844172 0.23060763 0.00000000)
(0.51512239 0.07573076 0.00000000)
(0.21871435 0.01718632 0.00000000)
(0.17770615 0.00754646 0.00000000)
(0.11120253 -0.00231383 0.00000000)
(0.01574770 0.00783363 0.00000000)
(-0.07074345 0.03568699 0.00000000)
(-0.08542700 0.05827580 0.00000000)
(-0.08070602 0.05625064 0.00000000)
(-0.06736487 0.05262295 0.00000000)
(-0.06178281 0.05117832 0.00000000)
(-0.06231187 0.05163672 0.00000000)
(-0.06968255 0.05842206 0.00000000)
(-0.08262892 0.06912502 0.00000000)
(-0.09829815 0.08134545 0.00000000)
(-0.11488266 0.09377285 0.00000000)
(-0.12953096 0.10228111 0.00000000)
(-0.14140232 0.10311155 0.00000000)
(-0.15204466 0.09948891 0.00000000)
(-0.15953833 0.08824129 0.00000000)
(-0.16892509 0.07334733 0.00000000)
(-0.17569961 0.05700232 0.00000000)
(-0.18465865 0.03977707 0.00000000)
(-0.19930415 0.02386796 0.00000000)
(-0.22305128 0.01425241 0.00000000)
(-0.24207361 0.00864503 0.00000000)
(-0.25127374 0.00435872 0.00000000)
(-0.25371435 0.00185346 0.00000000)
(-0.25247367 0.00064168 0.00000000)
(-0.24838037 -0.00065674 0.00000000)
(-0.24088046 -0.00273423 0.00000000)
(-0.23006376 -0.00432517 0.00000000)
(-0.21761012 -0.00469130 0.00000000)
(-0.20513971 -0.00359299 0.00000000)
(-0.19342693 -0.00434710 0.00000000)
(-0.18066852 -0.00516017 0.00000000)
(-0.16701123 -0.00504755 0.00000000)
(-0.15264069 -0.00530485 0.00000000)
(-0.13851252 -0.00511657 0.00000000)
(-0.12426490 -0.00588408 0.00000000)
(-0.10898697 -0.00547462 0.00000000)
(-0.09268254 -0.00629205 0.00000000)
(-0.07554372 -0.00683550 0.00000000)
(-0.05849446 -0.00624516 0.00000000)
(-0.04306901 -0.00569887 0.00000000)
(-0.02747360 -0.00635579 0.00000000)
(-0.01063520 -0.00668099 0.00000000)
(0.00442277 -0.00591923 0.00000000)
(0.01893444 -0.00486664 0.00000000)
(0.03239887 -0.00473880 0.00000000)
(0.04517489 -0.00466375 0.00000000)
(0.05679454 -0.00409049 0.00000000)
(0.06897548 -0.00478106 0.00000000)
(0.08161525 -0.00440352 0.00000000)
(0.09384792 -0.00435986 0.00000000)
(0.10613623 -0.00490610 0.00000000)
(0.11811690 -0.00420378 0.00000000)
(0.12995699 -0.00442059 0.00000000)
(0.14185813 -0.00422959 0.00000000)
(0.15253921 -0.00388804 0.00000000)
(0.16269816 -0.00384066 0.00000000)
(0.17185120 -0.00298737 0.00000000)
(0.18052919 -0.00290095 0.00000000)
(0.18882231 -0.00295853 0.00000000)
(0.19661080 -0.00260104 0.00000000)
(0.20444563 -0.00265884 0.00000000)
(0.21193877 -0.00273938 0.00000000)
(0.21921975 -0.00257211 0.00000000)
(0.22612592 -0.00219970 0.00000000)
(0.23204544 -0.00177253 0.00000000)
(0.23763217 -0.00176309 0.00000000)
(0.24269810 -0.00163082 0.00000000)
(0.24794384 -0.00178163 0.00000000)
(0.25327678 -0.00179144 0.00000000)
(0.25808704 -0.00156909 0.00000000)
(0.26237896 -0.00129030 0.00000000)
(0.26649113 -0.00123599 0.00000000)
(0.27023741 -0.00112914 0.00000000)
(0.27367401 -0.00107553 0.00000000)
(0.27708925 -0.00090639 0.00000000)
(0.28006616 -0.00065327 0.00000000)
(0.28264187 -0.00060094 0.00000000)
(0.28476709 -0.00041710 0.00000000)
(0.28637534 -0.00024029 0.00000000)
(0.28760314 -0.00005175 0.00000000)
(0.28837078 0.00008156 0.00000000)
(0.28866353 0.00035877 0.00000000)
(0.28849504 0.00064306 0.00000000)
(0.28768163 0.00093196 0.00000000)
(0.28594282 0.00123991 0.00000000)
(0.28348117 0.00158234 0.00000000)
(0.28008555 0.00196564 0.00000000)
(0.27570565 0.00237532 0.00000000)
(0.27030644 0.00282896 0.00000000)
(0.26363132 0.00338676 0.00000000)
(0.25547298 0.00399232 0.00000000)
(0.24544187 0.00487942 0.00000000)
(0.23301748 0.00584915 0.00000000)
(0.21801525 0.00684795 0.00000000)