1 	0.609998707734988 	-6.93889390390723e-18 	0.0793546532288486 	8.10975928992413e-08 	2469.78176327948 	7.66262994962398e-10 	1.8177699731239e-38
1 	0.615677669341748 	-6.93889390390723e-18 	0.0793349127687972 	1.14496060626469e-06 	579.595258197238 	2.25833518935265e-08 	0
1 	0.621563396586334 	-1.38777878078145e-17 	0.0793136182875778 	6.87262184107836e-06 	161.838166330687 	2.68799722592399e-07 	0
1 	0.627663371400796 	-6.93889390390723e-18 	0.0792924074069388 	2.44187980337583e-05 	70.591152270539 	1.63350205572597e-06 	0
1 	0.633985343163336 	0 	0.0792705067344439 	6.38301273732292e-05 	38.1678810502759 	6.26418689208344e-06 	0
1 	0.640537338029282 	3.46944695195361e-18 	0.0792475367531754 	0.000136943821942025 	23.3684989104649 	1.70937387760721e-05 	0
1 	0.647327668572245 	6.93889390390723e-18 	0.0792233830183277 	0.000254678993500572 	15.4943787364739 	3.47387624551237e-05 	0
1 	0.65436494374482 	1.04083408558608e-17 	0.0791980653809508 	0.000422350914130872 	10.8584239764102 	5.27886472693488e-05 	0
1 	0.661658079168369 	1.04083408558608e-17 	0.0791718455618778 	0.000635803939173874 	7.94638131546783 	5.95694436569935e-05 	0
1 	0.66921630776171 	3.46944695195361e-18 	0.0791452636790607 	0.000882858304939069 	6.04842150402783 	4.99263627002877e-05 	0
1 	0.677049190718746 	0 	0.0791189996094005 	0.00115070303154195 	4.78511126976632 	3.09201681908948e-05 	0
1 	0.685166628845283 	3.46944695195361e-18 	0.079093675493006 	0.00143052675642155 	3.93008554531802 	1.31536934566518e-05 	0
1 	0.693578874265574 	1.04083408558608e-17 	0.0790697483517911 	0.00171827996106009 	3.34168545226154 	2.88109078691518e-06 	0
1 	0.702296542509335 	1.04083408558608e-17 	0.0790475331141906 	0.00201345098285206 	2.93121483639526 	1.89309725666673e-06 	0
1 	0.711330624990233 	0 	0.0790273023016681 	0.00231782615233228 	2.64387498142837 	1.01248197201392e-05 	0
1 	0.720692501887127 	-1.04083408558608e-17 	0.0790093901685675 	0.00263481965847864 	2.44638979260381 	2.74476492433468e-05 	0
1 	0.730393955439554 	-1.38777878078145e-17 	0.0789942758240158 	0.00296931231179877 	2.31932427102323 	5.44918175342256e-05 	0
1 	0.740447183669264 	-2.08166817117217e-17 	0.078982647107465 	0.00332791103356999 	2.25269181658923 	9.31330200782916e-05 	0
1 	0.75086481453986 	-2.77555756156289e-17 	0.0789754334148868 	0.00371960645527388 	2.24383604035832 	0.000147113727420385 	0
1 	0.761659920566846 	-2.77555756156289e-17 	0.0789737149358635 	0.00415690859506126 	2.29698897046779 	0.000223108160659198 	0
1 	0.772846033890729 	-2.77555756156289e-17 	0.0789783838957347 	0.00465719808569667 	2.42357063607415 	0.0003321446586026 	0
1 	0.784437161826055 	-3.12250225675825e-17 	0.0789899911515065 	0.00523884045313836 	2.63451808958885 	0.000490405049880644 	0
1 	0.796447802899618 	-3.81639164714898e-17 	0.0790095222079508 	0.00591538687696388 	2.9169418337804 	0.000721468605490379 	0
1 	0.808892963391327 	-4.16333634234434e-17 	0.0790386798696833 	0.00671030086185011 	3.25231068815411 	0.00105807903268435 	0
1 	0.821788174391592 	-4.16333634234434e-17 	0.0790800193712118 	0.00766218905754342 	3.64373443313667 	0.00154074562021041 	0
1 	0.835149509389415 	-3.12250225675825e-17 	0.0791400075693785 	0.00881366908853646 	4.09507250603065 	0.00222264663490753 	0
1 	0.848993602405718 	-2.77555756156289e-17 	0.0792339347128208 	0.0102095624694471 	4.61023207716973 	0.0032003278034898 	0
1 	0.863337666686782 	-3.12250225675825e-17 	0.0794006308595648 	0.0118809039534905 	5.19244683917901 	0.00468238786828956 	0
1 	0.878199513973139 	-2.42861286636753e-17 	0.0796531739731441 	0.0137994671731495 	5.84603097895993 	0.00711575449476123 	0
1 	0.893597574359564 	-2.42861286636753e-17 	0.0799053882840769 	0.0159351488210289 	6.58399700467072 	0.0107573733764557 	0
1 	0.909550916762347 	-3.12250225675825e-17 	0.0801037051233053 	0.0182555245012384 	7.4135642476231 	0.01562460754828 	0
1 	0.926079270010412 	-3.33392168039293e-17 	0.0803268663253408 	0.02063480126303 	8.30257373271749 	0.0218097318486775 	0
1 	0.943203044577384 	-3.19297539796981e-17 	0.0806487031984327 	0.0227996170436301 	9.11096841570878 	0.0283640703820245 	0
1 	0.96094335497223 	-3.51281503885303e-17 	0.0810660772118157 	0.0245260840993407 	9.66788325190307 	0.0338361749834497 	0
1 	0.979322042806652 	-3.00324001778485e-17 	0.0815436080599446 	0.0257270233155983 	9.88176625354315 	0.0368247460201675 	0
1 	0.998361700558027 	-2.03830008427275e-17 	0.0820373949302865 	0.0264267067465947 	9.71898724853956 	0.0365261514869422 	0
1 	1.01808569604737 	-2.12503625807159e-17 	0.082495477285505 	0.0267346091578041 	9.19902683652702 	0.0331544277134656 	0
1 	1.03851819765243 	-1.60461921527855e-17 	0.0828890469714458 	0.0268019979997723 	8.38286529352617 	0.0276844929618895 	0
1 	1.05968420027697 	-1.04083408558608e-17 	0.083216678538308 	0.0267878328491189 	7.36767253051674 	0.0216938738691338 	0
1 	1.08160955209792 	-9.54097911787244e-18 	0.0834557657173216 	0.0268090213867909 	6.27235268968617 	0.0159587015610281 	0
1 	1.10432098211309 	-6.93889390390723e-18 	0.0836037580947544 	0.0269408027741328 	5.20498352435313 	0.0113306053762741 	0
1 	1.12784612851327 	-6.93889390390723e-18 	0.0836717722197353 	0.0272053840294426 	4.24574621929746 	0.00802101772659672 	0
1 	1.15221356790332 	-7.80625564189563e-18 	0.083654811612166 	0.0275831559010162 	3.44930111116897 	0.00588149279161498 	0
1 	1.17745284539835 	-1.38777878078145e-17 	0.0835642913154827 	0.0280297154702053 	2.85908065526568 	0.00461442607524117 	0
1 	1.20359450562215 	-1.64798730217797e-17 	0.0834381421022441 	0.0284998940019513 	2.46851377377752 	0.00393468778082841 	0
1 	1.23067012463664 	-9.54097911787244e-18 	0.0833315213247716 	0.0289602877752963 	2.22191064586736 	0.00362339141051628 	0
1 	1.25871234283237 	-1.73472347597681e-18 	0.083283779328757 	0.0293849121068317 	2.06258702513075 	0.00351362673738519 	0
1 	1.28775489881211 	4.33680868994202e-18 	0.0833061721946445 	0.0297506906112595 	1.95084448461567 	0.0034890944117668 	0
1 	1.31783266430119 	5.20417042793042e-18 	0.0833945581893992 	0.0300363862851812 	1.86241080643915 	0.00347971416374973 	0
1 	1.34898168012017 	5.20417042793042e-18 	0.0835415170748549 	0.0302232489425216 	1.7839407207038 	0.00345139857596914 	0
1 	1.38123919325783 	6.93889390390723e-18 	0.083741723754938 	0.0302958528939476 	1.70928045572399 	0.00339381595608312 	0
1 	1.41464369508463 	8.67361737988404e-18 	0.0839937621464967 	0.0302424373974042 	1.6364744613192 	0.00330875264850891 	0
1 	1.44923496074941 	5.20417042793042e-18 	0.0843001151761735 	0.0300547497711753 	1.56543524160266 	0.00320096473553673 	0
1 	1.48505408980478 	-3.46944695195361e-18 	0.0846658449691929 	0.0297277359825237 	1.49642920852745 	0.0030730520788483 	0
1 	1.52214354810991 	1.73472347597681e-18 	0.0850967137655627 	0.0292594084602897 	1.42940255739509 	0.00292445886427817 	0
1 	1.56054721106232 	3.46944695195361e-18 	0.0855976178452661 	0.0286509920206435 	1.36393037463784 	0.00275315403875196 	0
1 	1.60031040821395 	-1.73472347597681e-18 	0.086171799522294 	0.0279072174145166 	1.29946274969594 	0.00255801366568394 	0
1 	1.64147996933068 	0 	0.0868207595953177 	0.0270365326545913 	1.23559477356803 	0.00234044937307666 	0
1 	1.68410427195819 	-6.93889390390723e-18 	0.0875445055456102 	0.0260510426058825 	1.17221836480137 	0.00210477705143106 	0
1 	1.72823329056171 	-2.08166817117217e-17 	0.0883418260160309 	0.0249660908233634 	1.10953357892587 	0.00185759189159125 	0
1 	1.77391864731173 	-3.12250225675825e-17 	0.0892104534256717 	0.0237995388433688 	1.04796849047885 	0.00160673777667469 	0
1 	1.82121366459262 	-3.81639164714898e-17 	0.0901468623835628 	0.0225712346486058 	0.988145158105672 	0.00136029999645252 	0
1 	1.8701734193166 	-4.85722573273506e-17 	0.091145535275002 	0.0213029934720667 	0.931024944077764 	0.00112559695321134 	0
1 	1.92085479913089 	-5.55111512312578e-17 	0.0921983224040759 	0.0200148390019017 	0.877510358943014 	0.000908833134459569 	0
1 	1.97331656061211 	-6.59194920871187e-17 	0.0932680477547776 	0.0187559105785522 	0.828968276541324 	0.000718762410527398 	0
1 	2.02025965173185 	-7.28583859910259e-17 	0.0942586663844676 	0.017645031038515 	0.788997558533432 	0.000567790510335141 	0
1 	2.06006301192217 	-6.93889390390723e-17 	0.0951244225923075 	0.0167147861427053 	0.757661717283092 	0.000454212128155566 	0
1 	2.09845978584128 	-7.28583859910259e-17 	0.0959226241317879 	0.0158936884739355 	0.731888743899408 	0.000363614258966364 	0
1 	2.13549967996946 	-7.63278329429795e-17 	0.0966844851095214 	0.0151441803133934 	0.710221652040813 	0.0002889269825961 	0
1 	2.17123064424048 	-7.63278329429795e-17 	0.0974088884558011 	0.0144580235183786 	0.692283240037943 	0.000227686833094275 	0
1 	2.20569893411516 	-7.63278329429795e-17 	0.098095689634848 	0.0138277116547491 	0.677760404851952 	0.000177561388320213 	0
1 	2.23894917046123 	-7.97972798949331e-17 	0.0987455036264054 	0.0132466540661906 	0.666399159345815 	0.000136581661634138 	0
1 	2.27102439731726 	-8.67361737988404e-17 	0.0993592506384772 	0.0127092192535177 	0.658000329448586 	0.000103128780855726 	0
1 	2.30196613761522 	-9.0205620750794e-17 	0.0999380384078372 	0.0122106751285189 	0.652415977348149 	7.59050764025085e-05 	0
1 	2.33181444693392 	-9.0205620750794e-17 	0.100483112654529 	0.0117470894418473 	0.649546324319555 	5.3897206004825e-05 	0
1 	2.3606079653529 	-9.0205620750794e-17 	0.100995809109842 	0.0113152237111192 	0.649337193035487 	3.63371596230496e-05 	0
1 	2.38838396747391 	-8.67361737988404e-17 	0.101477514221567 	0.0109124322108913 	0.651778032823859 	2.2665875854776e-05 	0
1 	2.41517841067461 	-7.97972798949331e-17 	0.101929635852068 	0.0105365714889361 	0.656900574079785 	1.25019341514942e-05 	0
1 	2.44102598165722 	-7.63278329429795e-17 	0.102353581410872 	0.0101859222079656 	0.664778123901069 	5.61606719488819e-06 	0
1 	2.46596014135208 	-7.63278329429795e-17 	0.102750741485047 	0.00985912305287302 	0.675525474881883 	1.91130537667094e-06 	0
1 	2.49001316823444 	-7.28583859910259e-17 	0.103122477742808 	0.00955511535211724 	0.689299355562085 	1.40808244421855e-06 	0
1 	2.51321620011054 	-6.93889390390723e-17 	0.103470114211793 	0.00927309652345655 	0.706299303923252 	4.23338400702621e-06 	0
1 	2.535599274427 	-6.93889390390723e-17 	0.103794931235794 	0.00901248021868256 	0.72676879315513 	1.06128819005146e-05 	0
1 	2.55719136715571 	-6.24500451351651e-17 	0.104098161570128 	0.00877286096803408 	0.750996380886048 	2.08648932729678e-05 	0
1 	2.57802043030466 	-5.55111512312578e-17 	0.10438098819339 	0.00855398114311185 	0.779316590684523 	3.53949005185515e-05 	0
1 	2.59811342810315 	-5.55111512312578e-17 	0.10464454349813 	0.00835569814695185 	0.812110173596008 	5.46892680011224e-05 	0
1 	2.61749637190832 	-5.55111512312578e-17 	0.104889909584215 	0.00817794991475744 	0.849803349613115 	7.93067264192017e-05 	0
1 	2.63619435387806 	-5.55111512312578e-17 	0.105118119426572 	0.00802071714155884 	0.892865613696162 	0.000109866214007628 	0
1 	2.65423157945406 	-5.20417042793042e-17 	0.105330158663625 	0.00788398324701599 	0.941805728137154 	0.000147029880844742 	0
1 	2.67163139869691 	-4.85722573273506e-17 	0.105526967763265 	0.00776768936041375 	0.99716565080838 	0.00019148050467427 	0
1 	2.68841633651388 	-4.85722573273506e-17 	0.105709444537934 	0.00767167759775951 	1.05951242869752 	0.000243893289174674 	0
1 	2.70460812181851 	-5.20417042793042e-17 	0.105878446832094 	0.00759564169879806 	1.12942847160056 	0.00030490339888123 	0
1 	2.72022771565972 	-5.55111512312578e-17 	0.106034795042382 	0.00753907870496248 	1.20750113129271 	0.000375071614782299 	0
1 	2.73529533835695 	-5.55111512312578e-17 	0.106179274375907 	0.00750124435916173 	1.2943131687263 	0.000454852137080174 	0
1 	2.74983049567625 	-4.85722573273506e-17 	0.106312636780617 	0.00748111991985122 	1.39043632914135 	0.000544567690254519 	0
1 	2.76385200408157 	-4.5102810375397e-17 	0.106435602476317 	0.00747739540760606 	1.49643076871513 	0.000644397635609964 	0
1 	2.77737801509344 	-4.85722573273506e-17 	0.106548861068202 	0.00748847293754424 	1.61285337676122 	0.000754384551401526 	0
1 	2.79042603878708 	-4.85722573273506e-17 	0.106653072210584 	0.00751249179940926 	1.7402780236619 	0.000874463429358767 	0
1 	2.80301296646003 	-5.20417042793042e-17 	0.106748865853637 	0.00754737676558284 	1.87933040500223 	0.00100451583138423 	0
1 	2.81515509249872 	-5.20417042793042e-17 	0.106836842195203 	0.0075909070413097 	2.03073954056273 	0.00114444923147933 	0
1 	2.82686813547237 	-4.85722573273506e-17 	0.106917571367275 	0.00764079716354872 	2.19540737297868 	0.00129429961114871 	0
1 	2.83816725848142 	-4.5102810375397e-17 	0.106991592830774 	0.00769478258376036 	2.37449753028299 	0.00145435436301569 	0
1 	2.84906708878691 	-3.46944695195361e-17 	0.107059414445662 	0.0077507032367712 	2.56954438138362 	0.00162529228754593 	0
0.999999999999999 	2.85958173674616 	-2.77555756156289e-17 	0.107121511281924 	0.00780657852334989 	2.7825842564521 	0.00180833848107449 	0
1 	2.86972481407933 	-2.42861286636753e-17 	0.107178324379818 	0.00786066725790587 	3.01631232391908 	0.00200543455030411 	0
1 	2.87950945149043 	-2.08166817117217e-17 	0.107230259433108 	0.00791150624151096 	3.27427126847551 	0.0022194277816913 	0
1 	2.88894831566566 	-2.42861286636753e-17 	0.107277685297082 	0.00795792561095479 	3.56108159540455 	0.00245428628321743 	0
1 	2.89805362567106 	-2.77555756156289e-17 	0.10732093250954 	0.00799904069401292 	3.88272816407366 	0.00271535021951821 	0
1 	2.90683716877067 	-2.77555756156289e-17 	0.107360292059254 	0.0080342188999417 	4.24692378449066 	0.00300963174422986 	0
1 	2.9153103156857 	-2.77555756156289e-17 	0.107396014634484 	0.00806301972318142 	4.6635789021872 	0.00334617647125364 	0
1 	2.92348403531448 	-2.77555756156289e-17 	0.107428311018565 	0.00808510458484975 	5.14541744725471 	0.00373649484655651 	0
1 	2.9313689089323 	-2.42861286636753e-17 	0.107457354348725 	0.00810011030091879 	5.70879465361045 	0.00419505956066846 	0
1 	2.93897514388925 	-2.42861286636753e-17 	0.107483280518587 	0.00810747637525293 	6.37479637163204 	0.00473984079233789 	0
1 	2.94631258682425 	-2.08166817117217e-17 	0.10750617683857 	0.0081062135415227 	7.17074073925008 	0.00539281758422046 	0
1 	2.95339073641193 	-1.04083408558608e-17 	0.107526091595995 	0.00809460117101496 	8.13227174414795 	0.00618649844184572 	0
1 	2.96021875565915 	-6.93889390390723e-18 	0.107543266304269 	0.00806946670535602 	9.30704099589675 	0.00716738563366488 	0
1 	2.96680548376697 	-1.04083408558608e-17 	0.107558204567971 	0.00802464067283409 	10.7608788214842 	0.00837961726079916 	0
1 	2.97315944757337 	-1.38777878078145e-17 	0.107570911805724 	0.00794925269958065 	12.5818789105165 	0.00987119473287318 	0
1 	2.97928887259171 	-1.38777878078145e-17 	0.107580832270974 	0.0078256468828179 	14.8790504764554 	0.011671583961688 	0
1 	2.98520169365902 	-1.38777878078145e-17 	0.107587713893983 	0.00762722863689965 	17.7843249684816 	0.0137589232447564 	0
1 	2.99090556520806 	-1.38777878078145e-17 	0.107591756773333 	0.00731700080079479 	21.4669807331734 	0.016035544920364 	0
1 	2.99640787117633 	-1.38777878078145e-17 	0.10759336522375 	0.00684734908757336 	26.1661701402606 	0.0182755972743989 	0
1 	3.00171573456492 	-1.38777878078145e-17 	0.107593039424124 	0.00616340179566126 	32.2652789943149 	0.0200420468924936 	0
1 	3.00683602665962 	-1.38777878078145e-17 	0.107591326820323 	0.00521510767434239 	40.4951058284782 	0.0206119870183369 	0
1 	3.01177537592612 	-1.04083408558608e-17 	0.107588827516025 	0.0039832161098181 	52.5563674355476 	0.0186160213301447 	0
1 	3.01654017659085 	-6.93889390390723e-18 	0.107586217141518 	0.00256802547765871 	73.2885484316975 	0.0130157172263424 	0
1 	3.02113659691864 	-6.93889390390723e-18 	0.107584016787659 	0.0012835311876111 	119.69835172085 	0.00616407301304267 	0
1 	3.02557058719784 	-1.04083408558608e-17 	0.107582236060467 	0.000453283022565792 	270.13606473077 	0.00172398301005935 	0
1 	3.02984788744324 	-1.04083408558608e-17 	0.107580583260168 	0.000100305713628613 	1163.67218953109 	0.00023477005630175 	0
