1 	0.609998707734988 	-6.93889390390723e-18 	-0.00490476475703688 	0.00316202538431227 	-3.52893941914187e-19
1 	0.615677669341748 	-6.93889390390723e-18 	-0.0144213596189159 	0.00936635869506743 	-3.91936008048958e-18
1 	0.621563396586334 	-1.38777878078145e-17 	-0.0237784634807087 	0.0153722479357492 	3.15866564735862e-18
1 	0.627663371400796 	-6.93889390390723e-18 	-0.0329251222688866 	0.0211671589229622 	5.34917664409095e-19
1 	0.633985343163336 	0 	-0.0417747304574451 	0.0267201403310518 	5.34156965126158e-19
1 	0.640537338029282 	3.46944695195361e-18 	-0.0501864738739873 	0.0319556287557294 	1.64002523964261e-19
1 	0.647327668572245 	6.93889390390723e-18 	-0.0579208007711891 	0.0367350020855143 	3.31477829929451e-18
1 	0.65436494374482 	1.04083408558608e-17 	-0.0646451131766457 	0.0408641750273767 	-3.64395578463974e-18
1 	0.661658079168369 	1.04083408558608e-17 	-0.0700467455084954 	0.0441646698654707 	-2.80446223098372e-19
1 	0.66921630776171 	3.46944695195361e-18 	-0.073999543400058 	0.0465754274571293 	8.15346784897305e-20
1 	0.677049190718746 	0 	-0.0766122927609159 	0.0481792508819857 	9.66849965950349e-20
1 	0.685166628845283 	3.46944695195361e-18 	-0.0781233417032755 	0.0491351888788586 	-9.91190286417759e-20
1 	0.693578874265574 	1.04083408558608e-17 	-0.078776685792342 	0.0496022291492203 	-1.4074444461143e-18
1 	0.702296542509335 	1.04083408558608e-17 	-0.0787622478307547 	0.0497043420804969 	1.20601759541987e-18
1 	0.711330624990233 	0 	-0.0782070949892121 	0.0495272356639937 	-1.62063363785621e-20
1 	0.720692501887127 	-1.04083408558608e-17 	-0.0771850294518101 	0.0491261989178965 	-9.08056721780575e-19
1 	0.730393955439554 	-1.38777878078145e-17 	-0.0757271282764444 	0.0485344301071943 	8.36425712688021e-19
1 	0.740447183669264 	-2.08166817117217e-17 	-0.0738277274413587 	0.0477688825804347 	2.1309208422688e-20
1 	0.75086481453986 	-2.77555756156289e-17 	-0.0714447047813365 	0.046833452242414 	-3.24215194590658e-20
1 	0.761659920566846 	-2.77555756156289e-17 	-0.0684935285258294 	0.0457196980862351 	-7.10070717237111e-19
1 	0.772846033890729 	-2.77555756156289e-17 	-0.0648344706312215 	0.0444050611220935 	6.89998471832127e-19
1 	0.784437161826055 	-3.12250225675825e-17 	-0.0602566451190973 	0.0428511046561953 	-6.73702191345511e-19
1 	0.796447802899618 	-3.81639164714898e-17 	-0.0544784616073693 	0.0410096797841071 	-3.33540593726193e-18
1 	0.808892963391327 	-4.16333634234434e-17 	-0.0471695990308065 	0.0388342499099098 	-3.44808379685452e-18
1 	0.821788174391592 	-4.16333634234434e-17 	-0.0379544373994787 	0.0362883378273808 	3.48751301182465e-18
1 	0.835149509389415 	-3.12250225675825e-17 	-0.0263982756703148 	0.0333567179112328 	2.87685982616376e-18
1 	0.848993602405718 	-2.77555756156289e-17 	-0.0120046903815266 	0.0300650473789516 	-1.59701503333228e-21
1 	0.863337666686782 	-3.12250225675825e-17 	0.00589530668096455 	0.0265373481775476 	-4.75766657156868e-23
1 	0.878199513973139 	-2.42861286636753e-17 	0.0283501067788371 	0.0228159184969385 	1.35794132670371e-21
1 	0.893597574359564 	-2.42861286636753e-17 	0.0571977830546559 	0.0187609507569279 	9.14589761583773e-21
1 	0.909550916762347 	-3.12250225675825e-17 	0.0952393382491718 	0.0141600554282256 	8.85909276254564e-19
1 	0.926079270010412 	-3.33392168039293e-17 	0.144752152392932 	0.00887273783692098 	-8.84079596042218e-19
1 	0.943203044577384 	-3.19297539796981e-17 	0.205949879720255 	0.00314448135829176 	-2.01516548962825e-21
1 	0.96094335497223 	-3.51281503885303e-17 	0.276037931842759 	-0.00238616478966483 	2.40260233076042e-21
1 	0.979322042806652 	-3.00324001778485e-17 	0.351179128734886 	-0.00712099583021001 	1.01047222979382e-20
1 	0.998361700558027 	-2.03830008427275e-17 	0.427056761204764 	-0.0106529534686876 	5.11239686421689e-21
1 	1.01808569604737 	-2.12503625807159e-17 	0.499625840581484 	-0.0128465975383004 	2.03431121527361e-21
1 	1.03851819765243 	-1.60461921527855e-17 	0.565684282025807 	-0.01376472272119 	-5.07235506186585e-21
1 	1.05968420027697 	-1.04083408558608e-17 	0.622953234136571 	-0.013672732009836 	-1.8463306044949e-21
1 	1.08160955209792 	-9.54097911787244e-18 	0.670408582452915 	-0.0129343078820986 	4.07965048501442e-21
1 	1.10432098211309 	-6.93889390390723e-18 	0.708363171184641 	-0.0118829554087721 	4.81017558617975e-21
1 	1.12784612851327 	-6.93889390390723e-18 	0.738079302825013 	-0.0108315685842439 	-2.25021520441929e-21
1 	1.15221356790332 	-7.80625564189563e-18 	0.761382880616732 	-0.00995934941039748 	-1.96298139550773e-21
1 	1.17745284539835 	-1.38777878078145e-17 	0.780245673286959 	-0.00934017097519322 	-1.36155271006521e-20
1 	1.20359450562215 	-1.64798730217797e-17 	0.796422103142949 	-0.00895431323543519 	-2.00953350536517e-19
1 	1.23067012463664 	-9.54097911787244e-18 	0.811221589735708 	-0.00873441789840112 	1.94721693580814e-19
1 	1.25871234283237 	-1.73472347597681e-18 	0.825475706179006 	-0.00860178093246556 	9.59770808816384e-21
1 	1.28775489881211 	4.33680868994202e-18 	0.839634699645285 	-0.00848688985296324 	-7.45931301942752e-21
1 	1.31783266430119 	5.20417042793042e-18 	0.853893238990178 	-0.00834278039760821 	1.67634384264321e-21
1 	1.34898168012017 	5.20417042793042e-18 	0.868298507875328 	-0.00814639518528973 	9.58678202947117e-21
1 	1.38123919325783 	6.93889390390723e-18 	0.882829916649362 	-0.00789222052356092 	6.18703344101317e-20
1 	1.41464369508463 	8.67361737988404e-18 	0.897449492132962 	-0.00758387183503229 	-7.42141339128104e-20
1 	1.44923496074941 	5.20417042793042e-18 	0.912124844559131 	-0.00722697723830924 	-4.84993573894919e-22
1 	1.48505408980478 	-3.46944695195361e-18 	0.926831126156796 	-0.00682510526683483 	1.18074634738903e-20
1 	1.52214354810991 	1.73472347597681e-18 	0.941541986496718 	-0.00637903182951783 	6.86033001251275e-21
1 	1.56054721106232 	3.46944695195361e-18 	0.956219136630083 	-0.00588831329195171 	-3.01048941037969e-21
1 	1.60031040821395 	-1.73472347597681e-18 	0.970806442857015 	-0.00535356579184703 	-6.61725368836459e-21
1 	1.64147996933068 	0 	0.985230047229813 	-0.00477817083803311 	2.41173789340634e-22
1 	1.68410427195819 	-6.93889390390723e-18 	0.999402912895533 	-0.00416889682611555 	-8.10235056612965e-22
1 	1.72823329056171 	-2.08166817117217e-17 	1.01323112081041 	-0.00353559367657232 	-9.83958131320504e-21
1 	1.77391864731173 	-3.12250225675825e-17 	1.02661976509325 	-0.00289038230355756 	-7.08887877492228e-21
1 	1.82121366459262 	-3.81639164714898e-17 	1.03947770674012 	-0.00224683874951924 	3.26035342315911e-21
1 	1.8701734193166 	-4.85722573273506e-17 	1.05172199578486 	-0.0016196084400374 	-7.10478301978437e-21
1 	1.92085479913089 	-5.55111512312578e-17 	1.06328117696957 	-0.00102562305019994 	4.13352137691976e-21
1 	1.97331656061211 	-6.59194920871187e-17 	1.07380773405296 	-0.000491878120122955 	6.70034407001387e-21
1 	2.02025965173185 	-7.28583859910259e-17 	1.08251985975446 	-6.3226149850965e-05 	1.5371439915809e-21
1 	2.06006301192217 	-6.93889390390723e-17 	1.0894899336741 	0.000265435214310733 	0
1 	2.09845978584128 	-7.28583859910259e-17 	1.09542891433316 	0.000529454325138689 	0
1 	2.13549967996946 	-7.63278329429795e-17 	1.1006508873081 	0.000740465810185574 	0
1 	2.17123064424048 	-7.63278329429795e-17 	1.10523477309381 	0.000905121861959391 	1.03006369307039e-16
1 	2.20569893411516 	-7.63278329429795e-17 	1.10924934902341 	0.00102896721100894 	1.79143242060256e-16
1 	2.23894917046123 	-7.97972798949331e-17 	1.11275378567003 	0.0011172006744157 	-1.8219084786613e-16
1 	2.27102439731726 	-8.67361737988404e-17 	1.11579838808853 	0.00117471095879845 	-1.03710880970321e-16
1 	2.30196613761522 	-9.0205620750794e-17 	1.11842543398173 	0.00120597487620313 	0
1 	2.33181444693392 	-9.0205620750794e-17 	1.12067003258 	0.00121500992831088 	0
1 	2.3606079653529 	-9.0205620750794e-17 	1.12256094535226 	0.00120537314401343 	0
1 	2.38838396747391 	-8.67361737988404e-17 	1.12412133213851 	0.00118018086574368 	0
1 	2.41517841067461 	-7.97972798949331e-17 	1.12536940590012 	0.00114213954599435 	0
1 	2.44102598165722 	-7.63278329429795e-17 	1.12631899264974 	0.00109358219557538 	0
1 	2.46596014135208 	-7.63278329429795e-17 	1.12698000164155 	0.00103650661663636 	0
1 	2.49001316823444 	-7.28583859910259e-17 	1.12735881613366 	0.000972612859767157 	0
1 	2.51321620011054 	-6.93889390390723e-17 	1.12745861820581 	0.000903338387434515 	0
1 	2.535599274427 	-6.93889390390723e-17 	1.12727966310738 	0.000829890133166779 	0
1 	2.55719136715571 	-6.24500451351651e-17 	1.12681951997477 	0.000753273109623284 	0
1 	2.57802043030466 	-5.55111512312578e-17 	1.12607329674879 	0.000674315525366584 	0
1 	2.59811342810315 	-5.55111512312578e-17 	1.12503386772561 	0.000593690576121523 	0
1 	2.61749637190832 	-5.55111512312578e-17 	1.12369212212542 	0.000511935220407646 	0
1 	2.63619435387806 	-5.55111512312578e-17 	1.12203725087458 	0.000429466365853802 	0
1 	2.65423157945406 	-5.20417042793042e-17 	1.12005708605164 	0.000346594958152556 	0
1 	2.67163139869691 	-4.85722573273506e-17 	1.11773850255926 	0.000263538507871861 	0
1 	2.68841633651388 	-4.85722573273506e-17 	1.11506788264025 	0.00018043263101926 	0
1 	2.70460812181851 	-5.20417042793042e-17 	1.11203163241132 	9.73422833050036e-05 	0
1 	2.72022771565972 	-5.55111512312578e-17 	1.1086167287588 	1.42733925965642e-05 	0
1 	2.73529533835695 	-5.55111512312578e-17 	1.10481125984663 	-6.88146359593782e-05 	2.19610847290958e-16
1 	2.74983049567625 	-4.85722573273506e-17 	1.10060491040789 	-0.000151995166137029 	2.11060433526953e-16
1 	2.76385200408157 	-4.5102810375397e-17 	1.09598933582087 	-0.000235359081745567 	-2.36644395544649e-16
1 	2.77737801509344 	-4.85722573273506e-17 	1.09095836781475 	-0.000318998013608088 	-2.28093981780638e-16
1 	2.79042603878708 	-4.85722573273506e-17 	1.08550800096026 	-0.000402986288393434 	0
1 	2.80301296646003 	-5.20417042793042e-17 	1.07963612307308 	-0.000487362084160871 	0
1 	2.81515509249872 	-5.20417042793042e-17 	1.07334197123066 	-0.000572108360432629 	0
1 	2.82686813547237 	-4.85722573273506e-17 	1.06662531307636 	-0.000657134252057243 	0
1 	2.83816725848142 	-4.5102810375397e-17 	1.05948536763914 	-0.00074225765789026 	0
1 	2.84906708878691 	-3.46944695195361e-17 	1.05191948889305 	-0.000827189795275983 	0
0.999999999999999 	2.85958173674616 	-2.77555756156289e-17 	1.04392163727463 	-0.000911522294426825 	0
1 	2.86972481407933 	-2.42861286636753e-17 	1.03548065754363 	-0.000994717061668721 	0
1 	2.87950945149043 	-2.08166817117217e-17 	1.02657836390332 	-0.00107609905700046 	0
1 	2.88894831566566 	-2.42861286636753e-17 	1.01718741003266 	-0.00115485204709343 	0
1 	2.89805362567106 	-2.77555756156289e-17 	1.00726889617534 	-0.00123001738764708 	0
1 	2.90683716877067 	-2.77555756156289e-17 	0.996769635305152 	-0.00130049592460699 	0
1 	2.9153103156857 	-2.77555756156289e-17 	0.985618966320788 	-0.00136505337604482 	0
1 	2.92348403531448 	-2.77555756156289e-17 	0.973724966757687 	-0.00142232945165267 	0
1 	2.9313689089323 	-2.42861286636753e-17 	0.960969880785135 	-0.00147084958012892 	0
1 	2.93897514388925 	-2.42861286636753e-17 	0.947204538412427 	-0.00150904424348629 	0
1 	2.94631258682425 	-2.08166817117217e-17 	0.932241493077928 	-0.00153531595808395 	0
1 	2.95339073641193 	-1.04083408558608e-17 	0.9158465006646 	-0.00154821126906178 	0
1 	2.96021875565915 	-6.93889390390723e-18 	0.897711534122738 	-0.00154585629879907 	0
1 	2.96680548376697 	-1.04083408558608e-17 	0.877388436010211 	-0.00152512628294202 	0
1 	2.97315944757337 	-1.38777878078145e-17 	0.8542544027188 	-0.0014824892104297 	0
1 	2.97928887259171 	-1.38777878078145e-17 	0.827565316469095 	-0.00141472523189733 	0
1 	2.98520169365902 	-1.38777878078145e-17 	0.796496455582105 	-0.00132092328383208 	0
1 	2.99090556520806 	-1.38777878078145e-17 	0.760110655083576 	-0.00120265527049434 	0
1 	2.99640787117633 	-1.38777878078145e-17 	0.717306303406836 	-0.00106325895916221 	0
1 	3.00171573456492 	-1.38777878078145e-17 	0.666793946015561 	-0.000907723064270537 	0
1 	3.00683602665962 	-1.38777878078145e-17 	0.607113082723338 	-0.000742701947549891 	0
1 	3.01177537592612 	-1.04083408558608e-17 	0.5365907435015 	-0.000575846019714587 	0
1 	3.01654017659085 	-6.93889390390723e-18 	0.453735987618211 	-0.000414613439294331 	0
1 	3.02113659691864 	-6.93889390390723e-18 	0.359285741480304 	-0.000267696313737357 	0
1 	3.02557058719784 	-1.04083408558608e-17 	0.257599173256141 	-0.000146222319011871 	0
1 	3.02984788744324 	-1.04083408558608e-17 	0.153983332616042 	-5.9914057851535e-05 	0
