2 	0.20389901571318 	-1.73472347597681e-17 	0.187167170235945 	1.31961159484735e-06 	2388.78268970971 	7.81159568383945e-08 	4.9567447039181e-38
2 	0.20884549676203 	-2.08166817117217e-17 	0.187157935000448 	1.28914878158526e-05 	920.685296956969 	1.86448936012386e-06 	0
2 	0.213971649231871 	-1.73472347597681e-17 	0.18714706162001 	6.24325093638355e-05 	212.429759507086 	1.69472139464729e-05 	0
2 	0.21928394158816 	-6.93889390390723e-18 	0.187131437124288 	0.000197900580281752 	86.8437095193727 	8.29769940263243e-05 	0
2 	0.224789070897335 	3.46944695195361e-18 	0.18710928828415 	0.000470981063134911 	46.4357387270591 	0.000250324537628478 	0
2 	0.230493970589364 	3.46944695195361e-18 	0.187079562178885 	0.000905347168912086 	28.8288198356941 	0.00049817144619483 	0
2 	0.236405818460347 	3.46944695195361e-18 	0.187042356817961 	0.00147377183844278 	19.6066592274235 	0.000691262991976419 	0
2 	0.242532044920804 	0 	0.186999138785597 	0.00211648245575721 	14.1897470193826 	0.000713492725340878 	0
2 	0.248880341495264 	-1.04083408558608e-17 	0.186952111369189 	0.00278003680728987 	10.7875114650257 	0.000587457719655821 	0
2 	0.255458669578763 	-1.38777878078145e-17 	0.186903279705814 	0.00343464405522672 	8.55706485223938 	0.00041077203368032 	0
2 	0.262275269455783 	-1.04083408558608e-17 	0.186853997154193 	0.00406904212940723 	7.04089118819996 	0.00025523741929833 	0
2 	0.269338669587143 	-6.93889390390723e-18 	0.186805037917119 	0.00468126745772397 	5.97293099502808 	0.000145066857009655 	0
2 	0.276657696170236 	-6.93889390390723e-18 	0.186756833848838 	0.00527306799482967 	5.19435776176419 	7.86004266716208e-05 	0
2 	0.284241482977909 	-1.38777878078145e-17 	0.186709651578964 	0.00584738233651884 	4.60857945259643 	4.69494477908093e-05 	0
2 	0.29209948148118 	-2.08166817117217e-17 	0.186663684376045 	0.00640732007173375 	4.15547387487704 	4.15640088183521e-05 	0
2 	0.297365767221641 	-2.25514051876985e-17 	0.186634330149276 	0.00676719475110097 	3.90738222775885 	4.80044924133567e-05 	0
2 	0.301515676925251 	-2.60208521396521e-17 	0.186612274459539 	0.00703889969724282 	3.74754976771607 	5.94572900409721e-05 	0
2 	0.30870073317027 	-3.12250225675825e-17 	0.186575673901012 	0.00749531204493996 	3.50605827857004 	8.55752651883145e-05 	0
2 	0.317461208967927 	-3.46944695195361e-17 	0.186533993667252 	0.00802824703341422 	3.26750022072324 	0.000127444204206058 	0
2 	0.326537421558028 	-2.77555756156289e-17 	0.18649415229392 	0.00855664134834782 	3.06878457015721 	0.000179488358261343 	0
2 	0.335940557447176 	-2.42861286636753e-17 	0.186456311992468 	0.00908235505341503 	2.90136854497266 	0.000240321766493891 	0
2 	0.34568218537978 	-3.12250225675825e-17 	0.186420640646729 	0.00960710740276569 	2.7590542920496 	0.000309037146251434 	0
2 	0.355774268371886 	-3.46944695195361e-17 	0.186387311672717 	0.0101325323545185 	2.63727193157263 	0.000385069798625803 	0
2 	0.366229176048613 	-3.46944695195361e-17 	0.186356504242311 	0.0106602328336449 	2.53261300310255 	0.000468114155331832 	0
2 	0.377059697287117 	-3.46944695195361e-17 	0.186328404596774 	0.0111918357482093 	2.44252163956881 	0.000558077191663263 	0
2 	0.388279053166531 	-3.46944695195361e-17 	0.186303209361207 	0.0117290505999397 	2.36508816277975 	0.000655059540528056 	0
2 	0.399900910225754 	-3.46944695195361e-17 	0.186281132111444 	0.0122737352423439 	2.29891158863971 	0.000759359968259584 	0
2 	0.411939394029383 	-3.81639164714898e-17 	0.186262414956794 	0.012827973233702 	2.24301066289234 	0.000871502589036617 	0
2 	0.424409103041394 	-4.5102810375397e-17 	0.186247347618367 	0.0133941685455593 	2.19677133208666 	0.000992289500723316 	0
2 	0.437325122805492 	-4.85722573273506e-17 	0.186236297452414 	0.0139751653934334 	2.15992418080669 	0.00112288510749581 	0
2 	0.450703040430261 	-4.5102810375397e-17 	0.18622975517539 	0.014574404057469 	2.13254969802687 	0.00126494307565794 	0
2 	0.464558959376393 	-3.81639164714898e-17 	0.186228402784106 	0.0151961284090591 	2.11511326793517 	0.00142079388054061 	0
2 	0.478909514542392 	-2.77555756156289e-17 	0.186233212014653 	0.0158456685574898 	2.10853646432605 	0.00159372241611713 	0
2 	0.493771887644142 	-2.08166817117217e-17 	0.186245582250589 	0.0165298344899539 	2.1143177921567 	0.00178838535918428 	0
2 	0.509163822882685 	-2.08166817117217e-17 	0.186267527259118 	0.0172574771891936 	2.13472644620099 	0.00201145487546206 	0
2 	0.525103642893443 	-1.73472347597681e-17 	0.186301940370935 	0.0180403086473956 	2.17311055082369 	0.00227264237190978 	0
2 	0.541610264968878 	-1.73472347597681e-17 	0.186353032487673 	0.0188941327965001 	2.23439354736434 	0.00258637287944096 	0
2 	0.558703217545312 	-1.73472347597681e-17 	0.186426938469785 	0.0198407274488729 	2.32588044085684 	0.00297429128981124 	0
2 	0.576402656943248 	-1.73472347597681e-17 	0.186531456686926 	0.0209097787890226 	2.4579815981953 	0.00346625831109454 	0
2 	0.594729384349056 	-2.08166817117217e-17 	0.186672726913886 	0.0221317601949787 	2.63890750088644 	0.00409864327763804 	0
2 	0.613704863024363 	-2.08166817117217e-17 	0.186851394733288 	0.023528176204267 	2.86325652132686 	0.00491935638017334 	0
2 	0.633351235727779 	-2.08166817117217e-17 	0.187065259132641 	0.0251286482346444 	3.12231885483472 	0.00598743672906017 	0
2 	0.653691342331939 	-2.08166817117217e-17 	0.187314539267482 	0.0269874608355638 	3.4183381969708 	0.00737535404193278 	0
2 	0.674748737616903 	-2.08166817117217e-17 	0.187601676811046 	0.0291720380115629 	3.75723473655295 	0.00918494689564574 	0
2 	0.696547709219106 	-2.42861286636753e-17 	0.187927318948519 	0.0317541530983135 	4.14484189225222 	0.0115645895625374 	0
2 	0.719113295712966 	-2.42861286636753e-17 	0.188287042368979 	0.0348036448933884 	4.58653572414428 	0.0149904350212333 	0
2 	0.742471304800187 	-2.42861286636753e-17 	0.188710002783805 	0.0384257513915602 	5.09229875343279 	0.0198666280476186 	0
2 	0.766648331579506 	-3.46944695195361e-17 	0.189212197467337 	0.0427516755336399 	5.67096984126348 	0.026864374759035 	0
2 	0.791671776867402 	-3.46944695195361e-17 	0.189756053426557 	0.0477107195124649 	6.3004106641836 	0.036212276238002 	0
2 	0.817569865537826 	-2.77013655070046e-17 	0.190338036818154 	0.0528669585717534 	6.92713627193598 	0.0469126048361791 	0
2 	0.844371664846553 	-4.28801959218017e-17 	0.190978502470601 	0.0574846425199756 	7.48239508103766 	0.057198964605129 	0
2 	0.872107102703197 	-5.5944832100252e-17 	0.19170602303734 	0.0608709277850349 	7.90671955773991 	0.0657633811544508 	0
2 	0.900806985851283 	-5.3776427755281e-17 	0.192580889893303 	0.0626328993516316 	8.1877259723754 	0.0723955654389779 	0
2 	0.930503017914084 	-5.03069808033274e-17 	0.193542669326023 	0.0625095416733044 	8.30438549687812 	0.0745464146533865 	0
2 	0.961227817261155 	-4.33680868994202e-17 	0.194455511931373 	0.0603832962103856 	8.18648832512408 	0.0720845401111772 	0
2 	0.993014934647737 	-3.72965547335014e-17 	0.195263484086445 	0.0564063023305469 	7.75718577483354 	0.0626176456432103 	0
2 	1.02589887057633 	-3.29597460435593e-17 	0.195887358898825 	0.0512778401986856 	7.00817892272097 	0.0480681187460665 	0
2 	1.05991509232696 	-2.25514051876985e-17 	0.196277745681966 	0.0460190577928068 	6.04115613712872 	0.0327832573352139 	0
2 	1.09510005059972 	-1.73472347597681e-17 	0.196449891678989 	0.0414989243226728 	5.02713796416129 	0.0205054269440181 	0
2 	1.13149119571054 	-2.42861286636753e-17 	0.196456353471076 	0.0381150487683151 	4.12723666852624 	0.0124185903544405 	0
2 	1.16912699327816 	-2.42861286636753e-17 	0.196345481137133 	0.0358071021827694 	3.41586093125214 	0.00776072279555694 	0
2 	1.20804693933777 	-2.08166817117217e-17 	0.196149878043541 	0.0342766887302024 	2.87586788697478 	0.00527810122684899 	0
2 	1.24829157481416 	-1.73472347597681e-17 	0.195912522270705 	0.0331981910308519 	2.47150976366803 	0.00398871918792021 	0
2 	1.2899024992847 	-1.73472347597681e-17 	0.19568056378565 	0.0323151211172792 	2.18792966953475 	0.00328111721573592 	0
2 	1.33292238396028 	-3.12250225675825e-17 	0.195474207421205 	0.0314365204607091 	1.99571358223718 	0.0028310231016017 	0
2 	1.35583809719486 	-4.16333634234434e-17 	0.195372907626931 	0.0309556858693038 	1.9147146210319 	0.00263648153819029 	0
2 	1.37844311338454 	-4.5102810375397e-17 	0.195281393560226 	0.0304879010110065 	1.86092428627364 	0.0024875035970279 	0
2 	1.41220272459525 	-4.85722573273506e-17 	0.195146684378818 	0.0296537316270304 	1.77799413968625 	0.00223838099929886 	0
2 	1.43617694926587 	-4.85722573273506e-17 	0.195052832427122 	0.0289354122422493 	1.72379662979352 	0.00204913486301025 	0
2 	1.45930396367274 	-4.85722573273506e-17 	0.194959887029017 	0.0282483820134155 	1.68164330130761 	0.0018818932604698 	0
2 	1.48161370685419 	-4.85722573273506e-17 	0.194872437238451 	0.0275408903763712 	1.64526327232653 	0.00171846140928143 	0
2 	1.50313505985141 	-5.20417042793042e-17 	0.1947896005509 	0.0268191851643358 	1.61398288371292 	0.00156000839191902 	0
2 	1.52389588309639 	-6.24500451351651e-17 	0.194709882636768 	0.0260892465619747 	1.58738503035479 	0.00140708063916548 	0
2 	1.54392305247858 	-6.24500451351651e-17 	0.194632727202798 	0.0253565014034978 	1.56521133913228 	0.00126029172383752 	0
2 	1.56324249413704 	-5.55111512312578e-17 	0.194557810577648 	0.0246256981791544 	1.5473074196625 	0.00112023295166542 	0
2 	1.58187921802306 	-5.55111512312578e-17 	0.194484837223631 	0.0239008764531682 	1.53359147729676 	0.000987418781344446 	0
2 	1.5998573502768 	-5.20417042793042e-17 	0.194413557104618 	0.0231853910762481 	1.52403620119917 	0.000862270698545914 	0
2 	1.61720016445966 	-4.85722573273506e-17 	0.194343777018077 	0.0224819666166176 	1.51865860231088 	0.00074511913778884 	0
2 	1.63393011168312 	-4.85722573273506e-17 	0.194275355774708 	0.0217927667001936 	1.5175149020399 	0.000636214159837304 	0
2 	1.65006884967274 	-4.85722573273506e-17 	0.194208197679997 	0.0211194687714038 	1.52069884717502 	0.000535741615995389 	0
2 	1.66563727080512 	-4.85722573273506e-17 	0.194142246866543 	0.0204633384893699 	1.52834252736828 	0.000443842742228385 	0
2 	1.68065552915415 	-5.20417042793042e-17 	0.194077481837214 	0.0198253003790641 	1.54061918382396 	0.000360635655902038 	0
2 	1.69514306658136 	-5.55111512312578e-17 	0.194013910041928 	0.0192060029426971 	1.5577477626071 	0.000286237821756506 	0
2 	1.70911863790442 	-5.55111512312578e-17 	0.193951562603472 	0.0186058774858184 	1.57999915443928 	0.00022078909076474 	0
2 	1.72260033517611 	-5.89805981832114e-17 	0.193890489301226 	0.0180251906015976 	1.60770421289391 	0.000164475366594523 	0
2 	1.73560561110537 	-6.24500451351651e-17 	0.193830753881869 	0.0174640907011233 	1.64126377662905 	0.000117553349665877 	0
2 	1.74815130165068 	-6.93889390390723e-17 	0.193772429742774 	0.0169226492560272 	1.68116105331539 	8.03771768082701e-05 	0
2 	1.76025364781503 	-7.97972798949331e-17 	0.193715596016025 	0.0164008975871318 	1.72797686439022 	5.34281414690229e-05 	0
2 	1.77192831667065 	-8.32667268468867e-17 	0.193660334064174 	0.01589886012743 	1.78240841032063 	3.73490739139139e-05 	0
2 	1.78319042164084 	-8.32667268468867e-17 	0.193606724383372 	0.0154165851354942 	1.84529240456899 	3.29854135319505e-05 	0
2 	1.79405454206499 	-8.32667268468867e-17 	0.193554843895948 	0.0149541738521954 	1.91763364901514 	4.14355466757918e-05 	0
2 	1.80453474207227 	-8.67361737988404e-17 	0.193504763602883 	0.0145118090858073 	2.00064039060772 	6.41136402883213e-05 	0
2 	1.81464458878829 	-9.36750677027476e-17 	0.193456546557167 	0.0140897841744348 	2.09576811101257 	0.000102828990615559 	0
2 	1.82439716989841 	-9.71445146547012e-17 	0.193410246111875 	0.0136885331942144 	2.20477375240596 	0.000159886821689485 	0
2 	1.83380511059041 	-9.36750677027476e-17 	0.193365904392211 	0.0133086631243692 	2.32978275218151 	0.000238216458625352 	0
2 	1.84288058989839 	-9.0205620750794e-17 	0.193323550939483 	0.0129509883911874 	2.47337159816121 	0.000341533730162426 	0
2 	1.8516353564691 	-8.67361737988404e-17 	0.193283201477594 	0.0126165677076367 	2.63866882791985 	0.00047454504018631 	0
2 	1.86008074377114 	-8.32667268468867e-17 	0.193244856760394 	0.0123067422819939 	2.82947731087609 	0.000643200267523157 	0
2 	1.8682276847667 	-8.32667268468867e-17 	0.193208501472845 	0.0120231731270617 	3.05041999186999 	0.000854999630512022 	0
2 	1.87608672606481 	-8.32667268468867e-17 	0.193174103185835 	0.0117678731758093 	3.30710962345047 	0.00111935454484704 	0
2 	1.88366804157439 	-7.97972798949331e-17 	0.193141611414522 	0.0115432270381499 	3.60633981458638 	0.00144799247719817 	0
2 	1.89098144567491 	-7.97972798949331e-17 	0.193110956886861 	0.0113519874925067 	3.95628936470061 	0.00185537876722217 	0
2 	1.89803640592159 	-7.97972798949331e-17 	0.193082051070877 	0.0111972335165849 	4.36672393752365 	0.00235910280884923 	0
2 	1.90484205530156 	-7.63278329429795e-17 	0.19305478583142 	0.0110822708072866 	4.84916906092302 	0.00298014256017263 	0
2 	1.91140720405699 	-7.63278329429795e-17 	0.193029034176053 	0.0110104543116574 	5.41701839071406 	0.00374288575989128 	0
2 	1.91774035109036 	-7.63278329429795e-17 	0.193004657908492 	0.0109849164317671 	6.08553628423102 	0.00467476113202541 	0
2 	1.92384969496671 	-7.63278329429795e-17 	0.192981524835011 	0.011008198074627 	6.87172256231817 	0.00580533620547047 	0
2 	1.92974314452706 	-7.63278329429795e-17 	0.192959478541156 	0.0110818053442993 	7.79403727929275 	0.00716488876435782 	0
2 	1.93542832912681 	-7.63278329429795e-17 	0.192938113291375 	0.0112057477868935 	8.87201442882038 	0.00880817672043672 	0
2 	1.9409126085123 	-7.63278329429795e-17 	0.192916984377643 	0.011377949561158 	10.1280396675719 	0.0108165781194149 	0
2 	1.94620308234836 	-7.63278329429795e-17 	0.192896344187092 	0.0115937471948407 	11.5915908043608 	0.0132423473826137 	0
2 	1.95130659940914 	-7.63278329429795e-17 	0.192876500292041 	0.0118446944595252 	13.2938588910615 	0.0161151006976657 	0
2 	1.95622976644425 	-7.63278329429795e-17 	0.192857312373028 	0.012115158835547 	15.2491985088496 	0.0194215838140649 	0
2 	1.96097895673142 	-7.63278329429795e-17 	0.192838758513159 	0.0123808487321652 	17.447041996786 	0.0230426890462813 	0
2 	1.96556031832711 	-7.63278329429795e-17 	0.19282083832183 	0.012613083120358 	19.8654547850997 	0.0268520437735494 	0
2 	1.96997978202541 	-7.63278329429795e-17 	0.192803486292494 	0.0127832076597284 	22.4893676722524 	0.0307577091552528 	0
2 	1.97424306903576 	-7.63278329429795e-17 	0.19278671832486 	0.0128643238787823 	25.3229430390251 	0.0346839509679965 	0
2 	1.9783556983893 	-7.28583859910259e-17 	0.192770658737772 	0.0128311978612559 	28.3978513824265 	0.0385591194739248 	0
2 	1.98232299408358 	-7.28583859910259e-17 	0.192755487901442 	0.0126592250019417 	31.7805844263361 	0.0423100784262011 	0
2 	1.9861500919747 	-7.63278329429795e-17 	0.192741378526606 	0.0123227158064023 	35.5809145231696 	0.0458228596495817 	0
2 	1.9898419464259 	-7.63278329429795e-17 	0.192728497400375 	0.0117935720335623 	39.9639621500751 	0.048893545159226 	0
2 	1.99340333672127 	-7.28583859910259e-17 	0.192717061064649 	0.0110420321822145 	45.1727825111995 	0.0512374288788728 	0
2 	1.99683887325274 	-6.93889390390723e-17 	0.192707286204291 	0.0100389343079118 	51.5826746415585 	0.0523941626297354 	0
2 	2.00015300348845 	-6.93889390390723e-17 	0.19269926660752 	0.00876174595857956 	59.8275219703952 	0.0517057598060199 	0
2 	2.00335001773022 	-6.59194920871187e-17 	0.192692994581876 	0.00720371653700424 	71.0881972577294 	0.0478093181863027 	0
2 	2.00643405466757 	-5.89805981832114e-17 	0.192688441646068 	0.00541099204925208 	87.7974198480751 	0.0388687353877541 	0
2 	2.00940910673543 	-5.55111512312578e-17 	0.192685425498162 	0.00356209613770096 	115.652999408474 	0.0257176905433433 	0
2 	2.01227902528252 	-5.55111512312578e-17 	0.192683546749323 	0.00196002789429409 	170.136770928784 	0.0127152492496858 	0
2 	2.01504752555717 	-5.55111512312578e-17 	0.192682363227144 	0.000856767996540845 	301.025573453576 	0.00429288648462573 	0
2 	2.01771819151684 	-5.55111512312578e-17 	0.192681521482837 	0.000278235086148578 	725.312780970918 	0.000896458255574409 	0
2 	2.02029448046774 	-5.55111512312578e-17 	0.19268082835926 	5.95562320216441e-05 	3207.3539338488 	9.96241405272178e-05 	0
2 	2.02277972754048 	-5.55111512312578e-17 	0.192680354332742 	6.4065844492859e-06 	7761.85942967893 	4.1070359789434e-06 	5.55649742155286e-38
