2 	0.00391112967796265 	-2.42861286636753e-17 	-0.022474037428198 	0.000111416482828967 	-3.4324125573782e-18
2 	0.0118766651674913 	-2.77555756156289e-17 	-0.0662485608353988 	0.000408123138577936 	5.89523864515416e-17
2 	0.020134001548576 	-2.42861286636753e-17 	-0.106892624459689 	0.000919240047201885 	3.62942735498265e-17
2 	0.028693828342395 	-2.42861286636753e-17 	-0.140942956541163 	0.00160135442334728 	1.87549807660649e-21
2 	0.0373671647970984 	-1.38777878078145e-17 	-0.16451816184259 	0.00229633839153491 	6.03235675123019e-22
2 	0.041883666888994 	-6.93889390390723e-18 	-0.173731491107754 	0.00264211043093305 	2.55580612582441e-23
2 	0.0467656835403032 	0 	-0.178966892148702 	0.00296112821280972 	-4.44702647283153e-22
2 	0.0563011068347006 	1.04083408558608e-17 	-0.185981138125101 	0.0035363626936246 	-1.25970569527931e-21
2 	0.0661858406082649 	6.93889390390723e-18 	-0.188962871242925 	0.00405895069163329 	-1.00971742863257e-21
2 	0.0764326811267816 	-3.46944695195361e-18 	-0.189745279005757 	0.00454933916957976 	-5.74532410510809e-23
2 	0.0870548934207257 	-1.04083408558608e-17 	-0.18924952211375 	0.00501916921105095 	7.28796375301329e-22
2 	0.0980662284574839 	-1.73472347597681e-17 	-0.187937743189747 	0.00547502420491556 	6.50042454803742e-22
2 	0.109480940942647 	-2.42861286636753e-17 	-0.186054559709145 	0.00592091942246378 	-3.2959684697852e-22
2 	0.121313807773417 	-3.12250225675825e-17 	-0.183737004413705 	0.00635934003125543 	-1.78751485579462e-23
2 	0.13358014716801 	-4.16333634234434e-17 	-0.181065173261239 	0.00679176199590135 	1.81027027529385e-22
2 	0.146295838495838 	-4.85722573273506e-17 	-0.178086901229433 	0.00721896115763127 	1.537787578473e-22
2 	0.159477342834115 	-4.85722573273506e-17 	-0.174830547026482 	0.00764119597162294 	4.00967905892013e-22
2 	0.173141724277517 	-4.85722573273506e-17 	-0.17131199496115 	0.00805831128589502 	-4.85949580612358e-23
2 	0.18730667202848 	-4.85722573273506e-17 	-0.167538670978022 	0.00846979440155268 	-5.86888774171467e-22
2 	0.201990523296728 	-5.20417042793042e-17 	-0.163511929377626 	0.00887480131584454 	-2.2004821353743e-18
2 	0.217212287037675 	-4.85722573273506e-17 	-0.159228504026476 	0.00927216280219146 	-2.01233176069624e-18
2 	0.232991668560441 	-4.16333634234434e-17 	-0.154681395697693 	0.00966037562243596 	1.83284864385858e-18
2 	0.249349095037321 	-4.5102810375397e-17 	-0.149860402263584 	0.0100375817959299 	1.62468833279642e-18
2 	0.266305741947753 	-4.85722573273506e-17 	-0.144752409799366 	0.0104015374509921 	-2.47244719995266e-24
2 	0.283883560490998 	-4.5102810375397e-17 	-0.139341512579408 	0.010749571922778 	-3.96616657340803e-23
2 	0.30210530600303 	-4.5102810375397e-17 	-0.133609000042081 	0.0110785372339623 	9.01989030968771e-22
2 	0.320994567414413 	-4.5102810375397e-17 	-0.127533229612362 	0.0113847478015579 	9.10468631332708e-22
2 	0.34057579778732 	-4.5102810375397e-17 	-0.121089390675116 	0.0116639101243093 	1.35912624325676e-23
2 	0.3608743459712 	-4.16333634234434e-17 	-0.114249154006664 	0.011911042347655 	-1.49733033532899e-19
2 	0.38191648941809 	-3.81639164714898e-17 	-0.106971563090785 	0.0121222593899208 	-1.55147673215637e-23
2 	0.403729468200045 	-4.0766001685455e-17 	-0.0992076208228546 	0.0122929466494722 	-2.03803127332832e-21
2 	0.426341520272733 	-4.5102810375397e-17 	-0.090932542292404 	0.01241114082684 	-1.56180175242815e-22
2 	0.449781918030828 	-4.33680868994202e-17 	-0.0820964299174725 	0.0124679485436809 	-1.60968094587629e-21
2 	0.474081006202548 	-4.0766001685455e-17 	-0.0726411090051521 	0.0124532695659296 	1.75421835299913e-21
2 	0.499270241132363 	-4.33680868994202e-17 	-0.0624981603941419 	0.012355734944166 	1.46924954290864e-21
2 	0.525382231502762 	-4.16333634234434e-17 	-0.0515863489244512 	0.0121627140915765 	-1.22579827665139e-21
2 	0.552450780547767 	-4.68375338513738e-17 	-0.0398082762523072 	0.0118604450940079 	1.20062377827649e-21
2 	0.580510929812849 	-4.68375338513738e-17 	-0.0270460682318642 	0.0114343437563264 	1.16870523245482e-21
2 	0.60959900451791 	-4.85722573273506e-17 	-0.013155935131103 	0.0108695983060431 	1.67068258125209e-22
2 	0.639752660582032 	-6.24500451351651e-17 	0.00203855221311433 	0.0101526165591411 	1.38980876204579e-21
2 	0.671010933370886 	-6.24500451351651e-17 	0.0187547031100561 	0.00927531922798147 	1.07464106836375e-21
2 	0.692974896985072 	-5.46437894932694e-17 	0.0311037239039928 	0.00858963465636982 	-1.72501200848741e-18
2 	0.709467994081598 	-6.15826833971767e-17 	0.0408284217049404 	0.00802856993135591 	-6.61311576532507e-18
2 	0.737004672868605 	-7.28583859910259e-17 	0.0579711587861566 	0.00701503372060854 	-9.08913576229759e-18
2 	0.771825571663976 	-8.67361737988404e-17 	0.081846060766511 	0.00556110754985631 	1.24029277285943e-17
2 	0.807922061953053 	-9.36750677027476e-17 	0.110138334790606 	0.00380154087703455 	3.11557482050909e-18
2 	0.845340872387742 	-8.32667268468867e-17 	0.143884470272398 	0.00169520423158587 	-4.21373461503762e-22
2 	0.884130443427309 	-7.28583859910259e-17 	0.183544314119627 	-0.000710070266977772 	4.98856417265291e-21
2 	0.924340990046896 	-6.93889390390723e-17 	0.228840848633797 	-0.00328964595028862 	6.17977782119758e-21
2 	0.966024566743241 	-7.28583859910259e-17 	0.278895799097021 	-0.00589481986541681 	-3.02993410824486e-22
2 	1.00923513492173 	-6.98226199080665e-17 	0.332634611193584 	-0.0083911799856022 	-1.57222986197454e-20
2 	1.05402863275205 	-6.54858112181245e-17 	0.389184503394161 	-0.010624098886467 	-1.25633977706627e-20
2 	1.10046304758287 	-6.67868538251071e-17 	0.447442913320733 	-0.0124503693419884 	1.04319016595521e-21
2 	1.14859849100923 	-6.76542155630955e-17 	0.506190253909551 	-0.0137157857539795 	1.00945537370167e-20
2 	1.19849727668994 	-6.93889390390723e-17 	0.563672024899245 	-0.0143127767490484 	1.13875899146519e-21
2 	1.25022400101563 	-7.28583859910259e-17 	0.617733613211223 	-0.0142337946775456 	-6.3821704459516e-21
2 	1.2976817984841 	-8.32667268468867e-17 	0.661451264914687 	-0.0136728004277051 	6.2931461567081e-22
2 	1.32497485759045 	-8.67361737988404e-17 	0.684573748475638 	-0.0132108092227957 	-2.63057722434958e-22
2 	1.35943156962565 	-8.32667268468867e-17 	0.710323221082729 	-0.0124943977244524 	1.35744221554165e-21
2 	1.41705378838762 	-8.67361737988404e-17 	0.748561961770816 	-0.0112150118236153 	2.05156907828052e-21
2 	1.47678687776592 	-9.0205620750794e-17 	0.781598595746071 	-0.00998248745537206 	1.27371190135646e-20
2 	1.53870816513277 	-9.36750677027476e-17 	0.810269695952022 	-0.00896945957326538 	-6.54060682518228e-23
2 	1.60289781058851 	-9.95297594341693e-17 	0.835701852193251 	-0.0082117684555127 	3.46232479717141e-24
2 	1.66943891073266 	-9.86623976961809e-17 	0.858818124815985 	-0.00766546599908232 	1.92485707188792e-20
2 	1.73841760623657 	-8.93382590128056e-17 	0.880628562323451 	-0.00723138332107087 	1.17197981420957e-21
2 	1.80992319335659 	-7.97972798949331e-17 	0.901620205495168 	-0.00682830994364123 	7.14933146911139e-21
2 	1.87524008572233 	-7.97972798949331e-17 	0.919641174561352 	-0.00645957438801493 	2.32635791521699e-21
2 	1.9129692526306 	-8.32667268468867e-17 	0.929686784809121 	-0.00625188946627816 	-4.61590890153611e-22
2 	1.96088870322037 	-7.97972798949331e-17 	0.941804941897909 	-0.00595072169054498 	7.88300010081375e-23
2 	2.04004996790234 	-7.63278329429795e-17 	0.960785802379515 	-0.00545306794977841 	0
2 	2.11873460271874 	-7.63278329429795e-17 	0.978289043986019 	-0.00489028877275834 	0
2 	2.19463865000284 	-7.63278329429795e-17 	0.993997835310269 	-0.0043590498345325 	0
2 	2.26786037121375 	-7.63278329429795e-17 	1.00799708351861 	-0.0038610144342919 	0
2 	2.33849455540975 	-7.63278329429795e-17 	1.02045364972754 	-0.00339788529565225 	0
2 	2.40663264195736 	-7.63278329429795e-17 	1.03152777991029 	-0.00297753704983212 	0
2 	2.47236283890404 	-7.63278329429795e-17 	1.04137287530907 	-0.00260204974077879 	0
2 	2.5357702371677 	-7.63278329429795e-17 	1.05013236113598 	-0.00227129929514603 	0
2 	2.59693692069107 	-7.97972798949331e-17 	1.05793543037821 	-0.00198365511911128 	0
2 	2.65594207270333 	-8.32667268468867e-17 	1.06489519650395 	-0.00173648811772669 	0
2 	2.71286207822658 	-8.32667268468867e-17 	1.07110943957926 	-0.00152660281241586 	0
2 	2.76777062295999 	-8.32667268468867e-17 	1.07666226713832 	-0.00135053458277146 	0
2 	2.82073878866949 	-8.67361737988404e-17 	1.08162579791408 	-0.00120474183454985 	0
2 	2.87183514520654 	-9.0205620750794e-17 	1.08606167355508 	-0.00108574011569303 	0
2 	2.92112583927514 	-9.0205620750794e-17 	1.09002238610816 	-0.000990198193318865 	0
2 	2.96867468006189 	-9.0205620750794e-17 	1.09355243811103 	-0.00091500320073892 	0
