6 	0.236003646787934 	-2.77555756156289e-17 	0.412940437229931 	2.0773080198549e-05 	2833.38921974499 	3.28716341336971e-07 	2.92461908148968e-38
6 	0.240776291064803 	-2.77555756156289e-17 	0.413059646966824 	0.000241331295196268 	816.164581430615 	3.9478330771825e-06 	0
6 	0.245722645246878 	-2.42861286636753e-17 	0.413185266465806 	0.00125340143048864 	206.98674920112 	1.49981350353187e-05 	0
6 	0.250848989471053 	-2.77555756156289e-17 	0.413291117891733 	0.0037300239254784 	85.2053420686106 	2.74044996727882e-05 	0
6 	0.256161827787292 	-3.46944695195361e-17 	0.413359233170066 	0.00739688482894136 	44.3505818064748 	0.00013471224723174 	0
6 	0.261667895910883 	-3.46944695195361e-17 	0.41337080072656 	0.0112099419784211 	27.2073724210074 	0.000408984718933254 	0
6 	0.267374169225983 	-3.12250225675825e-17 	0.413320684593509 	0.0146009876722728 	18.8951924351562 	0.00074381445231015 	0
6 	0.273287871047362 	-3.46944695195361e-17 	0.413217634515906 	0.0175216136930353 	14.3049135923362 	0.00108177757140155 	0
6 	0.279416481147286 	-4.16333634234434e-17 	0.41307273742125 	0.0200707879744017 	11.4780855903764 	0.00142274613171077 	0
6 	0.285767744554598 	-3.81639164714898e-17 	0.412893725823136 	0.0223440824099026 	9.58747513291937 	0.00177412568361115 	0
6 	0.292349680633107 	-2.77555756156289e-17 	0.412685607405313 	0.0244112702961218 	8.24373418879301 	0.00214019311185052 	0
6 	0.29917059244646 	-2.08166817117217e-17 	0.412452136142879 	0.0263212813557815 	7.24447759324912 	0.00252282208883042 	0
6 	0.306239076416741 	-1.73472347597681e-17 	0.412196457131589 	0.028108704663625 	6.47545498311877 	0.00292260287609848 	0
6 	0.313564032284059 	-6.93889390390723e-18 	0.411921327453324 	0.0297985626856486 	5.86771942230698 	0.00333951087040391 	0
6 	0.32115467337443 	3.46944695195361e-18 	0.411629242243333 	0.031409485781759 	5.3773568844395 	0.00377324026680034 	0
6 	0.329020537183271 	6.93889390390723e-18 	0.411322520886515 	0.032955690956613 	4.97513798686111 	0.00422334066724935 	0
6 	0.337171496281828 	3.46944695195361e-18 	0.411003365746874 	0.034448482366158 	4.64088751117125 	0.00468930018918401 	0
6 	0.345617769553795 	-6.93889390390723e-18 	0.410673911663761 	0.0358968398241758 	4.36025027012915 	0.00517056022102334 	0
6 	0.354369933769424 	-1.04083408558608e-17 	0.410336255882568 	0.037307944287964 	4.12274613831836 	0.00566654011290964 	0
6 	0.363438935504298 	3.46944695195361e-18 	0.409992465212457 	0.0386875904170345 	3.92055482019535 	0.00617665439852331 	0
6 	0.372836103409868 	1.38777878078145e-17 	0.409644570586288 	0.040040476004948 	3.74773071096199 	0.00670032794160196 	0
6 	0.382573160842791 	1.04083408558608e-17 	0.409294556044236 	0.0413704108885172 	3.59968045934935 	0.00723700876691633 	0
6 	0.392662238859923 	1.04083408558608e-17 	0.40894434244706 	0.0426804689803626 	3.47280623004325 	0.0077861778167756 	0
6 	0.403115889585671 	1.73472347597681e-17 	0.408595766162269 	0.0439730982557548 	3.36425646068925 	0.00834735684620289 	0
6 	0.413947099958245 	2.08166817117217e-17 	0.408250553336734 	0.0452501998360248 	3.27174810573454 	0.00892011449286862 	0
6 	0.425169305861095 	1.73472347597681e-17 	0.407910290197913 	0.0465131838237871 	3.19343748424404 	0.00950406925331669 	0
6 	0.436796406645576 	1.73472347597681e-17 	0.407576389940336 	0.0477630073248898 	3.12782483312847 	0.0100988878411636 	0
6 	0.44884278005054 	2.42861286636753e-17 	0.407250056664989 	0.0490001985993603 	3.07368265490712 	0.0107042769406758 	0
6 	0.461323297524291 	2.77555756156289e-17 	0.406932246517419 	0.0502248703114266 	3.03000114251343 	0.01131996583291 	0
6 	0.474253339953895 	2.08166817117217e-17 	0.406623627394121 	0.0514367242725279 	2.99594605789321 	0.0119456761309386 	0
6 	0.487648813806396 	1.73472347597681e-17 	0.40632454521267 	0.0526350498197064 	2.97082585025817 	0.0125810738863485 	0
6 	0.501526167686079 	2.08166817117217e-17 	0.406035003337332 	0.0538187180227105 	2.95406577729264 	0.0132257045193234 	0
6 	0.512267123952437 	1.43656787854329e-17 	0.405823176262877 	0.0546982102932607 	2.94644110674571 	0.0137155947192264 	0
6 	0.519584910724973 	3.95733792957209e-18 	0.405685318456642 	0.0552777475879832 	2.94389573603315 	0.0140442496212739 	0
6 	0.530806320270653 	-1.38777878078145e-17 	0.405482815831302 	0.0561358271378284 	2.94370398000996 	0.0145398448479874 	0
6 	0.546244912698053 	-2.08166817117217e-17 	0.405217134234352 	0.0572649433768028 	2.94937822595211 	0.0152079362093399 	0
6 	0.562236857389019 	-1.73472347597681e-17 	0.404957342135836 	0.0583707098277461 	2.96193872963538 	0.0159027784594219 	0
6 	0.578801540825294 	-3.12250225675825e-17 	0.404710190119128 	0.0594506547665077 	2.98117839934245 	0.0166942771789308 	0
6 	0.595958996617833 	-4.16333634234434e-17 	0.404484231582446 	0.0605051785061359 	3.00699471171861 	0.017640678878575 	0
6 	0.613729924830638 	-4.5102810375397e-17 	0.404271005323822 	0.0615369176916204 	3.03933423577256 	0.0187849452693438 	0
6 	0.632135711720391 	-5.20417042793042e-17 	0.404043858218581 	0.0625416408738363 	3.07782279457039 	0.0201092306166919 	0
6 	0.651198449889037 	-5.55111512312578e-17 	0.403777082615461 	0.0635007599885185 	3.12134127251737 	0.0215068005568835 	0
6 	0.670940958845397 	-5.55111512312578e-17 	0.403454506934786 	0.064383083320301 	3.16795730459661 	0.0228457219474863 	0
6 	0.691386805970734 	-5.55111512312578e-17 	0.403066478137129 	0.0651517841863316 	3.21522058923477 	0.0240296381549525 	0
6 	0.71256032788199 	-5.72458747072346e-17 	0.402605755697507 	0.0657709413185805 	3.26058872616494 	0.0250132417215192 	0
6 	0.734486652185097 	-6.07153216591882e-17 	0.402065600353963 	0.0662092661719469 	3.30176671241738 	0.0257890230055109 	0
6 	0.757191719609424 	-6.24500451351651e-17 	0.401439169856035 	0.0664409854070818 	3.33685805107303 	0.0263683783999954 	0
6 	0.780702306512932 	-6.07153216591882e-17 	0.400719263720643 	0.0664448722883613 	3.3643428190939 	0.0267649160012678 	0
6 	0.805046047746118 	-6.41847686111419e-17 	0.399898110722322 	0.0662027052035835 	3.38296702891972 	0.0269845471622378 	0
6 	0.830251459861171 	-7.45931094670027e-17 	0.398967182719462 	0.0656980911556789 	3.3916293517683 	0.0270228286028778 	0
6 	0.856347964651141 	-8.32667268468867e-17 	0.397917098941643 	0.0649160666150882 	3.38931684852416 	0.0268675560959811 	0
6 	0.883365913002109 	-8.84708972748172e-17 	0.396737689085082 	0.0638434743017591 	3.37510301425848 	0.0265038767692932 	0
6 	0.911336609039547 	-9.0205620750794e-17 	0.395418244905592 	0.0624698887835112 	3.34819285121581 	0.0259194557190605 	0
6 	0.940292334548137 	-8.67361737988404e-17 	0.393947948698802 	0.0607887587954302 	3.30797512643961 	0.025107898553227 	0
6 	0.970266373642365 	-8.71698546678346e-17 	0.392316414664296 	0.0587986443151307 	3.25403476285401 	0.0240696114559269 	0
6 	1.00129303766319 	-9.41087485717418e-17 	0.390514281449282 	0.0565043675396134 	3.18611689834671 	0.0228102107032871 	0
6 	1.03340769027398 	-9.66024135684584e-17 	0.388533782738018 	0.053917966784445 	3.10393662995512 	0.0213377881992038 	0
6 	1.06664677272686 	-1.00071860520412e-16 	0.386363379530424 	0.0510586187055632 	3.00686673444182 	0.0196602756412542 	0
6 	1.10104782926837 	-1.00613961606655e-16 	0.383985591754086 	0.0479562204461858 	2.89376195331154 	0.0177881241189673 	0
6 	1.1366495326513 	-1.04083408558608e-16 	0.381415962173755 	0.0446656835837417 	2.76420934202187 	0.0157490926898501 	0
6 	1.17349170971716 	-1.17961196366423e-16 	0.378657741691567 	0.0413009155188066 	2.6254090372696 	0.0136088105200494 	0
6 	1.21161536701196 	-1.21430643318376e-16 	0.37572215169676 	0.0379592210471181 	2.47993071401488 	0.01146069275805 	0
6 	1.25106271639539 	-1.21430643318376e-16 	0.372624564751608 	0.0346986700690844 	2.32588114229798 	0.00942386168526953 	0
6 	1.29187720060179 	-1.28369537222284e-16 	0.369388297303083 	0.0315862295160292 	2.16665634451971 	0.00760129985016303 	0
6 	1.3341035187089 	-1.28369537222284e-16 	0.366041022222094 	0.0286513298620282 	2.00605629241933 	0.00604562669090091 	0
6 	1.37778765146897 	-1.2490009027033e-16 	0.362742757223644 	0.0259781160784691 	1.85412785597071 	0.00479014507551346 	0
6 	1.41220272459524 	-1.2490009027033e-16 	0.360231237797211 	0.0240183619709244 	1.74335818022304 	0.00391883453777441 	0
6 	1.43617694926586 	-1.2490009027033e-16 	0.358434221800511 	0.0226511078863716 	1.67013631766217 	0.00334798237248716 	0
6 	1.45930396367274 	-1.21430643318376e-16 	0.356845401474212 	0.0214734608666519 	1.61217012874868 	0.00288357219430173 	0
6 	1.48161370685419 	-1.14491749414469e-16 	0.355348271485322 	0.0203972256757344 	1.56424367381247 	0.00246673421014178 	0
6 	1.50313505985141 	-1.07552855510562e-16 	0.353937808745118 	0.0194125713974144 	1.525581016738 	0.00209193915194999 	0
6 	1.52389588309638 	-1.07552855510562e-16 	0.352611451190466 	0.0185102447948337 	1.49548573681051 	0.00175809831575997 	0
6 	1.54392305247857 	-1.11022302462516e-16 	0.351365914632117 	0.0176818207662665 	1.47336334498825 	0.00146267303097889 	0
6 	1.56324249413703 	-1.11022302462516e-16 	0.350197580962972 	0.0169197883541714 	1.45873123158755 	0.00120250157779869 	0
6 	1.58187921802306 	-1.11022302462516e-16 	0.34910277371884 	0.0162175685244158 	1.45122578832367 	0.000974336745132994 	0
6 	1.59985735027679 	-1.11022302462516e-16 	0.348077815933748 	0.0155694865145341 	1.45060616816345 	0.000775160276597244 	0
6 	1.61720016445966 	-1.07552855510562e-16 	0.347119063726903 	0.0149707176514052 	1.45675577025176 	0.00060234368023052 	0
6 	1.63393011168312 	-1.00613961606655e-16 	0.346222941897023 	0.0144172217501235 	1.46968282878785 	0.000453719769300264 	0
6 	1.65006884967273 	-9.71445146547012e-17 	0.345385972243092 	0.013905675366941 	1.48952124585963 	0.000327608723667629 	0
6 	1.66563727080512 	-1.04083408558608e-16 	0.34460479327688 	0.0134334067971858 	1.51653243205594 	0.000222824561599143 	0
6 	1.68065552915414 	-1.17961196366423e-16 	0.34387617332563 	0.0129983360362398 	1.55110854818342 	0.000138676455605002 	0
6 	1.69514306658136 	-1.2490009027033e-16 	0.343197018743708 	0.0125989201284002 	1.59377720113693 	7.49722468340349e-05 	0
6 	1.70911863790442 	-1.2490009027033e-16 	0.342564378470737 	0.0122341029581581 	1.64520731757808 	3.20269563687432e-05 	0
6 	1.7226003351761 	-1.2490009027033e-16 	0.3419754458978 	0.0119032674208856 	1.70621557139213 	1.06758889061741e-05 	0
6 	1.73560561110536 	-1.21430643318376e-16 	0.341427558786252 	0.0116061869942427 	1.77777235137308 	1.22893379205115e-05 	0
6 	1.74815130165068 	-1.21430643318376e-16 	0.340918197789559 	0.0113429730174375 	1.86100581714982 	3.87835179872369e-05 	0
6 	1.76025364781502 	-1.28369537222284e-16 	0.340444983968159 	0.0111140134808053 	1.95720212661262 	9.26200529021535e-05 	0
6 	1.77192831667064 	-1.31838984174237e-16 	0.340005675561928 	0.0109198988880155 	2.06779949654175 	0.000176784331306749 	0
6 	1.78319042164083 	-1.31838984174237e-16 	0.339598164182286 	0.0107613311431667 	2.19437350845809 	0.000294731821989239 	0
6 	1.79405454206499 	-1.28369537222284e-16 	0.339220470495236 	0.0106390127655166 	2.33861118017296 	0.000450291811513447 	0
6 	1.80453474207227 	-1.31838984174237e-16 	0.33887073939076 	0.0105535162636566 	2.50227201010669 	0.000647520874254244 	0
6 	1.81464458878829 	-1.38777878078145e-16 	0.33854723458399 	0.0105051372217112 	2.68713565757708 	0.000890504341444982 	0
6 	1.8243971698984 	-1.42247325030098e-16 	0.338248332581281 	0.0104937392187611 	2.89493820791489 	0.00118311301321197 	0
6 	1.83380511059041 	-1.45716771982052e-16 	0.337972515978174 	0.0105186033086519 	3.12730189802434 	0.00152873314480035 	0
6 	1.84288058989839 	-1.45716771982052e-16 	0.3377183661345 	0.010578298210964 	3.38566623780108 	0.0019299979463382 	0
6 	1.85163535646909 	-1.45716771982052e-16 	0.337484555382833 	0.0106705882791964 	3.67123087681894 	0.00238855542429909 	0
6 	1.86008074377113 	-1.45716771982052e-16 	0.337269839058187 	0.0107923937817219 	3.98492149364533 	0.00290490773564404 	0
6 	1.8682276847667 	-1.45716771982052e-16 	0.337073047752244 	0.0109398119889713 	4.32738884790849 	0.00347835027613516 	0
6 	1.8760867260648 	-1.49186218934005e-16 	0.336893080066094 	0.0111081990296281 	4.69904790687515 	0.00410702561448561 	0
6 	1.88366804157438 	-1.52655665885959e-16 	0.336728895479825 	0.0112923033360536 	5.10015926055454 	0.00478809101474096 	0
6 	1.89098144567491 	-1.49186218934005e-16 	0.336579507750553 	0.0114864338480681 	5.53094996625517 	0.0055179824626352 	0
6 	1.89803640592159 	-1.45716771982052e-16 	0.33644398751011 	0.011684641587332 	5.9917667205587 	0.00629274699330762 	0
6 	1.90484205530155 	-1.45716771982052e-16 	0.336321484489986 	0.0118808923592879 	6.48325181145358 	0.00710902454850258 	0
6 	1.91140720405698 	-1.45716771982052e-16 	0.336211176304494 	0.0120692076934659 	7.00656214780217 	0.00797443419032413 	0
6 	1.91774035109035 	-1.45716771982052e-16 	0.336111933129993 	0.0122436875921916 	7.56407185233656 	0.00890698676972256 	0
6 	1.9238496949667 	-1.45716771982052e-16 	0.33602278594926 	0.0123983338607171 	8.16023008912494 	0.00987536666194472 	0
6 	1.92974314452705 	-1.45716771982052e-16 	0.335943173892614 	0.012526816201438 	8.79879300654242 	0.0108835327352462 	0
6 	1.9354283291268 	-1.45716771982052e-16 	0.335872544523576 	0.0126218763436735 	9.48103620192307 	0.0118910142273506 	0
6 	1.9409126085123 	-1.42247325030098e-16 	0.335810380049435 	0.0126770620394912 	10.2092145048583 	0.0128730612462847 	0
6 	1.94620308234835 	-1.35308431126191e-16 	0.335756190186757 	0.0126876034870284 	10.9893399663202 	0.0138290641312381 	0
6 	1.95130659940914 	-1.35308431126191e-16 	0.335709516063098 	0.012650212408466 	11.8324441523064 	0.0147717205920013 	0
6 	1.95622976644424 	-1.42247325030098e-16 	0.335669922568906 	0.012562450558228 	12.7552308115098 	0.0157195845533489 	0
6 	1.96097895673142 	-1.45716771982052e-16 	0.33563698593913 	0.0124220458120723 	13.7806964950254 	0.0166934182633569 	0
6 	1.96556031832711 	-1.45716771982052e-16 	0.335610297618707 	0.0122262755510052 	14.9393750719794 	0.0177148540447228 	0
6 	1.96997978202541 	-1.42247325030098e-16 	0.335589515188048 	0.0119713936377211 	16.2715643682883 	0.0188062034737229 	0
6 	1.97424306903575 	-1.38777878078145e-16 	0.335574397753048 	0.0116520243995001 	17.8307888661581 	0.0199875835141623 	0
6 	1.9783556983893 	-1.42247325030098e-16 	0.335564696699682 	0.0112605199530313 	19.6890249885278 	0.0212755481582815 	0
6 	1.98232299408358 	-1.45716771982052e-16 	0.335559866316331 	0.0107862531971101 	21.9444148672776 	0.0226746860222407 	0
6 	1.98615009197469 	-1.45716771982052e-16 	0.335559110190238 	0.0102149068848318 	24.7328505090305 	0.0241676913834335 	0
6 	1.98984194642589 	-1.42247325030098e-16 	0.335561645766171 	0.00952768749136721 	28.2465701714453 	0.0256801968496597 	0
6 	1.99340333672126 	-1.38777878078145e-16 	0.335566706644277 	0.0087010510838536 	32.7654604486572 	0.0270246766689607 	0
6 	1.99683887325273 	-1.38777878078145e-16 	0.335573505208299 	0.00770878721103984 	38.7120776838064 	0.0278065599929879 	0
6 	2.00015300348844 	-1.38777878078145e-16 	0.335581202778178 	0.00653054070466154 	46.7609520055132 	0.027312450164624 	0
6 	2.00335001773022 	-1.38777878078145e-16 	0.335588894882163 	0.00517398616255644 	58.093024280932 	0.0245636997759283 	0
6 	2.00643405466757 	-1.42247325030098e-16 	0.335595731583309 	0.0037140757933748 	75.0737007316371 	0.0189683538156154 	0
6 	2.00940910673542 	-1.42247325030098e-16 	0.335601195195204 	0.00232185982759276 	103.194562006066 	0.0115855986682284 	0
6 	2.01227902528252 	-1.35308431126191e-16 	0.335605350165492 	0.00121170919093824 	156.957924736552 	0.00515352740346801 	0
6 	2.01504752555717 	-1.31838984174237e-16 	0.335608785283721 	0.00050343947687592 	281.066868081849 	0.00155345202455226 	0
6 	2.01771819151684 	-1.31838984174237e-16 	0.335612261943661 	0.000154120679384396 	660.301492113497 	0.000291819096129353 	0
6 	2.02029448046774 	-1.31838984174237e-16 	0.335616177031913 	2.98709442742913e-05 	2675.2654702181 	2.96073539362282e-05 	0
6 	2.02277972754047 	-1.31838984174237e-16 	0.335619513040518 	2.79514825892605e-06 	8375.65842963818 	1.18094033369056e-06 	3.69571708226738e-38
