1 	0.453145051774202 	-5.20417042793042e-18 	-0.0614838197365829 	0.0571354358438797 	1.50079872246843e-20
1 	0.477630011235183 	0 	-0.0564808256459987 	0.0573666988594391 	-1.48657837470518e-20
1 	0.503004628624218 	1.04083408558608e-17 	-0.0510827986619753 	0.0573985740829708 	2.56366969977367e-21
1 	0.519428666477044 	2.08166817117217e-17 	-0.0474918951066432 	0.0573222849057773 	2.92344972331845e-20
1 	0.533144048232975 	2.08166817117217e-17 	-0.0444775076394398 	0.0571810150129283 	2.95739306982875e-20
1 	0.557670520808614 	1.38777878078145e-17 	-0.0390085636668508 	0.0568117425985768 	-2.63192745054095e-20
1 	0.586815339953542 	1.04083408558608e-17 	-0.0322151016902776 	0.0561304513734968 	-1.53755751858508e-20
1 	0.616980522415253 	1.04083408558608e-17 	-0.0247502938299648 	0.0551277032472346 	-1.68492315055855e-21
1 	0.64819977416635 	1.04083408558608e-17 	-0.0163683361900593 	0.0537411067832834 	6.024448714801e-20
0.999999999999999 	0.680507744842365 	3.46944695195361e-18 	-0.0066877545291312 	0.0518913503590163 	8.54365310893534e-22
0.999999999999999 	0.713940038550141 	1.73472347597681e-18 	0.00480461970338808 	0.0494986635743458 	-1.06119121866274e-19
0.999999999999999 	0.748533223050416 	7.80625564189563e-18 	0.0194243904973625 	0.0463020889270961 	-6.43424385974144e-22
0.999999999999999 	0.784324837073149 	1.82145964977565e-17 	0.0381072317982425 	0.0423022983207885 	6.51094845382796e-20
0.999999999999999 	0.821353395497812 	2.42861286636753e-17 	0.0621233628178603 	0.0374993419105259 	-6.19359956526479e-20
0.999999999999999 	0.859658392101632 	2.25514051876985e-17 	0.0930859446375737 	0.0319083681276427 	-6.7558139378619e-21
0.999999999999999 	0.897479881852396 	1.73472347597681e-17 	0.130955430050872 	0.0259769517270574 	-1.16454318933737e-20
0.999999999999999 	0.917664346857025 	1.73472347597681e-17 	0.153504980341679 	0.0227445583350523 	-4.11462936730736e-20
0.999999999999999 	0.94077233029924 	1.38777878078145e-17 	0.183488289809812 	0.0192238985438674 	-9.90479825912594e-21
0.999999999999999 	0.983996877051372 	3.46944695195361e-18 	0.246346570756124 	0.0131739352434123 	8.86245997547344e-21
0.999999999999999 	1.02861553699685 	3.46944695195361e-18 	0.321006121742384 	0.00855983818927951 	7.62510682216332e-20
0.999999999999999 	1.07466578917765 	1.04083408558608e-17 	0.402432532216561 	0.00613581543360319 	-5.11356088619686e-20
0.999999999999999 	1.12218553031876 	1.47451495458029e-17 	0.482236584427087 	0.00593221848988871 	-2.51127298985558e-20
0.999999999999999 	1.17121302523564 	1.47451495458029e-17 	0.551063240137167 	0.00705247470869413 	-3.25063012455897e-20
0.999999999999999 	1.22178685126327 	1.04083408558608e-17 	0.606552016438584 	0.00842359300033319 	-1.92583649525739e-20
0.999999999999999 	1.26463522928424 	1.04083408558608e-17 	0.643627193015753 	0.00932892844687717 	-2.63287953791853e-21
0.999999999999999 	1.29120887880446 	1.38777878078145e-17 	0.663250800355922 	0.00973133203497807 	-4.82282599643243e-21
0.999999999999999 	1.32815596864146 	1.04083408558608e-17 	0.686586767517908 	0.010024557301139 	1.23322219824823e-20
0.999999999999999 	1.38404322553241 	1.73472347597681e-17 	0.716962744977092 	0.010070923660893 	-1.31440588263965e-20
0.999999999999999 	1.44154765575443 	2.77555756156289e-17 	0.744161031426963 	0.0097933962020124 	5.00592917179821e-20
0.999999999999999 	1.5007023679452 	2.94902990916057e-17 	0.769866260552083 	0.00942456077637636 	1.61069824330719e-17
0.999999999999999 	1.56154029730481 	2.60208521396521e-17 	0.794821751870628 	0.00913880840246945 	1.69531436249805e-16
0.999999999999999 	1.61342219690552 	2.42861286636753e-17 	0.815072678545848 	0.00899609241345766 	-5.47227445864615e-17
0.999999999999999 	1.64516527354081 	2.77555756156289e-17 	0.827045621542607 	0.00894720623410099 	-1.18173549968205e-16
0.999999999999999 	1.68853578226838 	2.42861286636753e-17 	0.842697415931762 	0.00892875351129185 	-4.36591811606438e-17
0.999999999999999 	1.75472527095878 	2.42861286636753e-17 	0.865434510579409 	0.00896049280246674 	1.80571746015033e-20
0.999999999999999 	1.82264707055245 	2.86229373536173e-17 	0.887134956609642 	0.00903414679599065 	5.9492938659654e-21
0.999999999999999 	1.89233154578514 	3.20923843055709e-17 	0.907606471602067 	0.00912188623626767 	-1.78231828185551e-20
0.999999999999999 	1.9585188871971 	3.81639164714898e-17 	0.925681870464562 	0.00915599521359872 	-1.43548232455381e-20
0.999999999999999 	1.99470976139617 	4.16333634234434e-17 	0.935259262616438 	0.00920048875664859 	-5.340394394083e-21
0.999999999999999 	2.04004996790234 	3.81639164714898e-17 	0.945940273678262 	0.0091915467987 	-2.86387711384436e-21
0.999999999999999 	2.11873460271874 	3.46944695195361e-17 	0.963618155569432 	0.0091651174065917 	0
0.999999999999999 	2.19463865000284 	3.46944695195361e-17 	0.979403374110626 	0.00908525013147154 	0
0.999999999999999 	2.26786037121375 	3.46944695195361e-17 	0.993307953573655 	0.00894075049044988 	0
0.999999999999999 	2.33849455540975 	3.46944695195361e-17 	1.00559407865065 	0.00875246621335585 	0
0.999999999999999 	2.40663264195736 	3.46944695195361e-17 	1.01648696612524 	0.00852637763320983 	0
0.999999999999999 	2.47236283890404 	3.46944695195361e-17 	1.02617835514124 	0.00827216786980462 	0
0.999999999999999 	2.5357702371677 	3.12250225675825e-17 	1.03483002099916 	0.0079980070376382 	0
0.999999999999999 	2.59693692069107 	2.77555756156289e-17 	1.0425775362026 	0.00771093905695652 	0
0.999999999999999 	2.65594207270333 	2.77555756156289e-17 	1.04953390170106 	0.00741678988970046 	0
0.999999999999999 	2.71286207822658 	2.77555756156289e-17 	1.05579301637084 	0.00712027289816577 	0
0.999999999999999 	2.76777062295999 	3.12250225675825e-17 	1.06143282613651 	0.00682511034634453 	0
0.999999999999999 	2.82073878866949 	3.12250225675825e-17 	1.06651804518269 	0.00653415719801188 	0
0.999999999999999 	2.87183514520654 	2.77555756156289e-17 	1.071102444904 	0.00624952812260064 	0
0.999999999999999 	2.92112583927514 	3.12250225675825e-17 	1.0752307429205 	0.00597272119806069 	0
0.999999999999999 	2.96867468006189 	3.46944695195361e-17 	1.07894013519789 	0.00570473288458539 	0
