6 	0.237176985691323 	-1.38777878078145e-17 	-0.0110776330214093 	-0.00483626738889425 	2.57229557157486e-18
6 	0.24433929061505 	-1.38777878078145e-17 	-0.0264385476519711 	-0.0125699023424161 	-1.39825527810408e-18
6 	0.251762845711451 	-1.38777878078145e-17 	-0.0331687573338844 	-0.0166321289059869 	-1.5890035608432e-19
6 	0.259457137973771 	-1.38777878078145e-17 	-0.032280579102705 	-0.0175120352870282 	7.19598190364694e-19
6 	0.267431995784869 	-1.73472347597681e-17 	-0.0275954349990258 	-0.0168795577338875 	1.84152095647096e-18
6 	0.275697600972974 	-1.38777878078145e-17 	-0.0220555152455854 	-0.0159841030836052 	-1.00143690549937e-18
6 	0.284264501276394 	-3.46944695195361e-18 	-0.0165418310700254 	-0.0152204973884894 	-6.62757435378384e-20
6 	0.293143623229842 	-1.04083408558608e-17 	-0.0111483904027602 	-0.0146289394947433 	8.47589911965376e-20
6 	0.302346285485321 	-1.73472347597681e-17 	-0.00582519401283928 	-0.0141787268896988 	-3.90638603354548e-19
6 	0.311884212580816 	-1.38777878078145e-17 	-0.000514026379777015 	-0.0138392259103444 	2.2428526142083e-19
6 	0.321769549170352 	-1.04083408558608e-17 	0.00483353607235997 	-0.013588491046556 	2.08874665725294e-22
6 	0.332014874729254 	-6.93889390390723e-18 	0.0102567078040462 	-0.0134110162927402 	-3.27961712741764e-20
6 	0.342633218748766 	-6.93889390390723e-18 	0.015788227224947 	-0.0132953885077999 	-3.58340176482414e-20
6 	0.353638076434463 	-6.93889390390723e-18 	0.0214566270182653 	-0.0132328382303708 	-9.54458191780118e-22
6 	0.365043424923182 	-3.46944695195361e-18 	0.0272878633367519 	-0.0132163385879997 	-1.03550002313111e-19
6 	0.376863740033506 	0 	0.0333064867976295 	-0.0132399970324264 	3.18007409906543e-19
6 	0.389114013565083 	0 	0.0395364887400339 	-0.0132986261926327 	-5.00316544056874e-20
6 	0.401809771162339 	-3.46944695195361e-18 	0.046001934007998 	-0.0133874362003133 	-2.51990105584027e-20
6 	0.414967090758443 	0 	0.0527274531179285 	-0.0135018072081762 	-7.64059219195335e-20
6 	0.428602621615601 	3.46944695195361e-18 	0.0597386397295463 	-0.0136371117267572 	-1.30426251410319e-19
6 	0.442733603978 	0 	0.0670623834726536 	-0.0137885691352042 	7.23519491168368e-20
6 	0.457377889353987 	-6.93889390390723e-18 	0.0747271556566396 	-0.0139511217613244 	-6.67136019531557e-20
6 	0.472553961444248 	-1.38777878078145e-17 	0.0827632566502393 	-0.0141193263064628 	8.53114003017263e-20
6 	0.48828095773297 	-1.04083408558608e-17 	0.0912030268162801 	-0.0142872548774157 	7.73865863074655e-20
6 	0.504578691759154 	-3.46944695195361e-18 	0.100081017323751 	-0.0144483971588553 	1.01556313977452e-19
6 	0.521467676085419 	0 	0.109434114871369 	-0.0145955737473226 	-8.55546219337538e-20
5.99999999999999 	0.538969145981772 	3.46944695195361e-18 	0.119301614875115 	-0.0147209500362922 	7.60822050931173e-20
5.99999999999999 	0.557105083841901 	6.93889390390723e-18 	0.129725257614366 	-0.0148161660406667 	-8.93733865949406e-20
5.99999999999999 	0.575898244349719 	6.93889390390723e-18 	0.140750061651922 	-0.0148715064498332 	-3.25426909157836e-20
6 	0.595372180413908 	1.73472347597681e-17 	0.152442640986386 	-0.0148732810802394 	1.03458466808807e-20
6 	0.615551269888215 	1.73472347597681e-17 	0.164950002110157 	-0.0148015888308569 	4.46154049481773e-20
6 	0.636460743095327 	6.93889390390723e-18 	0.178545731997977 	-0.0146315026369106 	-8.1803040016974e-20
6 	0.652647166743472 	1.01915004213637e-17 	0.189623852846585 	-0.0144272556396027 	-2.35760089075034e-17
6 	0.663675376918003 	1.01915004213637e-17 	0.197503252083276 	-0.0142462883769067 	-7.08029930997785e-17
6 	0.680587392610361 	1.38777878078145e-17 	0.210129004660032 	-0.0139006390837092 	-4.87313871139828e-17
6 	0.703859582148881 	1.38777878078145e-17 	0.228392209480578 	-0.0133113245801085 	6.08034677570533e-17
6 	0.727972091553349 	6.93889390390723e-18 	0.24829219567061 	-0.012569050792641 	4.54637210657399e-17
6 	0.752954819769148 	1.04083408558608e-17 	0.269735583691062 	-0.0116801676916884 	1.7707251092086e-21
6 	0.778838697973206 	1.38777878078145e-17 	0.292620510671224 	-0.0106540979667586 	1.35859018546725e-19
6 	0.805655723005247 	1.38777878078145e-17 	0.316861424961328 	-0.00950087548771147 	4.01691776550946e-20
6 	0.833438991731657 	1.38777878078145e-17 	0.342393107838189 	-0.00822991806293334 	-2.22973798906489e-22
6 	0.862222736358007 	1.73472347597681e-17 	0.369160041270172 	-0.00684992564895386 	2.21240322594156e-17
6 	0.892042360705978 	1.73472347597681e-17 	0.397099238175471 	-0.00536963471710258 	1.94727934034159e-17
6 	0.922934477469927 	1.38777878078145e-17 	0.426123308243066 	-0.00379903489597861 	-2.21327447727179e-17
6 	0.954936946467907 	1.21430643318376e-17 	0.456107831025095 	-0.00215064221394176 	-1.96023994974794e-17
6 	0.988088913901419 	6.93889390390723e-18 	0.48688463822438 	-0.000440532975811204 	1.92689781438289e-19
6 	1.02243085263762 	6.93889390390723e-18 	0.518241048398541 	0.00131103317323254 	3.65313845252737e-20
6 	1.058004603527 	6.93889390390723e-18 	0.54992444662668 	0.00307950314022688 	1.95102038581297e-19
6 	1.09485341776909 	0 	0.581651496972545 	0.00483649939692106 	-2.32637168486083e-19
6 	1.13302200033769 	3.46944695195361e-18 	0.613121351857457 	0.00655082565135726 	-9.7519336736745e-21
6 	1.17255655447676 	1.04083408558608e-17 	0.644032279877345 	0.00818996573535215 	1.40965482830618e-19
6 	1.21350482727697 	9.54097911787244e-18 	0.674101276995382 	0.00972190468449466 	1.62816423877895e-20
6 	1.25591615634232 	5.20417042793042e-18 	0.703085566191228 	0.0111170759781515 	-1.22519304807554e-19
6 	1.29984151755512 	3.46944695195361e-18 	0.730803097125269 	0.0123502371691971 	-1.8808933128289e-20
6 	1.34533357394706 	2.16840434497101e-18 	0.757147603549463 	0.013402510716645 	-1.05048290870554e-21
6 	1.39244672568275 	2.60208521396521e-18 	0.782091695413599 	0.014263146175328 	-1.69362091314716e-19
6 	1.44123716116168 	6.28837260041593e-18 	0.805673023203579 	0.0149299534852609 	1.48343388957326e-19
6 	1.49176290924315 	-2.16840434497101e-19 	0.827961706203774 	0.0154072398501036 	-1.80550966112365e-20
6 	1.54408389259815 	-1.04083408558608e-17 	0.849029504696647 	0.0157027368843029 	-3.36123904000789e-20
6 	1.59826198219113 	-1.04083408558608e-17 	0.868973811176051 	0.0158299612276369 	8.6831283243309e-20
6 	1.65436105289371 	-3.46944695195361e-18 	0.887843190828855 	0.015800873065503 	1.50539613836914e-22
6 	1.71244704023175 	3.46944695195361e-18 	0.905655993955263 	0.0156276765773655 	7.01284176229333e-20
6 	1.77258799826636 	6.93889390390723e-18 	0.922401985134321 	0.0153217941013977 	-4.26897259769702e-20
6 	1.83485415860876 	6.93889390390723e-18 	0.938038616239984 	0.0148946185904738 	-7.07214958359521e-21
6 	1.89931799056864 	1.04083408558608e-17 	0.952490278382505 	0.0143618862289423 	-7.49052145264459e-21
6 	1.96605426243508 	1.04083408558608e-17 	0.965377811673472 	0.0137694801194453 	4.37248269138363e-21
6 	2.02025965173184 	6.93889390390723e-18 	0.975012208734466 	0.0132672330670326 	-9.1667447937029e-22
6 	2.06006301192217 	3.46944695195361e-18 	0.981940410629037 	0.0128796641135758 	0
6 	2.09845978584128 	0 	0.987925133297397 	0.0125288279228079 	0
6 	2.13549967996945 	-3.46944695195361e-18 	0.993323591328674 	0.0121925859181898 	0
6 	2.17123064424048 	-6.93889390390723e-18 	0.998167836431981 	0.0118692239560699 	0
6 	2.20569893411515 	-6.93889390390723e-18 	1.00248982470752 	0.0115568156764169 	0
6 	2.23894917046122 	-6.93889390390723e-18 	1.00631978677131 	0.0112543088780428 	0
6 	2.27102439731725 	-6.93889390390723e-18 	1.00968525813018 	0.0109610139467255 	0
6 	2.30196613761521 	-1.04083408558608e-17 	1.0126105594512 	0.0106764180651561 	0
6 	2.33181444693391 	-1.73472347597681e-17 	1.01511655966487 	0.0104001056301244 	0
6 	2.3606079653529 	-1.73472347597681e-17 	1.01722060970883 	0.0101317073043321 	0
6 	2.3883839674739 	-1.38777878078145e-17 	1.01893657594579 	0.00987087019712565 	0
6 	2.41517841067461 	-1.73472347597681e-17 	1.02027493058847 	0.00961724378938949 	0
6 	2.44102598165722 	-2.42861286636753e-17 	1.02124287557034 	0.00937047531770174 	0
6 	2.46596014135207 	-2.42861286636753e-17 	1.02184448911117 	0.00913021038542509 	0
6 	2.49001316823444 	-1.73472347597681e-17 	1.02208089265925 	0.0088960962678183 	0
6 	2.51321620011054 	-1.38777878078145e-17 	1.02195044116919 	0.00866778640699435 	0
6 	2.535599274427 	-1.38777878078145e-17 	1.0214489425041 	0.00844494522839677 	0
6 	2.55719136715571 	-1.38777878078145e-17 	1.02056991247072 	0.00822725279005965 	0
6 	2.57802043030466 	-1.38777878078145e-17 	1.0193048707313 	0.00801440897612691 	0
6 	2.59811342810315 	-1.38777878078145e-17 	1.01764367965324 	0.00780613702942457 	0
6 	2.61749637190832 	-1.04083408558608e-17 	1.01557492325001 	0.00760218623419173 	0
6 	2.63619435387806 	-3.46944695195361e-18 	1.01308631720344 	0.007402333548274 	0
6 	2.65423157945406 	-3.46944695195361e-18 	1.01016513437797 	0.00720638397436169 	0
6 	2.67163139869691 	-6.93889390390723e-18 	1.00679862441776 	0.00701416947405957 	0
6 	2.68841633651388 	-6.93889390390723e-18 	1.00297440228181 	0.00682554627925769 	-1.97978669612555e-16
6 	2.70460812181851 	-1.04083408558608e-17 	0.99868078005648 	0.00664039054489355 	-1.90722313716242e-16
6 	2.72022771565972 	-1.38777878078145e-17 	0.99390701965502 	0.00645859240822721 	2.12412018285926e-16
6 	2.73529533835695 	-1.38777878078145e-17 	0.988643490775558 	0.00628004865667647 	2.05155662389623e-16
6 	2.74983049567626 	-1.38777878078145e-17 	0.982881727560468 	0.00610465433840794 	0
6 	2.76385200408157 	-1.38777878078145e-17 	0.976614386974596 	0.00593229374744795 	0
6 	2.77737801509344 	-1.38777878078145e-17 	0.969835120065222 	0.00576283124157864 	0
6 	2.79042603878708 	-1.38777878078145e-17 	0.962538372450099 	0.00559610240098647 	0
6 	2.80301296646003 	-1.38777878078145e-17 	0.954719131840994 	0.00543190656892852 	0
6 	2.81515509249873 	-1.04083408558608e-17 	0.946372638253933 	0.00527000197113386 	0
6 	2.82686813547238 	-1.04083408558608e-17 	0.937494067474447 	0.00511009669080518 	0
6 	2.83816725848143 	-1.38777878078145e-17 	0.928078191064339 	0.00495181114349612 	0
6 	2.84906708878692 	-1.04083408558608e-17 	0.918119008121748 	0.00479470683918759 	0
6 	2.85958173674616 	-6.93889390390723e-18 	0.907599093578923 	0.00463856478345526 	0
6 	2.86972481407933 	-1.04083408558608e-17 	0.896448565709581 	0.00448299554430362 	0
6 	2.87950945149043 	-1.38777878078145e-17 	0.884575405476154 	0.00432730364082209 	0
6 	2.88894831566567 	-1.38777878078145e-17 	0.871940290047803 	0.00417109817434384 	0
6 	2.89805362567107 	-1.38777878078145e-17 	0.858548027477559 	0.00401357942091186 	0
6 	2.90683716877067 	-1.38777878078145e-17 	0.844418517622372 	0.00385373387038738 	0
6 	2.9153103156857 	-1.38777878078145e-17 	0.829568145772254 	0.00369059133140371 	0
6 	2.92348403531449 	-1.38777878078145e-17 	0.813999675866417 	0.00352327120001738 	0
6 	2.9313689089323 	-1.38777878078145e-17 	0.797696594481661 	0.00335098774475304 	0
6 	2.93897514388925 	-1.38777878078145e-17 	0.780618848482015 	0.00317306719219968 	0
6 	2.94631258682425 	-1.38777878078145e-17 	0.762697916276311 	0.00298897314891522 	0
6 	2.95339073641193 	-1.38777878078145e-17 	0.74382988842816 	0.00279833523992949 	0
6 	2.96021875565916 	-1.38777878078145e-17 	0.723865606370395 	0.00260098042665449 	0
6 	2.96680548376697 	-1.38777878078145e-17 	0.702596950385571 	0.00239696881614465 	0
6 	2.97315944757337 	-1.38777878078145e-17 	0.67973817610858 	0.00218663682456182 	0
6 	2.97928887259171 	-1.38777878078145e-17 	0.654900968413301 	0.00197065091553302 	0
6 	2.98520169365903 	-1.38777878078145e-17 	0.62756179017476 	0.00175007070970987 	0
6 	2.99090556520807 	-1.38777878078145e-17 	0.597020521131763 	0.00152642015594309 	0
6 	2.99640787117633 	-1.38777878078145e-17 	0.56235033824538 	0.001301854077923 	0
6 	3.00171573456492 	-1.38777878078145e-17 	0.522321307493788 	0.00107939622174869 	0
6 	3.00683602665963 	-1.38777878078145e-17 	0.475268016541136 	0.000862478834742163 	0
6 	3.01177537592613 	-1.38777878078145e-17 	0.419217899552821 	0.000654811199916045 	0
6 	3.01654017659085 	-1.38777878078145e-17 	0.353026708682742 	0.000461595639718285 	0
6 	3.02113659691864 	-1.38777878078145e-17 	0.278212191619438 	0.000291520153035117 	0
6 	3.02557058719784 	-1.73472347597681e-17 	0.198891204608654 	0.000155100640092866 	0
6 	3.02984788744324 	-2.08166817117217e-17 	0.118853831206094 	6.0656937550275e-05 	0
