8 	0.449781918030828 	8.67361737988404e-18 	0.211269315535674 	0.0281055307592027 	1.48781839591258 	0.00294814738076857 	0
8 	0.474081006202548 	1.38777878078145e-17 	0.211196846954598 	0.0288927515351354 	1.49280734109988 	0.0031618379057899 	0
8 	0.499270241132363 	1.56125112837913e-17 	0.211124765941364 	0.0296733084479974 	1.50035119920735 	0.00338672174714402 	0
8 	0.525382231502763 	1.38777878078145e-17 	0.211052590075938 	0.0304430301599257 	1.5101381244244 	0.00362207342959822 	0
8 	0.552450780547767 	1.38777878078145e-17 	0.210979728832231 	0.0311968406673923 	1.52183284171758 	0.00386672707098443 	0
8 	0.580510929812849 	2.08166817117217e-17 	0.210905496147561 	0.0319286742686228 	1.53506714592945 	0.00411897660603036 	0
8 	0.60959900451791 	2.25514051876985e-17 	0.210828915142865 	0.0326314028886365 	1.54943102767887 	0.00437650553776159 	0
8 	0.639752660582033 	1.73472347597681e-17 	0.210748005250762 	0.0332967848604097 	1.56446478318408 	0.0046363865650312 	0
8 	0.671010933370886 	1.82145964977565e-17 	0.210660616152383 	0.0339154448087299 	1.57965263129231 	0.00490035308713874 	0
8 	0.7034142882299 	1.82145964977565e-17 	0.210574616473538 	0.0344770730827461 	1.5944196702574 	0.00521160878008155 	0
8 	0.737004672868606 	2.51534904016637e-17 	0.210521156849407 	0.0349721616736145 	1.60810754260958 	0.0055485338970702 	0
8 	0.771825571663976 	3.03576608295941e-17 	0.210496530514252 	0.0353878366632384 	1.61955473582769 	0.00589891167587984 	0
8 	0.807922061953053 	3.29597460435593e-17 	0.210449525532664 	0.035697253886583 	1.62669620302614 	0.00621455080117196 	0
8 	0.845340872387742 	3.81639164714898e-17 	0.210354618713267 	0.0358661875919686 	1.62710722012759 	0.0064271941222778 	0
8 	0.884130443427309 	4.20670442924376e-17 	0.210211874550845 	0.0358667423783647 	1.61884219699954 	0.00651533084956438 	0
7.99999999999999 	0.924340990046897 	4.27175655959289e-17 	0.210028027453731 	0.0356831436758789 	1.60081398554479 	0.00648854926037837 	0
7.99999999999999 	0.966024566743241 	3.4477629085039e-17 	0.20980739883892 	0.035310988747184 	1.57272117538716 	0.00636602400569994 	0
7.99999999999999 	1.00923513492173 	2.86229373536173e-17 	0.20954928041978 	0.0347528807679609 	1.53474623155204 	0.00616309456237739 	0
7.99999999999999 	1.05402863275205 	3.12250225675825e-17 	0.209249860141932 	0.0340200627755609 	1.48758818019384 	0.0058903641215543 	0
7.99999999999999 	1.10046304758287 	3.46944695195361e-17 	0.208904743861037 	0.0331329289440137 	1.43246442581817 	0.00555755326548562 	0
8 	1.14859849100923 	3.81639164714898e-17 	0.208508434961332 	0.0321164048156526 	1.37086755805602 	0.00517605576636593 	0
8 	1.19849727668994 	3.81639164714898e-17 	0.208056072569985 	0.0310010474938797 	1.30460235852494 	0.00476123757154316 	0
8 	1.25022400101563 	3.12250225675825e-17 	0.207543793834715 	0.0298207117574498 	1.23563665521789 	0.00433117049963292 	0
8 	1.30384562673185 	2.08166817117217e-17 	0.2069687918913 	0.0286093151460841 	1.16590502859625 	0.00390392738119209 	0
8 	1.35943156962565 	1.04083408558608e-17 	0.206329248377457 	0.0273975586108598 	1.09712578324776 	0.00349490408268266 	0
8 	1.41705378838762 	3.46944695195361e-18 	0.205624225767771 	0.0262106623442388 	1.03073387709403 	0.00311517940815194 	0
7.99999999999999 	1.47678687776592 	3.46944695195361e-18 	0.20485362935618 	0.0250667106050614 	0.967731787543133 	0.00277107424550311 	0
7.99999999999999 	1.53870816513277 	1.04083408558608e-17 	0.204018159550228 	0.0239754180837066 	0.908529299889631 	0.00246455602099971 	0
7.99999999999999 	1.60289781058851 	1.73472347597681e-17 	0.203119084872396 	0.0229393908311102 	0.853200827827237 	0.00219425985240009 	0
7.99999999999999 	1.66943891073266 	2.08166817117217e-17 	0.202158052578583 	0.0219563709611542 	0.801731033372183 	0.00195669717894123 	0
7.99999999999999 	1.73841760623657 	2.42861286636753e-17 	0.201137263353183 	0.0210206929750756 	0.754018659941724 	0.00174730592823634 	0
7.99999999999999 	1.80992319335659 	2.08166817117217e-17 	0.200059510296691 	0.0201245030065075 	0.709856254784972 	0.0015612220028577 	0
7.99999999999999 	1.88404823953248 	1.38777878078145e-17 	0.198923737404061 	0.019258957192418 	0.668960545748595 	0.00139384698411956 	0
7.99999999999999 	1.96088870322037 	1.04083408558608e-17 	0.197743722190081 	0.0184163139865895 	0.631086869531142 	0.00124201860477055 	0
7.99999999999999 	2.04004996790234 	1.04083408558608e-17 	0.196539260191981 	0.0175966696269195 	0.596259888020231 	0.00110385667764371 	0
7.99999999999999 	2.11873460271874 	1.38777878078145e-17 	0.1953375418855 	0.0168141214357501 	0.564965788410479 	0.000979078380998386 	0
7.99999999999999 	2.19463865000284 	1.38777878078145e-17 	0.19418144429369 	0.0160813113628744 	0.537568151647379 	0.000869248092280694 	0
7.99999999999999 	2.26786037121375 	1.04083408558608e-17 	0.193086364167018 	0.0153966228330996 	0.513814621461053 	0.000774665093588012 	0
7.99999999999999 	2.33849455540975 	1.04083408558608e-17 	0.19205755811149 	0.0147516444430685 	0.493171909294789 	0.000692302026939497 	0
7.99999999999999 	2.40663264195736 	1.73472347597681e-17 	0.191090400699297 	0.0141380052777138 	0.475136842594968 	0.000618160901024929 	0
7.99999999999999 	2.47236283890404 	2.08166817117217e-17 	0.190174469283802 	0.0135511010436162 	0.459380722179614 	0.000549987532083695 	0
7.99999999999999 	2.5357702371677 	1.73472347597681e-17 	0.189306310157721 	0.0129899787735954 	0.445724153412335 	0.000486303344869348 	0
7.99999999999999 	2.59693692069107 	1.38777878078145e-17 	0.188485517882681 	0.0124546733381419 	0.434043764045617 	0.000426667422723606 	0
7.99999999999999 	2.65594207270333 	1.73472347597681e-17 	0.187710486634307 	0.0119450351743126 	0.424235151290465 	0.000371510876336042 	0
7.99999999999999 	2.71286207822658 	2.08166817117217e-17 	0.186979452206095 	0.0114607075339995 	0.41621186011698 	0.000320938039048915 	0
7.99999999999999 	2.76777062295999 	1.73472347597681e-17 	0.186290618189848 	0.0110011565334031 	0.409905151188782 	0.00027486956772435 	0
7.99999999999999 	2.82073878866949 	1.73472347597681e-17 	0.185642152397594 	0.0105657171757486 	0.405263928740874 	0.00023312922066264 	0
7.99999999999999 	2.87183514520654 	2.42861286636753e-17 	0.185032208204398 	0.0101536399289354 	0.402254766400311 	0.000195497313653317 	0
7.99999999999999 	2.92112583927514 	2.08166817117217e-17 	0.184458948628462 	0.0097641320466897 	0.400862079932611 	0.000161743026137382 	0
8 	2.96867468006189 	1.73472347597681e-17 	0.183920564834489 	0.00939639211056188 	0.40108849807234 	0.000131643985267249 	0
