9.99999999998172e-07 	1.00237532396222 	-8.16794929828506e-17 	-0.112739334769838 	0.000204544212379973 	8134.90581427332 	0.000535909024349632 	0
9.99999999998172e-07 	1.00402679127154 	-8.38186746911413e-17 	-0.112340612639639 	0.000936159149332974 	1809.55937559537 	0.0058976548189608 	0
9.99999999998172e-07 	1.00573875666466 	-8.88565090240547e-17 	-0.111686006880182 	0.00285849286700786 	751.898654657116 	0.0303577794801931 	0
9.99999999998172e-07 	1.00751343636356 	-8.65453796274713e-17 	-0.110648015721051 	0.00654073479786177 	428.485004110151 	0.0899236181346978 	0
9.99999999998172e-07 	1.0093531277769 	-8.36008813445786e-17 	-0.109126510845051 	0.0120029488693756 	290.82384766487 	0.17349325048748 	0
9.99999999998172e-07 	1.01126021247418 	-8.32396217925746e-17 	-0.107097163141164 	0.0186325512338688 	215.327349684336 	0.239447362366492 	0
9.99999999998172e-07 	1.01323715926875 	-8.19334969879085e-17 	-0.104607814402226 	0.0256683154037558 	165.611129536731 	0.257052672691232 	0
9.99999999998172e-07 	1.01528652741381 	-8.0538010207307e-17 	-0.101737321560709 	0.0326391447118678 	129.723031018841 	0.231792081002534 	0
9.99999999998172e-07 	1.01741096991554 	-7.87469590403378e-17 	-0.0985591335909556 	0.0393719829172952 	102.979835154519 	0.187246185674349 	0
9.99999999998172e-07 	1.01961323696746 	-8.02923706526033e-17 	-0.0951310598349558 	0.0458206116704738 	82.8666572687089 	0.142271945904655 	0
9.99999999998172e-07 	1.02189617951075 	-8.03014762567862e-17 	-0.0914998998772441 	0.0519627046378719 	67.664673607556 	0.105365448801873 	0
9.99999999998172e-07 	1.02426275292493 	-7.85015312438709e-17 	-0.0877061393343321 	0.0577766983936921 	56.1010490082704 	0.0781029315058047 	0
9.99999999998173e-07 	1.02671602085371 	-7.80564154300887e-17 	-0.0837849774093796 	0.063246941785601 	47.228005066882 	0.0590833418693596 	0
9.99999999998173e-07 	1.02925915917105 	-7.08049663686447e-17 	-0.0797652320367667 	0.068369467894801 	40.347177686019 	0.0461850722317095 	0
9.99999999998173e-07 	1.03189546009245 	-7.13903720143158e-17 	-0.0756677919934661 	0.073152398317205 	34.9485672445222 	0.0375116129199577 	0
9.99999999998173e-07 	1.03462833643694 	-7.80738854846258e-17 	-0.0715047263946116 	0.077612750413649 	30.6612657336936 	0.0316506782569863 	0
9.99999999998173e-07 	1.03746132604509 	-8.00480016473204e-17 	-0.067279692370404 	0.0817722910007495 	27.2152651136454 	0.0276435446219217 	0
9.99999999998173e-07 	1.04039809635893 	-7.74665628614445e-17 	-0.0629895135557547 	0.0856539919724786 	24.4128273809756 	0.0248680180996566 	0
9.99999999998173e-07 	1.04344244916962 	-7.24397399568455e-17 	-0.0586264054078633 	0.0892795948177451 	22.1075903174723 	0.0229223117513315 	0
9.99999999998173e-07 	1.04659832553909 	-7.14009599261565e-17 	-0.0541807792964784 	0.0926682443253365 	20.1896848322225 	0.0215396059623251 	0
9.99999999998173e-07 	1.0498698109019 	-7.21218908433883e-17 	-0.0496442612525957 	0.0958359714763413 	18.575375540569 	0.0205361062217025 	0
9.99999999998173e-07 	1.05326114035404 	-8.01769624135399e-17 	-0.0450117016618647 	0.0987957715327295 	17.2000155173429 	0.0197763592182024 	0
9.99999999998173e-07 	1.05677670413546 	-8.37258187042986e-17 	-0.0402829822009896 	0.101558034386574 	16.0133778303716 	0.0191462651831042 	0
9.99999999998173e-07 	1.06042105331347 	-8.04263077373879e-17 	-0.0354632829311591 	0.104131056079507 	14.9761914456872 	0.0185454746504812 	0
9.99999999998173e-07 	1.0641989056743 	-7.8547376902141e-17 	-0.030558280735274 	0.106521474751153 	14.0570823350932 	0.0178985824180865 	0
9.99999999998173e-07 	1.06811515183051 	-7.92085919965914e-17 	-0.0255702744729116 	0.1087346912918 	13.2304887563333 	0.0171648426123738 	0
9.99999999998173e-07 	1.07217486155212 	-7.92539082592695e-17 	-0.0204999190375594 	0.110775263326914 	12.4758479385094 	0.016332845473814 	0
9.99999999998173e-07 	1.07638329032966 	-7.30249338442798e-17 	-0.0153477102596989 	0.112647222106726 	11.7773434350249 	0.0154084091971461 	0
9.99999999998173e-07 	1.08074588617769 	-7.04025198395805e-17 	-0.0101129798016184 	0.114354377644112 	11.1236885203902 	0.0144108026530791 	0
9.99999999998173e-07 	1.08526829668749 	-6.94054561815437e-17 	-0.00479338874324556 	0.115900666847217 	10.5077901719027 	0.0133688152980177 	0
9.99999999998173e-07 	1.08995637633815 	-6.77708943515798e-17 	0.000610060976726415 	0.117290541460192 	9.92622649284514 	0.0123028379761022 	0
9.99999999998173e-07 	1.09481619407547 	-7.31567533466962e-17 	0.00608492360856287 	0.118528884929518 	9.37793587339721 	0.0112106961577702 	0
9.99999999998173e-07 	1.09985404116852 	-7.13918543219735e-17 	0.0116122689122038 	0.119620124170416 	8.86223721996579 	0.0100829236136633 	0
9.99999999998173e-07 	1.10507643935396 	-6.42180146543216e-17 	0.0171819130377358 	0.120567585666557 	8.37798402964139 	0.00893205696288513 	0
9.99999999998173e-07 	1.1104901492788 	-6.4895641012125e-17 	0.022795231630049 	0.121373652228667 	7.92403292121679 	0.00779711334591771 	0
9.99999999998173e-07 	1.11610217925231 	-6.68683807462803e-17 	0.0284563713728475 	0.122039999140914 	7.49959320766862 	0.00672168676845673 	0
9.99999999998173e-07 	1.12191979431868 	-6.80236278072168e-17 	0.0341666549017493 	0.122567713441343 	7.10423805814186 	0.00573638783316416 	0
9.99999999998172e-07 	1.12795052566196 	-6.733160188931e-17 	0.0399232399141129 	0.122957482174042 	6.73784128725126 	0.00485700041207965 	0
9.99999999998172e-07 	1.13420218035548 	-6.87262416369642e-17 	0.0457185245038636 	0.123209804481447 	6.40042125175259 	0.00408832763834517 	0
9.99999999998172e-07 	1.14068285146859 	-7.09326565854432e-17 	0.0515402351479897 	0.123325165892855 	6.09191963505975 	0.00342825512019902 	0
9.99999999998172e-07 	1.14740092854343 	-6.900364492719e-17 	0.0573730771466929 	0.123304136539816 	5.81198040399607 	0.00287252275470105 	0
9.99999999998172e-07 	1.15436510845566 	-6.65721309729781e-17 	0.0632023448648427 	0.12314738382474 	5.55979836666945 	0.00241950729298356 	0
9.99999999998172e-07 	1.16158440667297 	-6.64735575137414e-17 	0.0690179648039249 	0.122855616753449 	5.33406609657507 	0.00207204722627095 	0
9.99999999998172e-07 	1.16906816892602 	-7.19903889783271e-17 	0.074816742549025 	0.12242949151998 	5.13300168815852 	0.00183515614241552 	0
9.99999999998172e-07 	1.17682608330699 	-7.61583204744102e-17 	0.080602267097372 	0.121869507122463 	4.95442628957894 	0.00171222896819425 	0
9.99999999998172e-07 	1.18486819281121 	-7.81530830651941e-17 	0.0863831399262947 	0.121175916498077 	4.79586543759844 	0.00170209835857912 	0
9.99999999998172e-07 	1.1932049083384 	-7.98353963775596e-17 	0.0921703331455623 	0.120348671425888 	4.65465654610687 	0.0017977131246063 	0
9.99999999998172e-07 	1.20184702216997 	-8.3638468431613e-17 	0.0979744936951362 	0.119387408676248 	4.52805409524627 	0.00198647885126022 	0
9.99999999998172e-07 	1.21080572194025 	-9.20237769720753e-17 	0.103803866677736 	0.118291475950972 	4.41332961286759 	0.00225169174581622 	0
9.99999999998172e-07 	1.22009260511939 	-8.85261661746255e-17 	0.10966305031854 	0.117059991883718 	4.30786549928203 	0.00257416178010281 	0
9.99999999998172e-07 	1.2297196940268 	-8.20926333028739e-17 	0.115552408258583 	0.115691941882313 	4.20924158507559 	0.00293373797051486 	0
9.99999999998172e-07 	1.23969945139472 	-8.22866038477951e-17 	0.121467457931876 	0.114186331409815 	4.11531227654546 	0.00331205744062119 	0
9.99999999998172e-07 	1.25004479650173 	-7.4568969028006e-17 	0.127398815088401 	0.11254240015896 	4.02426983272309 	0.00369519298499515 	0
9.99999999998172e-07 	1.26076912189747 	-6.76156755639954e-17 	0.133333807389758 	0.110759839481781 	3.9346855399965 	0.00407319225512454 	0
9.99999999998172e-07 	1.27188631073989 	-7.03216281931177e-17 	0.139258490726292 	0.108838964882254 	3.84552076759792 	0.00443829554008978 	0
9.99999999998172e-07 	1.28341075476767 	-7.28401747826599e-17 	0.145159097942816 	0.106780867519336 	3.75610614586882 	0.0047839211004154 	0
9.99999999998172e-07 	1.29535737293106 	-7.26609214351972e-17 	0.151023008087446 	0.104587594883165 	3.66609311132736 	0.00510389541947519 	0
9.99999999998172e-07 	1.30774163070515 	-6.52933229808609e-17 	0.156839191875742 	0.102262403277024 	3.57538617611225 	0.00539183924142876 	0
9.99999999998172e-07 	1.32057956011069 	-5.51442800859783e-17 	0.162598289827111 	0.0998101099278113 	3.48406745950631 	0.00564091092940822 	0
9.99999999998172e-07 	1.33388778046835 	-5.5292828489103e-17 	0.168292405672767 	0.0972375204492632 	3.39232598559212 	0.00584395329502062 	0
9.99999999998172e-07 	1.34768351991316 	-5.93579513612132e-17 	0.173915086394772 	0.0945537760048917 	3.30040256104789 	0.0059938108171425 	0
9.99999999998172e-07 	1.36198463769725 	-6.13388437874858e-17 	0.179462380214941 	0.0917704509970953 	3.20855704615723 	0.00608387423667189 	0
9.99999999998172e-07 	1.37680964730947 	-6.23143081053676e-17 	0.184931738447455 	0.0889013983589873 	3.11705944653281 	0.00611033443738729 	0
9.99999999998172e-07 	1.392177740442 	-5.96241314648879e-17 	0.190643583766928 	0.085771652721192 	3.02047325129743 	0.0060688793872062 	0
9.99999999998172e-07 	1.41220272459524 	-5.36025742428571e-17 	0.197134261724748 	0.0820820786084763 	2.90985309495812 	0.00594047957909155 	0
9.99999999998172e-07 	1.43617694926586 	-5.36025742428571e-17 	0.204105258545006 	0.0780011894152045 	2.79103885034892 	0.00571836507456695 	0
9.99999999998172e-07 	1.45930396367274 	-5.36025742428571e-17 	0.210691957114601 	0.0740099496405499 	2.67947395654447 	0.00543890535376231 	0
9.99999999998172e-07 	1.48161370685419 	-4.6663468580713e-17 	0.216592901842729 	0.07029533563468 	2.58094397164329 	0.00514233092195717 	0
9.99999999998172e-07 	1.50313505985141 	-4.31938098705226e-17 	0.221903007198651 	0.0668390273541182 	2.49457901325258 	0.00484759183951329 	0
9.99999999998172e-07 	1.52389588309638 	-4.31938098705226e-17 	0.226702986259817 	0.063621626416171 	2.41953908414765 	0.00456396414307011 	0
9.99999999998172e-07 	1.54392305247857 	-3.9724362918569e-17 	0.231058620033145 	0.0606235024591761 	2.35499744494452 	0.00429505487992994 	0
9.99999999998172e-07 	1.56324249413703 	-3.97242570394506e-17 	0.235024962378082 	0.0578254967656963 	2.3001556137929 	0.00404109099124798 	0
9.99999999998172e-07 	1.58187921802306 	-4.31935981122858e-17 	0.238648611123865 	0.0552094682601525 	2.2542694671326 	0.00380054257317588 	0
9.99999999998173e-07 	1.59985735027679 	-4.3193386354049e-17 	0.241969132627249 	0.0527586620587591 	2.21667364813942 	0.00357133886580604 	0
9.99999999998173e-07 	1.61720016445966 	-4.31931745958122e-17 	0.245020264191883 	0.0504579067368971 	2.18679877660361 	0.00335156879086574 	0
9.99999999998173e-07 	1.63393011168312 	-3.62540689336681e-17 	0.247830921857669 	0.0482936700690833 	2.16418063133847 	0.00313979845700034 	0
9.99999999998173e-07 	1.65006884967273 	-2.93148573924057e-17 	0.25042601376556 	0.0462540127099977 	2.14846274592036 	0.00293516584542586 	0
9.99999999998173e-07 	1.66563727080512 	-2.93147515132873e-17 	0.252827092737518 	0.0443284778443725 	2.13939457509091 	0.00273735996593456 	0
9.99999999998173e-07 	1.68065552915414 	-2.93147515132873e-17 	0.255052882705801 	0.0425079478338088 	2.13682730352386 	0.00254655021018588 	0
9.99999999998173e-07 	1.69514306658136 	-2.93148573924057e-17 	0.257119706680395 	0.0407844903712187 	2.14070895897639 	0.00236330441619416 	0
9.99999999998173e-07 	1.70911863790442 	-2.93148573924057e-17 	0.259041837977394 	0.0391512088235558 	2.15108001766992 	0.00218851574152541 	0
9.99999999998173e-07 	1.7226003351761 	-3.27845161025961e-17 	0.260831791565492 	0.0376021052061259 	2.16807027147247 	0.00202334685358402 	0
9.99999999998173e-07 	1.73560561110536 	-3.62542806919049e-17 	0.262500568378697 	0.0361319597283058 	2.19189740516837 	0.00186919341637298 	0
9.99999999998173e-07 	1.74815130165068 	-3.62542806919049e-17 	0.264057862281488 	0.034736227854305 	2.22286750842003 	0.00172766559339168 	0
9.99999999998173e-07 	1.76025364781502 	-3.27850454981881e-17 	0.265512236981186 	0.0334109539838609 	2.26137760410372 	0.00160058490979205 	0
9.99999999998172e-07 	1.77192831667064 	-2.93158103044713e-17 	0.266871278422016 	0.0321526998310712 	2.30792019070372 	0.00148999339981132 	0
9.99999999998172e-07 	1.78319042164083 	-2.93158103044713e-17 	0.268141726918786 	0.0309584850774096 	2.36308975067793 	0.0013981719379605 	0
9.99999999998172e-07 	1.79405454206499 	-2.93158103044713e-17 	0.269329592364861 	0.029825737681219 	2.42759115219721 	0.00132766468458165 	0
9.99999999998172e-07 	1.80453474207227 	-2.58464692316361e-17 	0.270440255173477 	0.0287522511910171 	2.5022498561071 	0.00128130649339841 	0
9.99999999998172e-07 	1.81464458878828 	-2.23771281588009e-17 	0.271478555102924 	0.0277361464398558 	2.58802382614471 	0.00126224985697113 	0
9.99999999998172e-07 	1.8243971698984 	-2.23771281588009e-17 	0.272448869716354 	0.0267758350437345 	2.68601702688736 	0.00127398750696506 	0
9.99999999998172e-07 	1.83380511059041 	-2.58465751107545e-17 	0.273355183895078 	0.0258699821765785 	2.79749438624804 	0.00132036621257257 	0
9.99999999998172e-07 	1.84288058989839 	-2.58465751107545e-17 	0.27420115153298 	0.0250174661671969 	2.92389811265503 	0.00140558678842406 	0
9.99999999998172e-07 	1.85163535646909 	-2.23771281588009e-17 	0.274990150272309 	0.0242173326080152 	3.0668653191943 	0.00153418509174491 	0
9.99999999998172e-07 	1.86008074377113 	-2.23771281588009e-17 	0.275725329889697 	0.0234687409538041 	3.22824706237961 	0.0017109892328422 	0
9.99999999998172e-07 	1.8682276847667 	-2.23771281588009e-17 	0.276409654705278 	0.022770902110174 	3.41012921625845 	0.0019410498251959 	0
9.99999999998172e-07 	1.8760867260648 	-2.58465751107545e-17 	0.277045940174724 	0.0221230063559517 	3.61485615892177 	0.00222954339281582 	0
9.99999999998172e-07 	1.88366804157438 	-2.58464692316361e-17 	0.277636883647613 	0.0215241421738862 	3.84505915200834 	0.00258165448919411 	0
9.99999999998172e-07 	1.8909814456749 	-1.89074694486105e-17 	0.278185089155033 	0.0209732081786376 	4.10369265723668 	0.00300244985013306 	0
9.99999999998172e-07 	1.89803640592158 	-1.54380224966569e-17 	0.278693086045073 	0.020468822219101 	4.39408376366867 	0.00349676768870894 	0
9.99999999998172e-07 	1.90484205530155 	-1.54380224966569e-17 	0.279163341332655 	0.0200092336396284 	4.720002478242 	0.00406915605917108 	0
9.99999999998172e-07 	1.91140720405698 	-1.89074694486105e-17 	0.279598265773686 	0.0195922462103236 	5.08576391223705 	0.0047239044299617 	0
9.99999999998172e-07 	1.91774035109035 	-2.23770222796825e-17 	0.280000213897748 	0.0192151598814317 	5.49637741876817 	0.00546522026867382 	0
9.99999999998172e-07 	1.9238496949667 	-2.23771281588009e-17 	0.280371478501951 	0.0188747387959719 	5.95776259760837 	0.0062976060027716 	0
9.99999999998172e-07 	1.92974314452705 	-1.89075753277289e-17 	0.280714280367819 	0.0185672105896051 	6.47705806308743 	0.00722649093014434 	0
9.99999999998172e-07 	1.9354283291268 	-1.54381283757753e-17 	0.281030754155388 	0.0182882979034062 	7.06305661813589 	0.00825916932132431 	0
9.99999999998172e-07 	1.9409126085123 	-1.54384460131305e-17 	0.281322931510503 	0.018033277572881 	7.72681124307149 	0.00940609410635356 	0
9.99999999998172e-07 	1.94620308234835 	-1.54384460131305e-17 	0.281592722378975 	0.0177970567242066 	8.48247219456523 	0.010682580649203 	0
9.99999999998172e-07 	1.95130659940914 	-1.54384460131305e-17 	0.281841895374673 	0.0175742485792618 	9.34843974651476 	0.0121109923080483 	0
9.99999999998172e-07 	1.95622976644424 	-1.54386577713673e-17 	0.282072057852107 	0.0173592243250168 	10.3489543737631 	0.0137235106555882 	0
9.99999999998172e-07 	1.96097895673142 	-1.19692108194137e-17 	0.28228463625858 	0.017146110330547 	11.51630308878 	0.0155656324706695 	0
9.99999999998172e-07 	1.96556031832711 	-5.03010515726966e-18 	0.282480857802842 	0.0169286905584991 	12.8939064256623 	0.0177005608262445 	0
9.99999999998172e-07 	1.96997978202541 	-1.56044644707923e-18 	0.282661735255008 	0.0167001591296867 	14.5406781300899 	0.0202146136084182 	0
9.99999999998172e-07 	1.97424306903575 	1.90900050487438e-18 	0.282828053650343 	0.0164526432319318 	16.5372371286581 	0.023223533628689 	0
9.99999999998172e-07 	1.9783556983893 	5.37844745682799e-18 	0.282980347711203 	0.0161763769064297 	18.9948254032594 	0.0268788635475029 	0
9.99999999998172e-07 	1.98232299408358 	1.90900050487438e-18 	0.283118886483014 	0.0158583495701874 	22.0681902260968 	0.0313716957448808 	0
9.99999999998172e-07 	1.98615009197469 	-5.02989339903285e-18 	0.28324386964156 	0.0154801925860214 	25.9743198208239 	0.0369672981317782 	0
9.99999999998172e-07 	1.98984194642589 	-8.49934035098646e-18 	0.283355942769174 	0.0150136542368848 	31.0228338694692 	0.0439559042565744 	0
9.99999999998172e-07 	1.99340333672126 	-8.49934035098646e-18 	0.283455744822562 	0.0144128789135231 	37.6616969018141 	0.0524337644253252 	0
9.99999999998172e-07 	1.99683887325273 	-5.02989339903285e-18 	0.28354240721149 	0.0136089736410277 	46.5197856474058 	0.0621535845603412 	0
9.99999999998172e-07 	2.00015300348845 	1.90900050487438e-18 	0.283614129857835 	0.0125116298268651 	58.4489885932874 	0.0721932262949029 	0
9.99999999998172e-07 	2.00335001773022 	1.23173413607352e-17 	0.283670416121673 	0.0110211270181931 	74.6816270705579 	0.080364603511702 	0
9.99999999998172e-07 	2.00643405466757 	1.92563411437609e-17 	0.283712331646114 	0.00905911182863675 	97.3893303222322 	0.0822342472341534 	0
9.99999999998172e-07 	2.00940910673542 	1.2317553118972e-17 	0.283741559560057 	0.00665679792860189 	131.461747779384 	0.0715700814057796 	0
9.99999999998172e-07 	2.01227902528252 	5.37865921506481e-18 	0.283760385640094 	0.00411642569847788 	190.812343334452 	0.0477835615031907 	0
9.99999999998172e-07 	2.01504752555717 	1.90921226311119e-18 	0.283771658442075 	0.00199420892352076 	324.167089193905 	0.0219627695827212 	0
9.99999999998172e-07 	2.01771819151684 	-5.02968164079604e-18 	0.283778062092105 	0.000697165104694757 	756.046119358783 	0.00615188362679697 	0
9.99999999998172e-07 	2.02029448046774 	-5.02978751991444e-18 	0.283781583826617 	0.000156523383138879 	3352.73248740215 	0.000873141788238749 	0
9.99999999998172e-07 	2.02277972754047 	-5.03010515726966e-18 	0.283783253023582 	1.73884445475677e-05 	7603.90579271519 	4.30449628569813e-05 	6.04047539629024e-38
