/*--------------------------------*- C++ -*----------------------------------*\
  =========                 |
  \\      /  F ield         | OpenFOAM: The Open Source CFD Toolbox
   \\    /   O peration     | Website:  https://openfoam.org
    \\  /    A nd           | Version:  7
     \\/     M anipulation  |
\*---------------------------------------------------------------------------*/
FoamFile
{
    version     2.0;
    format      ascii;
    class       volScalarField;
    location    "20000";
    object      Cy;
}
// * * * * * * * * * * * * * * * * * * * * * * * * * * * * * * * * * * * * * //

dimensions      [0 1 0 0 0 0 0];

internalField   nonuniform List<scalar> 
15600
(
1.00195550328779
1.00153924448973
0.99806921552198
0.987925562586492
0.968529748206879
0.939031936356126
0.901352975247831
0.858282833219879
0.811857537406336
0.763512855759657
0.71437322332602
0.665405979826934
0.617151719962286
0.56964869371359
0.522778643547317
0.476413670579607
0.430417315161471
0.384667865662167
0.339246891220929
0.294523707384065
0.250995934049275
0.209221907462527
0.169848538363056
0.133606678366061
0.101115143826662
0.0727825679720202
0.0489514376988959
0.0299515775538675
0.0160784452291383
0.00757640046342617
0.00430294082783311
0.0039110065755786
0.00391100657557843
0.00391100657557865
0.00391100657557848
0.00391100657557853
0.0039110065755785
0.00391100657557855
0.00391100657557861
0.00391100657557864
0.00391100657557867
0.00391100657557863
0.00391100657557859
0.00391100657557874
0.00391100657557853
0.00391100657557866
0.00391100657557853
0.00391100657557843
0.00391100657557863
0.00391100657557847
0.00391100657557845
0.00391100657557861
0.00391100657557856
0.00391100657557868
0.00391100657557865
0.00391100657557879
0.00391100657557848
0.00391100657557858
0.00391100657557848
0.00391100657557851
0.00391100657557847
0.00391100657557853
0.00391100657557851
0.00391100657557855
0.00391100657557867
0.00391100657557866
0.00391100657557856
0.00391100657557872
0.00391100657557859
0.00391100657557863
0.00391100657557843
0.00391100657557863
0.00391100657557855
0.00391100657557848
0.0039110065755785
0.00391100657557856
0.00391100657557866
0.00391100657557866
0.00391100657557864
0.00391100657557858
0.00391100657557861
0.00391100657557861
0.00391100657557843
0.00391100657557858
0.00391100657557855
0.00391100657557858
0.00391100657557858
0.00391100657557856
0.00391100657557861
0.00430660002539402
0.00759054637340958
0.0161060334644391
0.0299920816750761
0.049004168405707
0.0728468110082316
0.101190039021017
0.133691370241987
0.169941722229717
0.209321795917397
0.251100916349726
0.294632292125945
0.339357781402717
0.384779909400757
0.430529938374037
0.476527018465879
0.522893054029032
0.569764546935557
0.617269322056169
0.665525524772385
0.714494062426013
0.76363304224008
0.811974349525615
0.858393175193449
0.901453096542445
0.939115767475601
0.968590114181985
0.987960911085387
0.998084877982085
1.00154304518781
1.00195550328779
1.00593826642763
1.00552366874515
1.00206748695495
0.991964312654215
0.97264590327431
0.943265825946014
0.905737259858219
0.862839025734375
0.816599016291671
0.768447266491999
0.719503724176148
0.670731872508249
0.622670159598976
0.57535668592768
0.528673665167296
0.482493708244629
0.436680899650592
0.391114012872277
0.345874289090178
0.301329569269085
0.257975488161212
0.216368154677483
0.177151898805325
0.14105465656766
0.108692776077652
0.0804732596487771
0.0567372271049045
0.037813186319517
0.0239954155567986
0.0155272991211783
0.0122669029757042
0.0118765328552608
0.011876532855261
0.011876532855261
0.0118765328552611
0.0118765328552609
0.011876532855261
0.011876532855261
0.0118765328552612
0.011876532855261
0.011876532855261
0.011876532855261
0.0118765328552611
0.0118765328552609
0.011876532855261
0.0118765328552611
0.011876532855261
0.011876532855261
0.0118765328552609
0.0118765328552609
0.011876532855261
0.0118765328552611
0.0118765328552611
0.0118765328552611
0.0118765328552611
0.0118765328552611
0.011876532855261
0.0118765328552608
0.011876532855261
0.0118765328552609
0.0118765328552609
0.0118765328552609
0.011876532855261
0.0118765328552609
0.0118765328552611
0.0118765328552611
0.0118765328552611
0.0118765328552612
0.0118765328552612
0.0118765328552609
0.011876532855261
0.0118765328552609
0.0118765328552609
0.011876532855261
0.011876532855261
0.0118765328552609
0.0118765328552611
0.0118765328552611
0.011876532855261
0.011876532855261
0.0118765328552611
0.0118765328552612
0.0118765328552611
0.011876532855261
0.0118765328552609
0.011876532855261
0.011876532855261
0.0118765328552609
0.011876532855261
0.0122705475701325
0.015541388579703
0.0240228936991076
0.0378535288076831
0.0567897473903385
0.0805372463247251
0.10876737241063
0.141139010491293
0.177244710840172
0.216467644543873
0.258080051545828
0.301437720717251
0.345984736774232
0.391225609504485
0.436793073445307
0.482606603825448
0.528787619108413
0.575472076856325
0.622787292430308
0.670850940448295
0.719624081092973
0.768566973359858
0.816715362235113
0.862948927315577
0.9058369815187
0.943349322462809
0.972706028326308
0.99199952009182
1.0020830869142
1.00552745427631
1.00593826642763
1.01006692966823
1.00965405395351
1.00621222661858
0.99615101386035
0.976912845150146
0.947654815328375
0.910282153560165
0.867562124674538
0.82151418907474
0.773562438756754
0.724822169978453
0.67625286803537
0.62839075574298
0.581273778588695
0.534784638722189
0.488796475563056
0.443173937680121
0.397796301453276
0.352744468093431
0.308384749961848
0.265210723936941
0.223776189994302
0.184722802823672
0.148775476047492
0.11654799913076
0.0884456837376852
0.0648082325496668
0.0459627885408321
0.0322024073489589
0.0237694621173538
0.0205226080232708
0.0201338593364617
0.0201338593364616
0.0201338593364615
0.0201338593364615
0.0201338593364616
0.0201338593364616
0.0201338593364618
0.0201338593364617
0.0201338593364615
0.0201338593364616
0.0201338593364615
0.0201338593364615
0.0201338593364615
0.0201338593364614
0.0201338593364616
0.0201338593364616
0.0201338593364615
0.0201338593364616
0.0201338593364615
0.0201338593364615
0.0201338593364616
0.0201338593364617
0.0201338593364616
0.0201338593364616
0.0201338593364615
0.0201338593364615
0.0201338593364616
0.0201338593364615
0.0201338593364615
0.0201338593364615
0.0201338593364615
0.0201338593364615
0.0201338593364616
0.0201338593364615
0.0201338593364615
0.0201338593364617
0.0201338593364617
0.0201338593364616
0.0201338593364616
0.0201338593364615
0.0201338593364615
0.0201338593364616
0.0201338593364615
0.0201338593364615
0.0201338593364615
0.0201338593364615
0.0201338593364615
0.0201338593364615
0.0201338593364615
0.0201338593364616
0.0201338593364618
0.0201338593364617
0.0201338593364616
0.0201338593364615
0.0201338593364615
0.0201338593364615
0.0201338593364616
0.0201338593364615
0.0205262374795841
0.0237834930564497
0.0322297713653364
0.0460029634750196
0.0648605347055756
0.088509404662339
0.116622285654429
0.148859479638847
0.184815229405591
0.223875266670822
0.265314853059632
0.308492452243474
0.352854457069719
0.397907434600235
0.443285645593443
0.488908902269061
0.534898119398177
0.581388690288704
0.628507402121064
0.676371441495596
0.72494202704806
0.773681648442348
0.821630051765093
0.867671569730841
0.910381460947108
0.947737964985151
0.976972720453095
0.996186075068979
1.00622776178731
1.00965782376213
1.01006692966823
1.01434683774427
1.01393574707874
1.01050880006099
1.00049108608056
0.981336097596326
0.952204586264149
0.914993539928206
0.87245824429334
0.826609418645526
0.778864994350365
0.730335445683748
0.681976113582326
0.634320913972067
0.587407631656637
0.541119475165948
0.495330131779392
0.449904834812409
0.404723381964041
0.359866322025052
0.315698382751939
0.27271100775619
0.231455603488082
0.192571051329877
0.156779131782504
0.124690981945646
0.0967101609111213
0.0731749023148487
0.0544109342392372
0.0407100449153657
0.0323135592902845
0.0290807433405274
0.0286936754885431
0.0286936754885429
0.0286936754885429
0.028693675488543
0.0286936754885429
0.0286936754885429
0.0286936754885429
0.0286936754885429
0.0286936754885429
0.0286936754885428
0.0286936754885429
0.0286936754885429
0.028693675488543
0.0286936754885429
0.0286936754885428
0.0286936754885429
0.028693675488543
0.0286936754885429
0.028693675488543
0.0286936754885429
0.028693675488543
0.028693675488543
0.0286936754885429
0.0286936754885428
0.0286936754885429
0.028693675488543
0.0286936754885429
0.0286936754885429
0.0286936754885429
0.0286936754885429
0.0286936754885429
0.028693675488543
0.0286936754885429
0.0286936754885429
0.028693675488543
0.0286936754885429
0.0286936754885429
0.028693675488543
0.0286936754885429
0.0286936754885429
0.0286936754885428
0.028693675488543
0.0286936754885429
0.0286936754885428
0.0286936754885429
0.028693675488543
0.0286936754885428
0.0286936754885429
0.028693675488543
0.0286936754885429
0.0286936754885429
0.028693675488543
0.0286936754885429
0.028693675488543
0.0286936754885429
0.028693675488543
0.0286936754885429
0.028693675488543
0.0290843571041433
0.0323275295662264
0.0407372906251405
0.0544509354816184
0.0732269783507299
0.096773606349443
0.12476494731105
0.156862772208082
0.192663078338791
0.231554251838464
0.272814686708701
0.315805619412717
0.359975835489722
0.404834034646882
0.450016059777659
0.495442072434233
0.541232465239604
0.587522046572293
0.634437056076465
0.68209417444815
0.730454784594971
0.778983688640375
0.826724780379938
0.872567216101246
0.91509241786597
0.952287376354543
0.981395714000951
1.00052599570321
1.01052426806567
1.01393950058885
1.01434683774427
1.01878353118271
1.0183742909587
1.01496276938514
1.00499014773587
0.985921386726343
0.956921028653914
0.919877518068942
0.877533722825436
0.831891300983424
0.784361797643057
0.736050688457097
0.687909018144009
0.640468311151501
0.593766185698151
0.547686375254109
0.502103135035512
0.456882304530678
0.411904221859402
0.367249070485914
0.323279935508915
0.280486049117472
0.239416336547219
0.200706804272361
0.165075984895051
0.133132266000421
0.105277389917098
0.0818480674319841
0.0631685599126576
0.0495293417633932
0.041170651343659
0.0379523878051046
0.0375670623654278
0.0375670623654278
0.0375670623654278
0.0375670623654279
0.0375670623654279
0.037567062365428
0.0375670623654279
0.0375670623654279
0.0375670623654279
0.0375670623654279
0.0375670623654278
0.037567062365428
0.037567062365428
0.0375670623654278
0.0375670623654279
0.037567062365428
0.0375670623654278
0.0375670623654279
0.0375670623654279
0.037567062365428
0.0375670623654279
0.0375670623654278
0.0375670623654279
0.0375670623654279
0.037567062365428
0.0375670623654278
0.0375670623654279
0.0375670623654279
0.0375670623654278
0.0375670623654278
0.0375670623654279
0.0375670623654278
0.0375670623654279
0.037567062365428
0.0375670623654278
0.0375670623654278
0.0375670623654279
0.0375670623654279
0.0375670623654279
0.0375670623654278
0.0375670623654278
0.0375670623654278
0.0375670623654278
0.0375670623654278
0.0375670623654279
0.0375670623654279
0.0375670623654279
0.0375670623654279
0.0375670623654277
0.0375670623654278
0.0375670623654279
0.0375670623654278
0.0375670623654279
0.037567062365428
0.0375670623654279
0.0375670623654278
0.0375670623654279
0.0375670623654278
0.0379559853011223
0.0411845587341921
0.0495564648327508
0.0632083811005724
0.081899909064635
0.105340549777443
0.13320589844287
0.165159248851248
0.200798417070942
0.239514540880712
0.280589261408779
0.323386689491776
0.36735809101954
0.412014376477254
0.456993028855981
0.502214571833633
0.547798856753098
0.593880085630592
0.640583930508933
0.688026547637225
0.736169490227975
0.784479957656943
0.83200614341056
0.877642204048841
0.919975950825988
0.957003446006104
0.985980734748181
1.00502490021926
1.01497816776527
1.01837802757324
1.01878353118271
1.02338275347517
1.02297543148059
1.01957990044913
1.00965402306585
0.990674648417942
0.961810248162666
0.924940410516583
0.882795130692166
0.837366673695858
0.790059964464913
0.741975296917042
0.694059262127361
0.646840905372056
0.600357672165942
0.554493840160061
0.509124253320223
0.464115379519109
0.419348117099027
0.374902270818695
0.331139222939036
0.288545913207569
0.247668694743104
0.209140593788754
0.173676776065901
0.141882778938068
0.11415846142921
0.0908389557036293
0.0722470026931597
0.0586717148553439
0.0503522041649085
0.0471490261441859
0.0467655069503362
0.0467655069503361
0.0467655069503361
0.0467655069503361
0.0467655069503361
0.0467655069503361
0.0467655069503362
0.046765506950336
0.0467655069503362
0.0467655069503361
0.0467655069503361
0.0467655069503362
0.0467655069503361
0.0467655069503361
0.0467655069503362
0.0467655069503361
0.0467655069503361
0.0467655069503362
0.0467655069503361
0.0467655069503362
0.0467655069503362
0.0467655069503361
0.0467655069503361
0.0467655069503362
0.046765506950336
0.0467655069503361
0.0467655069503362
0.0467655069503361
0.0467655069503359
0.0467655069503359
0.0467655069503361
0.0467655069503362
0.0467655069503361
0.0467655069503361
0.0467655069503361
0.0467655069503362
0.0467655069503361
0.0467655069503361
0.0467655069503362
0.0467655069503362
0.0467655069503361
0.046765506950336
0.046765506950336
0.046765506950336
0.0467655069503362
0.0467655069503359
0.046765506950336
0.0467655069503362
0.046765506950336
0.046765506950336
0.0467655069503359
0.0467655069503361
0.0467655069503362
0.0467655069503361
0.0467655069503361
0.0467655069503361
0.0467655069503362
0.0467655069503362
0.0471526067766424
0.0503660463663706
0.0586987107917172
0.0722866372308774
0.0908905543464279
0.114221325250265
0.141956066261919
0.173759649761777
0.209231777203479
0.247766438794166
0.288648641742541
0.331245476562062
0.37501078036371
0.419457755406249
0.464225584864493
0.509235167803756
0.55460579445366
0.600471038249645
0.646955982832487
0.694176240781863
0.742093541870201
0.79017757063047
0.837480977792132
0.882903103359932
0.925038381785099
0.961892279122328
0.990733718225083
1.00968861265327
1.01959522665408
1.02297915058061
1.02338275347517
1.028150458513
1.0277451250191
1.02436617033027
1.01448874966837
0.995602035997444
0.966878574123899
0.930188771417704
0.888249279007141
0.84304262486968
0.795966871317416
0.748116940713277
0.700434807293933
0.653446946252082
0.607190624054809
0.561550682480254
0.516402575819826
0.471613423356189
0.427064704181548
0.382835830480385
0.339286419290976
0.296901033931528
0.256223361171248
0.217883337840356
0.182592639438577
0.150953848712749
0.123364872403965
0.100159206238138
0.0816580150232151
0.0681489993880236
0.0598701036681028
0.0566825638018005
0.0563009170259985
0.0563009170259987
0.0563009170259987
0.0563009170259985
0.0563009170259986
0.0563009170259986
0.0563009170259984
0.0563009170259985
0.0563009170259985
0.0563009170259987
0.0563009170259985
0.0563009170259985
0.0563009170259985
0.0563009170259986
0.0563009170259985
0.0563009170259984
0.0563009170259985
0.0563009170259985
0.0563009170259987
0.0563009170259986
0.0563009170259985
0.0563009170259988
0.0563009170259986
0.0563009170259984
0.0563009170259985
0.0563009170259986
0.0563009170259985
0.0563009170259985
0.0563009170259984
0.0563009170259985
0.0563009170259986
0.0563009170259985
0.0563009170259985
0.0563009170259984
0.0563009170259987
0.0563009170259988
0.0563009170259987
0.0563009170259985
0.0563009170259985
0.0563009170259985
0.0563009170259986
0.0563009170259984
0.0563009170259986
0.0563009170259986
0.0563009170259984
0.0563009170259984
0.0563009170259985
0.0563009170259985
0.0563009170259986
0.0563009170259984
0.0563009170259985
0.0563009170259985
0.0563009170259986
0.0563009170259986
0.0563009170259986
0.0563009170259986
0.0563009170259987
0.0563009170259986
0.0566861269528976
0.059883878292444
0.0681758635342781
0.0816974560733995
0.100210552989928
0.123427429341206
0.151026778275619
0.182675108578009
0.217974076141869
0.256320628078498
0.297003260988786
0.339392154224484
0.382943810317742
0.427173807264097
0.471723090709814
0.516512948854763
0.561662090255235
0.60730343673311
0.653561461963947
0.700551214930465
0.748234608450486
0.796083903345466
0.843156370914615
0.888356724489809
0.930286264292515
0.966960204536515
0.995660817397772
1.01452317039221
1.02438142171595
1.02774882596297
1.028150458513
1.0330928182948
1.03268954614712
1.02932777506258
1.01950058631547
1.00070992820548
0.972132567733251
0.935629395015855
0.893903228393393
0.848926502246822
0.802090164922453
0.754483570455187
0.707043907066619
0.660294985616978
0.614273886947973
0.568866037642544
0.523947524684616
0.479386142636333
0.435063972619568
0.391060019868111
0.347732071526946
0.305562227419944
0.2650914102812
0.226946354345998
0.191835117033062
0.160357218254363
0.132908540964032
0.109820884516888
0.0914137798695894
0.0779734641137248
0.0697366711805759
0.066565342350734
0.0661856365895985
0.0661856365895984
0.0661856365895985
0.0661856365895986
0.0661856365895984
0.0661856365895984
0.0661856365895983
0.0661856365895985
0.0661856365895986
0.0661856365895984
0.0661856365895986
0.0661856365895983
0.0661856365895983
0.0661856365895985
0.0661856365895984
0.0661856365895985
0.0661856365895984
0.0661856365895984
0.0661856365895985
0.0661856365895983
0.0661856365895984
0.0661856365895983
0.0661856365895985
0.0661856365895985
0.0661856365895984
0.0661856365895983
0.0661856365895984
0.0661856365895985
0.0661856365895985
0.0661856365895984
0.0661856365895986
0.0661856365895985
0.0661856365895984
0.0661856365895984
0.0661856365895985
0.0661856365895985
0.0661856365895985
0.0661856365895983
0.0661856365895984
0.0661856365895985
0.0661856365895985
0.0661856365895984
0.0661856365895984
0.0661856365895986
0.0661856365895985
0.0661856365895983
0.0661856365895984
0.0661856365895984
0.0661856365895985
0.0661856365895985
0.0661856365895984
0.0661856365895984
0.0661856365895985
0.0661856365895984
0.0661856365895985
0.0661856365895984
0.0661856365895985
0.0661856365895985
0.0665688873800397
0.0697503757522652
0.0780001916421308
0.0914530203444475
0.109871970150458
0.132970779775685
0.16042977695077
0.191917166796233
0.227036631228755
0.265188182565566
0.305663934628926
0.347837268769814
0.391167450592994
0.435172520870536
0.47949525228989
0.524057336435986
0.568976878878172
0.614386125947792
0.660408919001461
0.70715972276667
0.75460063983096
0.802206601780543
0.849039669797547
0.894010127379101
0.935726391972533
0.972213782925798
1.00076841063349
1.01953483198947
1.02934294888805
1.03269322826973
1.0330928182948
1.0382162309162
1.03781509562891
1.03447113765772
1.02469602105554
1.00600493745458
0.977579030542306
0.94126932444696
0.899764298123531
0.855025922736048
0.808437772121109
0.761083428004087
0.713895117213989
0.66739388856988
0.621616630468119
0.576449375732483
0.531768867226308
0.487443599535633
0.443356277871661
0.399585485614698
0.356487112976422
0.314540706031084
0.274284322213008
0.236341375833737
0.201416173687521
0.170105060670289
0.142801821826715
0.11983649801345
0.101526926494547
0.0881578272224483
0.0799646793931897
0.0768101554690092
0.0764324618323937
0.0764324618323939
0.0764324618323937
0.0764324618323939
0.0764324618323938
0.0764324618323937
0.0764324618323938
0.0764324618323938
0.0764324618323938
0.0764324618323939
0.0764324618323938
0.0764324618323937
0.0764324618323939
0.0764324618323937
0.076432461832394
0.0764324618323937
0.0764324618323938
0.0764324618323937
0.0764324618323937
0.0764324618323938
0.0764324618323937
0.0764324618323938
0.0764324618323938
0.0764324618323939
0.0764324618323938
0.0764324618323937
0.0764324618323939
0.0764324618323937
0.0764324618323937
0.0764324618323937
0.0764324618323938
0.0764324618323938
0.0764324618323937
0.0764324618323938
0.0764324618323938
0.0764324618323938
0.0764324618323936
0.0764324618323938
0.0764324618323937
0.076432461832394
0.0764324618323937
0.0764324618323938
0.0764324618323938
0.0764324618323939
0.0764324618323938
0.076432461832394
0.0764324618323937
0.0764324618323938
0.0764324618323938
0.0764324618323937
0.0764324618323939
0.0764324618323937
0.0764324618323937
0.0764324618323937
0.0764324618323938
0.0764324618323938
0.0764324618323936
0.0764324618323938
0.0768136817126276
0.079978311346012
0.0881844131284312
0.101565959046657
0.119887312963591
0.142863730859213
0.17017723491468
0.201497788711745
0.236431174394882
0.274380581755136
0.314641874348265
0.356591752831439
0.399692347111454
0.443464250965855
0.487552131058855
0.531878097132519
0.576559629674582
0.621728274773692
0.667507218294282
0.714010319292721
0.761199877098271
0.808553592006294
0.85513849060081
0.899870630592983
0.941365807319162
0.977659815304251
1.0060631099577
1.02473008526679
1.03448623108161
1.03781875824077
1.0382162309162
1.04352732885235
1.043128408706
1.03980291641978
1.03008177961231
1.01149391838928
0.983225013263533
0.947115860856942
0.905840075594702
0.86134878227316
0.815017910135074
0.767925057142469
0.720997306925997
0.674752844967895
0.629228360147879
0.58431051375279
0.539876728562381
0.495796224837906
0.451952354748084
0.408423264371427
0.365562877489935
0.323848092865954
0.283813997658974
0.246080564629235
0.211348212547385
0.180209995004012
0.15305752229762
0.130219012384926
0.112010546804795
0.0987152728059214
0.0905673688948913
0.0874302655016186
0.0870546577047052
0.0870546577047052
0.0870546577047051
0.087054657704705
0.0870546577047051
0.087054657704705
0.0870546577047052
0.0870546577047051
0.0870546577047053
0.0870546577047053
0.0870546577047051
0.0870546577047052
0.087054657704705
0.0870546577047051
0.0870546577047051
0.0870546577047054
0.0870546577047052
0.087054657704705
0.0870546577047052
0.0870546577047051
0.087054657704705
0.0870546577047052
0.0870546577047051
0.0870546577047052
0.0870546577047051
0.0870546577047052
0.0870546577047051
0.0870546577047051
0.087054657704705
0.0870546577047051
0.0870546577047049
0.0870546577047053
0.0870546577047051
0.0870546577047051
0.0870546577047051
0.0870546577047051
0.0870546577047052
0.087054657704705
0.0870546577047052
0.0870546577047051
0.087054657704705
0.0870546577047051
0.0870546577047051
0.0870546577047051
0.0870546577047052
0.0870546577047051
0.0870546577047052
0.0870546577047051
0.0870546577047051
0.0870546577047051
0.087054657704705
0.0870546577047052
0.087054657704705
0.0870546577047052
0.0870546577047051
0.0870546577047052
0.0870546577047052
0.087054657704705
0.0874337722713295
0.0905809255686249
0.0987417119015857
0.112049363817595
0.130269546736055
0.153119089470511
0.180281770713186
0.211429376907214
0.246169867346736
0.283909725675739
0.323948702550192
0.365666939538324
0.408529535787493
0.452059731615753
0.495904157052072
0.539985355308614
0.584420158886898
0.629339387973549
0.674865548918012
0.721111872904153
0.768040863231882
0.81513309044571
0.861460728483911
0.905945820795283
0.947211810812856
0.983305351827164
1.01155176961369
1.03011565571299
1.03981792649662
1.04313205109236
1.04352732885235
1.04903298754386
1.04863636368672
1.04533001356457
1.0356648340916
1.01718397675975
0.989077824897811
0.953176572853325
0.912138426150649
0.867903266042392
0.821839097203933
0.775017314634097
0.728359670295422
0.682381381318717
0.637118929735207
0.592459628332014
0.548281604723566
0.504454831437917
0.460863331307633
0.417584797095571
0.374971114111443
0.333496436815085
0.293692773269762
0.256176528600572
0.221644091121842
0.190685102571033
0.16368891885019
0.140981868256418
0.122878212299314
0.109659467924729
0.101558465312961
0.0984394206289433
0.098065975087711
0.0980659750877112
0.0980659750877111
0.0980659750877111
0.098065975087711
0.0980659750877111
0.098065975087711
0.0980659750877111
0.0980659750877111
0.0980659750877111
0.0980659750877111
0.0980659750877113
0.0980659750877113
0.0980659750877111
0.0980659750877111
0.0980659750877109
0.0980659750877112
0.0980659750877111
0.098065975087711
0.0980659750877112
0.0980659750877112
0.0980659750877112
0.0980659750877111
0.098065975087711
0.0980659750877112
0.098065975087711
0.0980659750877111
0.098065975087711
0.0980659750877111
0.0980659750877112
0.0980659750877114
0.0980659750877109
0.0980659750877112
0.0980659750877112
0.098065975087711
0.0980659750877111
0.098065975087711
0.0980659750877111
0.098065975087711
0.098065975087711
0.0980659750877112
0.0980659750877111
0.0980659750877112
0.0980659750877114
0.098065975087711
0.098065975087711
0.0980659750877111
0.098065975087711
0.0980659750877111
0.098065975087711
0.0980659750877111
0.098065975087711
0.0980659750877112
0.098065975087711
0.098065975087711
0.0980659750877111
0.098065975087711
0.0980659750877111
0.0984429072113125
0.101571943949934
0.109685754832142
0.122916805877246
0.141032111729735
0.163750131640507
0.190756465145909
0.221724788308459
0.256265317310535
0.293787950289977
0.333596467402061
0.375074577186435
0.417690456814494
0.460970090107155
0.504562142388481
0.548389606214153
0.592568642355512
0.63722931849723
0.682493436570216
0.728473576870221
0.775132454163119
0.821953614510387
0.86801456782635
0.912243562569549
0.953271970371336
0.989157700917808
1.01724149493568
1.03569851519031
1.045344937241
1.04863998510665
1.04903298754386
1.05474033429714
1.05434609085029
1.05105958415479
1.0414524120069
1.02308247862058
0.995145042196263
0.959459306303079
0.918667503263575
0.874697859072228
0.82891016361213
0.782369381689273
0.735991738219895
0.690289373113117
0.645298553949478
0.600907268898645
0.556994376241538
0.51343062833929
0.470100743263533
0.427081943861438
0.384724002288172
0.343498228156559
0.303933437624926
0.266642337479822
0.232317137928535
0.201543943893213
0.17470977431261
0.152138998620335
0.134143991638035
0.121004580300644
0.112952197081143
0.109851872664087
0.109480668594281
0.109480668594281
0.109480668594281
0.109480668594281
0.109480668594281
0.109480668594281
0.109480668594281
0.109480668594281
0.109480668594281
0.109480668594281
0.109480668594281
0.109480668594281
0.109480668594281
0.109480668594281
0.109480668594281
0.109480668594281
0.109480668594281
0.109480668594281
0.109480668594281
0.109480668594281
0.109480668594281
0.109480668594281
0.109480668594281
0.109480668594281
0.109480668594281
0.109480668594281
0.109480668594281
0.109480668594281
0.109480668594281
0.109480668594281
0.109480668594281
0.109480668594281
0.109480668594281
0.109480668594281
0.109480668594281
0.109480668594281
0.109480668594281
0.109480668594281
0.109480668594281
0.109480668594281
0.109480668594281
0.109480668594281
0.109480668594281
0.109480668594281
0.109480668594281
0.109480668594281
0.109480668594281
0.109480668594281
0.109480668594281
0.109480668594281
0.109480668594281
0.109480668594281
0.109480668594281
0.109480668594281
0.109480668594281
0.109480668594281
0.109480668594281
0.109480668594281
0.109855338319541
0.112965594822664
0.121030709444877
0.134182353596322
0.152188940560528
0.174770619738658
0.201614878199935
0.232397350828381
0.266730593352976
0.304028043464122
0.343597658432298
0.384826844447581
0.427186969474884
0.47020686135317
0.513537295267429
0.557101729571386
0.601015628691874
0.645408280236793
0.690400755901842
0.736104961234878
0.782483830239325
0.829023993626475
0.874808492822383
0.918772008599949
0.959554131146479
0.995224438728543
1.02313965154707
1.04148589095975
1.05107441826557
1.05434969053571
1.05474033429714
1.06065675751094
1.06026498167713
1.05699904536238
1.0474520056356
1.02919705986641
1.0014345194688
0.965972194489394
0.925435759088981
0.881741357219365
0.836240263119871
0.789990775850055
0.743903390739936
0.698487057609097
0.653777821704967
0.609664371337902
0.566026322234352
0.522735235165185
0.479676548917109
0.436926999213916
0.394834167637644
0.353866414725421
0.314549247788481
0.27749153978255
0.24338116974799
0.21280057625346
0.186134355684296
0.163704846873094
0.145822468854081
0.132765296657065
0.12476331385865
0.121682395502157
0.121313515021885
0.121313515021885
0.121313515021884
0.121313515021885
0.121313515021885
0.121313515021885
0.121313515021885
0.121313515021884
0.121313515021885
0.121313515021885
0.121313515021885
0.121313515021885
0.121313515021885
0.121313515021885
0.121313515021885
0.121313515021885
0.121313515021885
0.121313515021884
0.121313515021885
0.121313515021885
0.121313515021884
0.121313515021885
0.121313515021884
0.121313515021885
0.121313515021885
0.121313515021885
0.121313515021884
0.121313515021885
0.121313515021885
0.121313515021884
0.121313515021885
0.121313515021884
0.121313515021885
0.121313515021885
0.121313515021885
0.121313515021885
0.121313515021885
0.121313515021885
0.121313515021885
0.121313515021885
0.121313515021884
0.121313515021885
0.121313515021885
0.121313515021884
0.121313515021885
0.121313515021885
0.121313515021885
0.121313515021885
0.121313515021884
0.121313515021885
0.121313515021884
0.121313515021885
0.121313515021884
0.121313515021885
0.121313515021884
0.121313515021885
0.121313515021885
0.121313515021885
0.121685839464025
0.124776627741306
0.132791262258976
0.145860590708138
0.163754476234548
0.186194820288849
0.212871066603811
0.243460880620612
0.277579243299882
0.314643261522784
0.353965222698815
0.394936366135483
0.437031367492657
0.479782002825682
0.522841234478346
0.566133003659257
0.609772052934276
0.653886861248857
0.698597743300316
0.744015905153671
0.790104508108015
0.836353380664416
0.881851298463937
0.925539610225079
0.966066425680202
1.0015134189486
1.02925387489551
1.04748527503701
1.05701378662632
1.06026855883184
1.06065675751094
1.06678991624074
1.06640069841734
1.06315608607026
1.05367138171806
1.03553563611705
1.00795439875187
0.972723668640518
0.93245195540715
0.889042878555041
0.84383888481274
0.797891363310897
0.752104869828953
0.706985047084479
0.662567709818629
0.618742272148819
0.575389135007863
0.532380697200571
0.489603144638506
0.447132708084502
0.405314698292301
0.364614418675441
0.325553946470953
0.288738180347125
0.25485050951014
0.224469571893504
0.197977452605051
0.175694385512539
0.157928762233168
0.144956841731295
0.137007105623897
0.133946304245378
0.133579832481466
0.133579832481466
0.133579832481466
0.133579832481466
0.133579832481466
0.133579832481466
0.133579832481466
0.133579832481466
0.133579832481466