/*--------------------------------*- C++ -*----------------------------------*\
  =========                 |
  \\      /  F ield         | OpenFOAM: The Open Source CFD Toolbox
   \\    /   O peration     | Website:  https://openfoam.org
    \\  /    A nd           | Version:  7
     \\/     M anipulation  |
\*---------------------------------------------------------------------------*/
FoamFile
{
    version     2.0;
    format      ascii;
    class       volScalarField;
    location    "20000";
    object      Dk;
}
// * * * * * * * * * * * * * * * * * * * * * * * * * * * * * * * * * * * * * //

dimensions      [0 2 -3 0 0 0 0];

internalField   nonuniform List<scalar> 
15600
(
0.00109314179720667
0.00109353486812562
0.000788960308175041
0.000441041613739243
0.000189455938629488
6.84102112509408e-05
4.68976853038554e-05
3.8211441306469e-05
2.32368854465429e-05
1.3908526780916e-05
9.53757192107587e-06
7.25525427281057e-06
6.02856435507027e-06
5.55320644772278e-06
5.54010799004349e-06
5.94470712768303e-06
6.7900826306179e-06
8.11492266055007e-06
9.89414632830021e-06
1.21351876256421e-05
1.48548608515951e-05
1.79941409716771e-05
2.1440275383184e-05
2.51206247804318e-05
2.91930010829597e-05
3.35877245138542e-05
3.81008008612208e-05
4.26132802583721e-05
4.73111900068648e-05
5.30178875534447e-05
6.27586449659148e-05
8.23719146558919e-05
0.000103903946639564
0.000125166224068971
0.000145867615764332
0.000166133441512078
0.000185904517610196
0.00020525975805079
0.000224189945991598
0.000242712964141305
0.000260814768292299
0.000278492866274168
0.000295758201677393
0.000312653554321744
0.000329247134856335
0.00034536092666851
0.000360691762982055
0.00037509130558694
0.00038849997773865
0.000400866405259327
0.000412148955730626
0.000422320486665577
0.000431369222405138
0.000439295850136442
0.000446110410543489
0.000451830034517908
0.000456478129665455
0.00046008249953945
0.00046267542817386
0.00046428979277193
0.000464961205754069
0.000464724105385742
0.000463619964320702
0.00046169931735068
0.000459016479683954
0.000455628284355555
0.000451590053978811
0.000446954443431367
0.00044177079030414
0.000436078515240575
0.000429908937326298
0.000423275582801359
0.000416196939702335
0.000408696901005213
0.000400813501430761
0.000392565466648575
0.000383997759949462
0.000375084668767093
0.000365861605573324
0.000356216206683351
0.000346238845366844
0.000335670512680606
0.000324763406568064
0.000312841955536677
0.000300504496490339
0.000286123667451471
0.000271392364924702
0.00025215437939849
0.000232488612249616
0.000209330502390353
0.00021928587671352
0.000241418225763825
0.000273674559531613
0.000310803012423391
0.000355151778482159
0.000407215829915666
0.000470288355085801
0.000548917228994238
0.000634218349806573
0.000721591754094239
0.000806347495503205
0.000882581240941842
0.000940159697078865
0.000974107620448083
0.00100977846553059
0.00105538357054576
0.00111768052187548
0.0012107611247188
0.00136156195601717
0.0016091364454365
0.00189477138375408
0.00223791653606677
0.00263899721165782
0.00303402921781326
0.00310106453533985
0.00249176763161998
0.00186814646014971
0.00139582489423143
0.00106593610503859
0.00102758127937969
0.0059652460264338
0.00597018499112447
0.00434856728261663
0.00243902758489737
0.00105176126952405
0.000380958485200973
0.000257346577828195
0.000210068931424644
0.000128778849664721
7.7180099868446e-05
5.27555109866039e-05
4.00169645721371e-05
3.31527309077339e-05
3.04452410447134e-05
3.02946388004573e-05
3.24298237871564e-05
3.69723472365545e-05
4.4140948958525e-05
5.38108563873133e-05
6.60247722451994e-05
8.08847380431706e-05
9.80862942416183e-05
0.00011702231647958
0.000137283039261551
0.000159709677297143
0.00018394120794884
0.000208868821217446
0.000233843748249718
0.000259896324295876
0.000291862995318454
0.000346946228444916
0.000454690054617373
0.000572746150330846
0.000689337239419152
0.000802818186611187
0.000913853091695344
0.00102212587177261
0.0011280505875492
0.00123156738730754
0.00133276096559863
0.00143154603192271
0.0015279019104686
0.00162188477788958
0.0017137265659553
0.0018038066236337
0.00189081924130528
0.00197289417094986
0.00204977172625804
0.00212115401009188
0.00218678976325234
0.00224648364439834
0.00230011891803152
0.00234765965310724
0.00238913440599018
0.00242461954024019
0.00245422739667591
0.00247810137146292
0.00249640650332312
0.0025093284957389
0.00251705521683915
0.00251978567445313
0.00251771342831884
0.00251106758573183
0.00250012170734055
0.00248516734768546
0.00246650664543138
0.00244443227998095
0.00241922171797432
0.00239113281594094
0.00236037162092769
0.00232709874445184
0.00229138477966368
0.00225332415022448
0.00221304236406566
0.00217073116431316
0.00212649193448679
0.00208054371224352
0.00203276719638871
0.0019833105746589
0.00193163144870304
0.00187811114007294
0.00182151774813278
0.00176295547000308
0.00169919053781618
0.00163283776208258
0.00155609737492518
0.00147666043515633
0.00137431666248832
0.00126814389706142
0.00114525286494057
0.00119972529522646
0.00131984874647515
0.00149339605297758
0.00169416245890967
0.00193369842897304
0.00221515658496031
0.00255591631831167
0.00297806850110624
0.00343585049632468
0.0039052504515664
0.00436177390512636
0.00477447531142554
0.00509135377578412
0.00528854032895433
0.00549312502926254
0.00575034287217552
0.00609781353112235
0.00661114384857507
0.00743314368085927
0.00876130268735733
0.0103054020215799
0.0121551677949661
0.0143044108916001
0.0164258717363017
0.0169127343539325
0.0138204547504508
0.0104400617708693
0.00778083330566438
0.00591126388316734
0.00564679985418796
0.0146423737263086
0.0145918865793897
0.0109252899125261
0.00618552472919773
0.00264892796659219
0.000945076873557146
0.000620809604230432
0.000506857771587795
0.000313664887963863
0.000188597890578597
0.000128648043130454
9.73839305873955e-05
8.05092281674473e-05
7.37552916606629e-05
7.32168206815106e-05
7.82208678832425e-05
8.90550784081726e-05
0.000106256038650695
0.000129556892022907
0.000159064790243597
0.000195020237216521
0.000236695130127483
0.000282652824148472
0.000331988194186728
0.000386608996166409
0.000445649783631668
0.000506603003306314
0.000568226348227961
0.000633708773098194
0.000717537893026365
0.000862865346680675
0.00112295691372627
0.00140255458063338
0.00167640499043086
0.00194061302653946
0.00219697686427119
0.00244499600542359
0.00268572345305162
0.00291913292541496
0.0031455070517607
0.00336475834795323
0.00357694455729806
0.0037823112096713
0.00398152117173042
0.00417422499255728
0.00435459864450204
0.00452323326601986
0.00467970303139589
0.00482364495462777
0.00495479294207431
0.00507299545101063
0.0051782462013448
0.00527067703778004
0.00535052278377771
0.00541808898136957
0.00547373062879853
0.00551784159716557
0.00555083978765475
0.00557316160826104
0.00558523570552794
0.00558749337753437
0.00558035341321365
0.00556429104071725
0.00553984939579066
0.00550759583216423
0.00546810553758031
0.00542192870674884
0.00536958109063099
0.00531153234226203
0.00524815427685235
0.00517972066287847
0.00510634590837411
0.00502817932469756
0.00494544045635563
0.00485844349140404
0.00476737285481878
0.00467256131622612
0.00457382126576153
0.00447125889323684
0.00436398375670557
0.00425231075749073
0.00413432655618003
0.00401122628081412
0.00387789851429444
0.003737160055607
0.00357665487444979
0.00340629507263149
0.00319247043197527
0.00296153560577266
0.0026959961743082
0.00280659779350948
0.00306457915433721
0.00343585720750283
0.00387273829518127
0.00439421683864775
0.00500994885682118
0.00575442297923838
0.00666655678394446
0.00766483320272691
0.00870070624550587
0.00972586759904744
0.0106802491922423
0.0114656848495596
0.0120333814285623
0.0126029165243567
0.0132789401535755
0.0141491806863385
0.0153731674859503
0.0172411482078598
0.020139919794013
0.0235650712624766
0.0276242075203153
0.0322455715924586
0.036824088170665
0.0385947291929882
0.033499993843043
0.026596318009134
0.020307034560062
0.0154010109311476
0.0142751175250704
0.0262844631610864
0.0254915332593285
0.0200106213720477
0.0119014695212714
0.00508039704201046
0.00172929320535448
0.00107160623156415
0.000869927549873789
0.000544547626463929
0.000329215298951913
0.000224361158485954
0.000169647035059753
0.000140114870993539
0.000128164284125616
0.000126978585524037
0.000135487626892458
0.00015416025861773
0.000183878567234192
0.000224195514155173
0.000275224137548176
0.000337179513774816
0.000408613985051601
0.000487054171435785
0.000571200187561957
0.000663749594649519
0.000763198919327313
0.000866312408825491
0.000972903432440982
0.00109145493370115
0.00124994655567465
0.00150744762931715
0.00189816134653148
0.00229779338967683
0.00267709012686229
0.00303229145065916
0.00336840570851875
0.00368659661569108
0.00398935727431834
0.00427771234357705
0.00455279006323905
0.00481522242386936
0.00506568420667471
0.00530508827983702
0.00553373855449695
0.0057449942723317
0.00594153581811373
0.00612351928546311
0.00629094370944113
0.00644384404010617
0.00658231476041432
0.00670653084841266
0.00681676457256481
0.00691337387442748
0.00699677298027412
0.00706740735522725
0.00712573926115525
0.0071722396744244
0.00720738087024735
0.00723162970152452
0.00724543575196568
0.00724923421822148
0.00724345081052716
0.00722855106153653
0.00720504795440954
0.0071734706507533
0.00713434498008553
0.00708816915568389
0.00703540505164833
0.00697646365601277
0.00691166809420226
0.00684123779043666
0.00676525760023317
0.00668382604580509
0.0065971193703691
0.0065053599992517
0.00640870023173151
0.0063073362968595
0.00620114016096027
0.00608996178620323
0.00597313263999071
0.00585033879714693
0.00572035634607946
0.0055829700292956
0.00543483732809118
0.00527519950326623
0.00509630989470355
0.00489968199306047
0.00466152328958448
0.00438672146537127
0.00407611092302307
0.00417383755644485
0.00447393692366751
0.00491807750803057
0.00546188509587852
0.00612043288891393
0.00690745601677098
0.00785936061739783
0.00900954156385323
0.0102892099783115
0.011646294096294
0.013030724312097
0.0143832046287552
0.0156134928732714
0.0166787753750409
0.0177574047692333
0.0189764829924779
0.0204515406643855
0.0223676004412215
0.0250380426612
0.0288282454942042
0.0332913805817951
0.0383833689881276
0.0438391427669442
0.0489733600653699
0.0514112402155934
0.0482572861492772
0.0424997473429014
0.0358407290309343
0.0291529647052503
0.0268034862414831
0.03705348924727
0.0346179317118637
0.0288727198710545
0.0194072653674714
0.00883331383814039
0.00286243429350004
0.00158152142243062
0.00125767570298121
0.000799022665648269
0.000487409878176417
0.000332474290622159
0.000251480904754563
0.000207827088851197
0.000189967074990898
0.000187987260450407
0.000200477240594556
0.000228007043727374
0.00027157464748153
0.00033025540017576
0.000403646102758504
0.000491064392494298
0.000589488116519836
0.00069505123587106
0.000806069394396971
0.000924982178447208
0.00105032059959857
0.00118089746496243
0.00132098449207188
0.0014856034668259
0.00170628833336429
0.0020219745813382
0.00240356215491198
0.00278404945099589
0.00313618585797519
0.00346073409921596
0.00376370032329611
0.00404832119534333
0.00431700725802445
0.00457153804126506
0.00481309365509857
0.00504262864197784
0.00526089747044771
0.00546856965671658
0.00566096268046641
0.00584004531127006
0.00600657129215059
0.00616067325127701
0.00630244899373922
0.00643201539734048
0.00654952617839455
0.00665518950906039
0.0067492716571315
0.00683208935823873
0.00690399266715079
0.00696534923449372
0.00701653552246331
0.00705793040907973
0.00708991267405
0.00711285436709152
0.00712711970855494
0.0071330613258682
0.00713103389788821
0.00712141451464264
0.00710460803656599
0.00708103080214532
0.00705109134317321
0.00701517670773686
0.00697364459889066
0.0069268111790905
0.0068749330845161
0.00681818675921916
0.00675666455093664
0.00669045195321891
0.00661969598729598
0.00654454423278809
0.00646512900160672
0.00638154876883131
0.0062938020401061
0.00620165220642684
0.00610482454225025
0.00600268471148057
0.00589495735160752
0.0057805132794915
0.00565857885203802
0.00552628009137176
0.00538156127140011
0.00521919912347388
0.00503249097738716
0.00480740172315354
0.0045707690737065
0.00460194381615359
0.00483540127676327
0.00521115049795933
0.00569754012608352
0.0062994583444082
0.0070281998902287
0.00790971072179993
0.00896068637125138
0.0101419094093208
0.0114136107787296
0.0127385662662068
0.0140765611855571
0.015375717106352
0.0166299582438176
0.0179350860445173
0.0193933303659512
0.0211094440355852
0.0232243081552381
0.0259597136886075
0.0294563751182225
0.0334900723662494
0.0378684874492223
0.0422451841252838
0.0460525818793889
0.04790283905647
0.0474142848912845
0.0462464184204842
0.0439873954591488
0.0404320702419549
0.03855909591872
0.0416178238081261
0.0381316550152435
0.0334828212713162
0.0264628471221587
0.0140202425582465
0.00466570531743752
0.00215106266308645
0.00162465453707792
0.00105126091811599
0.00065040597546421
0.000445356351938985
0.000337724284386854
0.000279831200436893
0.000255793056775234
0.00025295253596028
0.000269532794500164
0.000305831453185007
0.000362210226171133
0.000436395760003544
0.000526228922907941
0.000628711347988189
0.000738706409215317
0.000851746879010888
0.000966968250862647
0.00108684273337262
0.00121247605000072
0.00134739194645128
0.00150061328772005
0.001689069129589
0.00193526760434934
0.00224391657314871
0.00254305873070453
0.00286248684384037
0.00315545687915656
0.00342993467217478
0.00368641229905645
0.00392921955850313
0.00415885723055825
0.00437716127617437
0.00458464925334773
0.00478216538544545
0.00497023923312488
0.00514627434859057
0.00531049915414083
0.00546385498056712
0.00560664672258861
0.00573894451808975
0.00586082231122645
0.00597237449633964
0.00607372897941751
0.00616505855225876
0.00624657837111659
0.00631854199939049
0.00638123055808979
0.00643494097613757
0.0064799790838928
0.00651665387788379
0.00654527663322831
0.00656615537276414
0.00657959741556605
0.00658590358547199
0.00658538141052814
0.00657835079528653
0.00656514982364172
0.00654612596080444
0.00652161813635738
0.00649194836656999
0.00645741459245997
0.00641828169065611
0.00637477287678473
0.00632705085432648
0.00627522245859943
0.00621937881768095
0.0061596585437163
0.00609618399819301
0.00602908231619801
0.0059584287477324
0.00588429684402727
0.0058064784918058
0.00572491094523027
0.00563894386429338
0.00554898944458759
0.00545356198430576
0.00535289348405936
0.00524390620135176
0.00512742943308068
0.00499661732733526
0.00485310947710146
0.00467929988657007
0.00451336112818665
0.00450036912670355
0.00466475502112116
0.00495938823522855
0.00536028398236496
0.0058657440720423
0.00648262653330076
0.00722735830959195
0.00810537331434277
0.00909396074669203
0.010163441835966
0.0112859077033174
0.0124337685391237
0.01357834785071
0.0147353864681656
0.0159551830061673
0.0173094186644519
0.0188816794632617
0.0207649867085691
0.0231086445320711
0.0258886595389703
0.0290398477223137
0.0323456265434671
0.0355450743569186
0.0381709292254542
0.0395327682628033
0.0398939388054944
0.0412184238479239
0.0422824200058891
0.0432219645597622
0.0430809521233817
0.0404571655803037
0.0371658229872824
0.0335541293757989
0.0308372323558088
0.0198315650209309
0.00746647521537546
0.00283425223554318
0.00192886840913328
0.00126789272141662
0.000799726992915407
0.000551615401897782
0.000420508125854769
0.00035012571773336
0.000320184018382682
0.000316339832728671
0.000336157116711737
0.000378936844308387
0.000443286737575006
0.000524717038207921
0.000618668691188504
0.000720091424970046
0.000823746788894322
0.000927265301912764
0.00103219711797105
0.00114164454002651
0.00125981161956629
0.00139325270929576
0.00155216102565619
0.00175054210500887
0.00199913191813103
0.00227938428198444
0.00251448735024004
0.00279319517862359
0.00304398478754037
0.00328493142407773
0.00350992358651873
0.0037247432447905
0.00392820094237057
0.00412225737875116
0.00430692132095384
0.00448295408151722
0.00464961783710912
0.00480552894813264
0.00495149869624131
0.00508799731016274
0.005215170156106
0.00533306074621989
0.00544172699591811
0.0055412479430543
0.00563173372373292
0.00571333256124962
0.00578622657399719
0.00585063061726503
0.00590678471126674
0.00595494409965233
0.00599537312397307
0.00602834000926968
0.00605411661770905
0.00607297420451215
0.00608518688742059
0.00609102569047764
0.00609076878621756
0.0060847008499273
0.00607311985125665
0.00605633185067732
0.00603463458937761
0.00600831154165401
0.00597762547793931
0.00594281211511632
0.00590407585999913
0.00586157397915705
0.00581542174276773
0.00576571489890146
0.00571258695344907
0.00565615034017981
0.00559652705397277
0.00553379051956509
0.00546804880163594
0.00539913970970947
0.00532712509363995
0.00525161187384707
0.00517282250071048
0.0050895539947174
0.00500239170085409
0.00490861773089976
0.00481001796690182
0.00470022400413319
0.00458374934562726
0.00444515555088346
0.00432414160278881
0.00429175340481426
0.00440857627967607
0.00464269374721806
0.00497491577214288
0.00540045302930628
0.00592273681062812
0.00655191678632296
0.00728739924116518
0.00811406812347771
0.00900872095384809
0.00994904594328897
0.0109142677863809
0.011886688166303
0.012889410685238
0.0139521635147966
0.0151240891504707
0.016470306966067
0.0180515801738347
0.0199787616217987
0.0221600720550637
0.0246032952282622
0.0271151520807384
0.0295457152536713
0.0314584087634582
0.0325960147726248
0.0329522646708052
0.0348567068379045
0.0366546722486399
0.040038194106207
0.0411685259992303
0.0365996530967391
0.0340741163827974
0.0311206821343637
0.0320102971553983
0.0250774359065381
0.0113254034338865
0.00379310715402274
0.00217373854572335
0.00142375779596605
0.00091599525370102
0.000637694951398452
0.000489748786325277
0.000410592423100699
0.000375688914883073
0.000370639550274298
0.000391860873416899
0.000437055679372034
0.000502570222345829
0.000582109221155554
0.000669876044882949
0.000760829109315255
0.000851870420724171
0.00094345746464076
0.00103868005514699
0.00114063533595721
0.0012551137137718
0.00138922536492769
0.00155202987351431
0.00175324503196235
0.00199447598048523
0.00224683054265349
0.0024466986563704
0.00270103511984744
0.00292470713365217
0.00314425649073998
0.00334863583318419
0.00354495071678279
0.00373091487287506
0.00390861992743298
0.004077778816813
0.00423906344930119
0.00439081705394405
0.00453322989210025
0.00466674980926626
0.00479165726516096
0.00490803175395278
0.005015909074866
0.00511534042597874
0.00520639774506831
0.00528918144584405
0.00536382470029232
0.00543048932979896
0.00548936669148633
0.00554067201361909
0.00558463535207651
0.00562149588164286
0.00565149706929931
0.00567488675701784
0.00569191399641901
0.00570283256361111
0.00570789532248282
0.00570736124851584
0.00570149217257061
0.0056905604631328
0.00567484572376557
0.00565461967265517
0.00563014133297705
0.00560165130006135
0.00556936739290051
0.00553348261575387
0.00549415207932571
0.0054514960038741
0.00540561315870519
0.00535663352385715
0.00530466508115203
0.00524982505147419
0.00519219051998628
0.00513188607812369
0.00506884911165895
0.00500322056039474
0.00493457438525248
0.00486315644111254
0.00478801191934632
0.00470981040443006
0.0046263150669833
0.00453950594541923
0.00444402937463149
0.00434508532459399
0.00423067550907066
0.00413795126740369
0.00409882944904891
0.00418402274412826
0.00437471272343395
0.00465551572297656
0.00502042847418606
0.00547059372186977
0.00601208674316744
0.00664112254551816
0.00734620111016858
0.00810838598805199
0.00890905742305276
0.0097315691958923
0.0105639973126443
0.0114307680698403
0.0123522434235676
0.0133629097692755
0.0145142373990088
0.015847251706837
0.0174510347721704
0.0192154600058812
0.0211762185382833
0.0231662464197442
0.0251185068333889
0.0265999450786828
0.027620708040451
0.0277843126965378
0.0296461770420223
0.0310853069768722
0.0350932895675402
0.0366342290014806
0.0322640364887848
0.0303932146190975
0.0280143097199917
0.0306009434551695
0.0289176724432645
0.0158641986650016
0.00524299072522104
0.00243151920881482
0.00152531007038605
0.000992152430534949
0.000695557591504335
0.000538169100441781
0.000454734710983163
0.000416506181206419
0.000410367191853647
0.000431277682466807
0.000475386682983893
0.000537337986880569
0.000610336756983074
0.000688800507823122
0.000768925312730967
0.000849852417135735
0.000933662486835264
0.00102370569130572
0.00112277508370229
0.00123711855451647
0.00137325346932198
0.00153845577082296
0.00173852276866429
0.00196919324284178
0.00219935695157852
0.00238190978387199
0.00261983533711231
0.00282577306098612
0.0030308481872
0.00322119393180152
0.00340469587600394
0.00357848041521439
0.00374468804319145
0.00390288646371799
0.00405334813258903
0.00419474799935094
0.00432762693259316
0.00445227053797905
0.00456886566850241
0.00467746253608594
0.00477809553921173
0.00487081290811108
0.00495568295044258
0.00503280010288732
0.00510228754725152
0.00516429375965903
0.00521899492325594
0.0052665904750446
0.00530729447338251
0.00534133013613531
0.00536892524763946
0.00539031245837098
0.00540572693257995
0.00541540966209991
0.00541960220169725
0.0054185507633361
0.00541250201203899
0.00540171149218297
0.005386441438243
0.00536694664691452
0.00534347018655716
0.00531623830583895
0.00528545760062316
0.00525131424788692
0.00521396317399502
0.00517352814648986
0.00513011025273648
0.00508383748109005
0.0050348160325033
0.00498315939030496
0.0049289495993926
0.00487236377897549
0.004813418282146
0.0047521537650796
0.00468824745383096
0.00462193993671727
0.0045524870321706
0.00448054242447859
0.00440432765701568
0.00432573908718114
0.00424047536532047
0.00415360183545973
0.00405627808370771
0.00398228599245562
0.00394226164496873
0.00400600269863287
0.00416484554334973
0.00440673690791707
0.0047254201292344
0.00512055200529076
0.00559546420335221
0.00614465396975202
0.00675843899321098
0.00742081756458495
0.00811582653120036
0.0088296619102084
0.00955394940061955
0.0103122512930496
0.0111204547270281
0.0120037238499628
0.0130036729206606
0.0141493651696385
0.0155154547104477
0.0169938107648473
0.0186283428402096
0.0202726388182378
0.0219121046204599
0.0231151770970086
0.0240510704896717
0.0240469685759792
0.0257129225911357
0.0266205668783664
0.0304273811155785
0.0318988258232354
0.0284029708396331
0.0268547274980241
0.0252013444821754
0.0275873025413671
0.0309827630967911
0.0205025687287732
0.00732049646865408
0.00280804692811089
0.00160964339368711
0.00104008449251664
0.000729199802772589
0.000566669258873078
0.000481936520252899
0.000442420702906059
0.000435711812728277
0.000455552048539556
0.000497028005684831
0.000553994096008349
0.000620101447928052
0.000690568813118364
0.000762885789993108
0.000837636832102682
0.000917478119464082
0.00100552575439451
0.00110434867073185
0.00122007543880478
0.0013582689727906
0.0015244173028514
0.00172120905226374
0.00194111047088958
0.00215492366054398
0.00232964034124421
0.00255529913831456
0.00274948029300056
0.00294430273658595
0.00312487112884809
0.00329925759119245
0.00346438132252451
0.00362233543303844
0.0037726771391609
0.00391514828408098
0.00404914202846028
0.00417513846407853
0.0042933338851195
0.00440386280401326
0.0045067619337188
0.00460206584218752
0.00468982110407865
0.00477009372750993
0.00484297397324097
0.00490857792461494
0.00496704481867309
0.00501854066674493
0.00506325462547679
0.00510139045888633
0.00513316122804912
0.00515878478015298
0.00517848423058533
0.00519248618749407
0.00520102384689157
0.00520433203119752
0.0052026487219737
0.00519621067096588
0.00518526248518941
0.00517005515523542
0.00515083262361043
0.00512782769542861
0.00510125750919114
0.00507132187375244
0.00503820332375575
0.00500205807558312
0.00496301306454928
0.00492117152355056
0.00487666091777414
0.00482958728744198
0.00478006147659937
0.00472819416305056
0.0046742347266212
0.0046181171709008
0.00455989835892567
0.00449933731344582
0.00443666001778707
0.00437129716739172
0.00430385321662279
0.00423294788636599
0.00416030365227769
0.00408256330827699
0.00400437255881229
0.00391956106537728
0.00385834168326642
0.00382000226367077
0.0038688657158375
0.00400372628656542
0.00421548536549549
0.00449813514925907
0.00485037831906681
0.00527362888512676
0.00576145997015101
0.00630513557530277
0.00689074425247337
0.00750435188502101
0.00813430192193691
0.00877468862967125
0.00944748092257413
0.0101662797300511
0.010950253326942
0.0118337728504695
0.0128385757728475
0.0140285626766443
0.0153053379118241
0.0167126127327961
0.0181195065080897
0.0195410664140093
0.0205528905175119
0.0214113701992142
0.0212885355958304
0.022738215325795
0.0232130055437315
0.0265593683144371
0.0277922059917027
0.0252213464507857
0.0237244466400504
0.0229613722179846
0.0239360316963993
0.031271826962671
0.0244979623646036
0.0100404118176057
0.00339999077430117
0.00172203983285677
0.00108119525514351
0.000751036540580816
0.000583028474756697
0.000497668110893008
0.000457974792866381
0.000451138182798511
0.000469813022842595
0.000508478355689893
0.000560848814054244
0.000621345359493704
0.000686014848663623
0.000753339691146947
0.000824683482005897
0.000902785806066296
0.000990471724087652
0.00109019106604119
0.00120765928244428
0.00134743175504195
0.00151341158353147
0.00170601280713779
0.00191623725395717
0.00211850361272413
0.0022902666323141
0.00250634544983432
0.00269280900579132
0.00288024831292674
0.00305402676432388
0.00322192279920256
0.00338091229000463
0.00353295882512538
0.00367760613609869
0.0038143270540153
0.00394302150335077
0.00406406161584695
0.00417758949901551
0.00428370779508118
0.00438244689235003
0.00447384152719334
0.00455793701125752
0.00463479756215719
0.00470451027059342
0.00476718600055192
0.00482295744951103
0.00487198379774229
0.004914447675543
0.00495054647909753
0.0049804871577553
0.0050044816383655
0.0050227474954104
0.00503550655306239
0.00504298783702023
0.00504542281995416
0.00504304471846797
0.00503608425867991
0.00502477939573333
0.00500937435322407
0.00499010660833881
0.00496720283279025
0.00494087484480673
0.0049113188737355
0.0048787162138175
0.00484322560480318
0.00480497726942012
0.00476407668005173
0.0047206521589922
0.00467481071352383
0.00462666722993082
0.00457642413565019
0.00452422976989409
0.0044700448478018
0.00441393607311947
0.00435572855998109
0.00429563241226691
0.00423322216438485
0.0041690465711822
0.00410205916810901
0.0040337928158421
0.0039616935517457
0.00388991862517037
0.00381447289572305
0.0037621084397402
0.00372647630411186
0.00376484043766419
0.00388123305496758
0.0040691426718375
0.00432307169035595
0.00464112254816193
0.00502333020001462
0.00546278821200754
0.00595125877488751
0.00647636272618702
0.0070257871951488
0.00758961026956814
0.00816379018356759
0.00876852596541636
0.00941613074684018
0.0101218355797443
0.0109145573114314
0.0118115056589363
0.0128680771658205
0.0139981044453209
0.015241469335957
0.0164790623228382
0.0177399013816267
0.0186132102801399
0.0193949706953163
0.0191928348038088
0.0204374692146682
0.0206087134292724
0.023465055547373
0.0244230092660525
0.0226425960132611
0.0210623674574675
0.0212215124531795
0.0204120539953348
0.0301142890155744
0.0273897104916976
0.0133343166522625
0.00431946902228653
0.00190498359224659
0.00113534916273176
0.000773718352933348
0.000596126713558763
0.000508603069445726
0.000468620548069171
0.000461633296878609
0.000479151596781578
0.000515260392274807
0.000563838930128643
0.000620064946700843
0.000680684991541502
0.000744888122115615
0.00081442059813909
0.000891926211421494
0.000979994956207891
0.00108099969854002
0.00120009778155477
0.00134090404990544
0.00150600267561986
0.00169425971625429
0.00189637445718644
0.00209078912496477
0.00226216544165343
0.00247076891016973
0.00265238634975271
0.0028345886234066
0.00300381641767004
0.00316722483852057
0.00332201541495653
0.00346996872281855
0.00361057919652984
0.00374332405228259
0.00386833163248513
0.00398590357653572
0.00409614752750818
0.00419914535989046
0.00429492441474535
0.00438351913055412
0.00446497359690539
0.00453935043826937
0.00460673424078156
0.00466723202162435
0.00472097189060657
0.00476810864198096
0.00480882118114797
0.00484330348481266
0.00487175946368414
0.00489439817334832
0.00491143470627597
0.00492308899654165
0.00492958874920254
0.00493116479628
0.00492804841703202
0.00492046738525239
0.0049086563423082
0.00489285624374819
0.00487330149525536
0.00485021583267836
0.00482380867798186
0.0047942751598007
0.00476179725991183
0.00472653734776778
0.00468862931389228
0.0046481810970492
0.0046053231970427
0.00456016425460205
0.00451288760758065
0.00446364764312188
0.00441256653150307
0.00435963495695373
0.00430492678667694
0.00424832115463312
0.00419001429792483
0.00412969867271324
0.00406787158811901
0.00400376188833941
0.00393872644568845
0.00387087765834147
0.00380390316777457
0.00373553966568888
0.00368933305011214
0.00365664681162862
0.00368750314257146
0.00378942022245272
0.00395810370925211
0.00418869120016134
0.00447892332313009
0.00482782364128704
0.00522826194125905
0.00567225912136572
0.00614859046823259
0.00664629019701768
0.00715690920684892
0.00767788631955894
0.00822768374581044
0.0088177790584533
0.00946075693389303
0.0101813409257996
0.010993946882546
0.0119471145471884
0.0129671599173153
0.0140885456353023
0.0152011285125646
0.0163374724879961
0.0171056394293818
0.0178101357670881
0.0175564734548255
0.0186134689173058
0.0185836718975235
0.02099624783304
0.0216941933608614
0.0205315158898348
0.0188519816887472
0.0198014375305273
0.017472269456992
0.02800504613625
0.0291648866917579
0.0168959725829037
0.00568988963411359
0.00220344229203919
0.00121912281156045
0.00080669579755267
0.000612670786779039
0.000519839868016944
0.000478426039475602
0.000470763675113831
0.000486983583388888
0.000520767697389243
0.000566228118476925
0.000619170034619856
0.000676902968408366
0.000739108770980791
0.000807696378519129
0.000885162370924023
0.000973920074486433
0.00107626433707298
0.0011967387021496
0.00133813278751219
0.00150198478528021
0.00168619644251993
0.00188185366348692
0.00207120526142792