/*--------------------------------*- C++ -*----------------------------------*\
  =========                 |
  \\      /  F ield         | OpenFOAM: The Open Source CFD Toolbox
   \\    /   O peration     | Website:  https://openfoam.org
    \\  /    A nd           | Version:  7
     \\/     M anipulation  |
\*---------------------------------------------------------------------------*/
FoamFile
{
    version     2.0;
    format      ascii;
    class       volTensorField;
    location    "20000";
    object      gradU;
}
// * * * * * * * * * * * * * * * * * * * * * * * * * * * * * * * * * * * * * //

dimensions      [0 0 -1 0 0 0 0];

internalField   nonuniform List<tensor> 
15600
(
(0.0639819111376122 -0.00240508849520253 5.99804154818918e-20 18.8032649835593 -0.051566895749732 2.52032768341714e-22 0 0 0)
(0.215177680858812 -0.016217055678042 4.26183626372583e-19 21.6210124965413 -0.249840132143575 -5.50313938738659e-19 -4.19892615476269e-18 4.84996117442832e-20 1.07636767652279e-37)
(1.16460698868702 -0.0899977916943647 -3.01998994292915e-18 19.0598739832116 -1.14600581146913 2.34508628392784e-17 0 0 0)
(1.0583278881646 -0.15350260823931 -1.36176974994437e-17 8.0293635993374 -1.09935685473561 -2.98221055334687e-17 2.53078044879466e-17 -3.46475374132473e-18 -9.35074395986394e-35)
(-0.949063572354879 0.308061866503877 2.77517127567299e-17 -2.66785225336514 0.873305405502597 7.86150659686491e-17 2.52466625573381e-21 -8.52860502720049e-22 1.35177462138006e-37)
(-2.9326004187127 1.25412285937376 2.94661882718293e-16 -6.78880366884077 2.8623325512612 6.39872257952593e-16 -4.5911770977656e-17 1.93555799026359e-17 4.32502248734132e-33)
(-3.03985148554522 1.58911795985268 1.24562392293588e-16 -5.78311276837793 2.99162238910216 2.3437618012857e-16 -1.48768125321248e-21 6.62548791265552e-22 1.0051005581664e-37)
(-2.67043681638898 1.58260904325628 1.87100697435758e-17 -4.46718153048038 2.63132105366623 -1.21043473990855e-19 0 0 0)
(-2.2452868920847 1.43643489025867 7.03404680729558e-17 -3.47559039322083 2.21546312697439 1.32214213023163e-16 2.58005483556588e-17 -1.64462306511088e-17 -9.82000351453267e-34)
(-1.86869367825281 1.24675006798089 5.04799673305359e-17 -2.77560926608817 1.84849433059029 1.21855349293655e-16 -2.08558042060797e-17 1.38896147813531e-17 9.11793698639508e-34)
(-1.57365940713596 1.05993176553338 -2.77353679779775e-18 -2.31429155035832 1.5584815257961 2.32087552474966e-19 1.19800994386588e-21 -7.8991895431115e-22 2.22272471851934e-37)
(-1.31644034151605 0.872504979307312 8.4610449144297e-17 -1.96953801101543 1.30639274479137 1.27848365590591e-16 -1.47520702724188e-17 9.78485987914276e-18 9.56203146279078e-34)
(-1.13950203975693 0.739839006328589 -2.46019505358526e-16 -1.74353121709933 1.13311805537547 -4.04696444884204e-16 0 0 0)
(-1.02179504781502 0.651886901367768 -2.42013668875085e-16 -1.59389142242012 1.01768989378592 -4.12766880383716e-16 1.17770099826403e-17 -7.51938787664519e-18 3.04210453596761e-33)
(-0.948063351816062 0.597181480170305 4.42288315753016e-16 -1.50126094982448 0.946190346266831 6.99633720028251e-16 -2.74560887702742e-21 1.72009522423814e-21 1.00460460237809e-36)
(-0.923071078507336 0.576622123524497 -2.14034037790454e-17 -1.47655403188287 0.922751387521152 1.19025370740053e-18 -1.08142339744368e-17 6.75811039810423e-18 7.55937104338733e-38)
(-0.945449978220298 0.587874276478036 -2.46294524229533e-17 -1.52146140762258 0.946365700220242 1.38800874287121e-18 -1.1118999667764e-17 6.91605799721604e-18 -1.40034825155949e-37)
(-1.00340725801822 0.621334417271472 1.0712926849823e-16 -1.62125148380266 1.00465194959858 1.33448828881054e-16 -1.18235773506975e-17 7.32663844805667e-18 9.83415481759423e-34)
(-1.07079057807449 0.654024619877915 4.61628546847012e-16 -1.75239971682829 1.07216762964845 7.20488882298174e-16 -5.93011207149652e-21 3.63992854151713e-21 5.12427905041926e-38)
(-1.13584172903728 0.673842875683689 -3.05786607019616e-16 -1.91098239478759 1.13715412096024 -4.2834590838574e-16 0 0 0)
(-1.18555824862198 0.671436611211404 -1.71438628350558e-16 -2.0854431742057 1.1866229060432 -3.02773820712899e-16 -7.72564153326018e-21 4.22761509079946e-21 -2.09175760186154e-36)
(-1.20336824652863 0.637607269086583 5.52520730493508e-17 -2.25760588659312 1.20437025698116 -4.02892086129846e-18 7.44532433643299e-21 -4.07422029421004e-21 2.01586026377364e-36)
(-1.17635280413365 0.568940821273489 4.03544952417777e-16 -2.41083164083985 1.17753657153382 7.69008428887484e-16 0 0 0)
(-1.11067939596123 0.476379402016277 3.42068616553327e-16 -2.55910340410984 1.11299809813057 7.87445368811874e-16 0 0 0)
(-1.02183682477502 0.378465992157822 3.34921485768551e-16 -2.7149062210289 1.0249868901405 8.05100947061225e-16 1.8161881981617e-20 -6.29590254929152e-21 -1.30100669564174e-35)
(-0.905813534649275 0.280553160812591 -2.40420271976674e-15 -2.85803461245168 0.909788775301838 3.75823953719539e-16 1.8606011295813e-17 -5.91874299639906e-18 -1.29468030189051e-33)
(-0.762427269782989 0.188227060590758 2.02714608168214e-16 -2.97720019700602 0.767073741982788 1.13700634493639e-14 -1.48887353795917e-15 3.83467947293957e-16 5.78638242384709e-30)
(-0.598239534249662 0.108570467982485 4.40291184621914e-15 -3.08311556863042 0.603840039818729 1.05286162851465e-14 -1.54132834717508e-15 3.01732199604361e-16 5.16136410567901e-30)
(-0.415782472161279 0.0463605726528908 2.49985911530473e-15 -3.18106323956794 0.423015127407964 -1.3420239519096e-16 -4.9843605063586e-18 6.61894120653915e-19 5.37298040576698e-35)
(-0.236301152990376 0.00769784845501862 1.30809029821688e-17 -3.31349507450241 0.237541640670787 9.15383323390414e-17 -5.16121432577047e-18 3.69083015058625e-19 1.43238573863486e-34)
(-0.0805393882931385 -0.00350564643589294 -2.92128617332112e-15 -4.0172925661902 0.0924382028618982 1.50986040711296e-16 0 0 0)
(-0.0489939096940732 -0.000789350309715168 -2.95931303039618e-15 -5.11193739076539 0.0540450560133724 1.15154980644529e-14 -2.9193281418367e-15 3.08740970608346e-17 6.69429644725122e-30)
(-0.0378944932115211 -4.53011397008991e-06 2.91320783182197e-15 -5.91551016261704 0.0443536258486143 9.92681814377891e-15 -3.39577411186831e-15 2.54248012028511e-17 5.58607293006393e-30)
(-0.0308765160764873 -1.07259959038224e-05 2.9608321385548e-15 -6.57160292782201 0.0365444806281894 -1.68850093535892e-16 0 0 0)
(-0.0250350410302136 -4.28702784800385e-06 3.23934465787904e-20 -7.09021856684753 0.030919960150658 9.71789682985049e-20 -2.32814427674064e-20 6.99549239959878e-23 -5.0520685739312e-42)
(-0.0206532079016987 -9.02618259210837e-06 3.24680950862425e-20 -7.51469412375819 0.0263843677496434 8.50859324787437e-19 2.32814427674053e-20 -6.99549239959844e-23 5.05206857393096e-42)
(-0.0170479487611117 -1.05571921891352e-05 2.46744252424841e-21 -7.85941930499068 0.022822402382388 -9.75712341374008e-19 3.47041032927105e-31 -1.00762220569902e-33 4.3081035738985e-50)
(-0.0141118528350504 -1.5023949814389e-05 3.19177024026633e-15 -8.14163022147441 0.0198386384611938 -1.47010660019755e-16 2.67880484147605e-20 -6.76127662800274e-23 -2.16015280790086e-34)
(-0.0115910812615154 -1.92975715740269e-05 3.30996256077204e-15 -8.37011283559953 0.0172905530309785 -1.03733903198714e-14 4.59991729561286e-15 -9.4976334894797e-18 5.79508535528078e-30)
(-0.00938912358447718 -2.43437000361583e-05 -3.1917702402663e-15 -8.55249936911932 0.015021788932732 -9.56485499604765e-15 4.72017106289662e-15 -8.29578904706341e-18 5.19127499403683e-30)
(-0.0074074622037397 -2.92950973144609e-05 -3.30999742166127e-15 -8.69363540855166 0.0129562401888886 1.39979049907171e-16 0 0 0)
(-0.00559693314141151 -3.41404842762606e-05 6.82660686442625e-34 -8.79743628693416 0.0110335671730475 -5.44900737295787e-19 0 0 0)
(-0.00391827641629941 -3.86907009583973e-05 0 -8.86681493093396 0.00922194911828349 -5.7905251059888e-19 0 0 0)
(-0.00234821812906462 -4.30700313517602e-05 -4.30049403120808e-20 -8.90418451327923 0.00749265101496664 5.79896146836997e-19 0 0 0)
(-0.000870740659206027 -4.72149365652207e-05 4.30035191714113e-20 -8.91156744884801 0.00582987457052574 1.2583338104626e-19 -2.95710957940286e-20 5.1637181864344e-23 -9.61800897143597e-44)
(0.000525023554887729 -5.09402099694985e-05 -4.2391030684252e-15 -8.89078468723456 0.00422454543373682 1.24873028510044e-16 2.95710957940288e-20 -5.16371818643444e-23 9.61800897143605e-44)
(0.00184506363455407 -5.40881132698071e-05 -4.39300388772798e-15 -8.84344009252833 0.00267540475480084 1.29018384578074e-14 -5.05514675711331e-15 1.51955283943052e-18 7.45715097295589e-30)
(0.00309038300127627 -5.66906134545278e-05 4.2391460733654e-15 -8.77112455025367 0.00118344620639408 1.25091471859062e-14 -5.02734104303461e-15 6.86160242041863e-19 7.09758635814275e-30)
(0.00426109668846791 -5.87799830085824e-05 4.39296088420927e-15 -8.67539133353178 -0.000249065792343849 -1.11031494929508e-16 0 0 0)
(0.00535575575328709 -6.03402169481335e-05 7.39561254024396e-31 -8.55779942082152 -0.00161899426286301 -1.55769259419386e-32 0 0 0)
(0.00637149673730309 -6.13405437857846e-05 -1.42763226514103e-44 -8.41993732486144 -0.00292078103017703 -2.20528304305303e-30 7.43488002875761e-31 2.58130867103715e-34 1.94889374245189e-61)
(0.00730562856879249 -6.18096565459373e-05 -4.87709336226117e-15 -8.26344186791308 -0.00414913077850954 8.17977869759197e-17 0 0 0)
(0.00815737338946926 -6.18074273115127e-05 -5.02685315578454e-15 -8.08996501980032 -0.00530088772632768 1.5051574911734e-14 -4.45195975564501e-15 -2.92292663965691e-18 8.33529320151062e-30)
(0.00892765481646516 -6.13954049724029e-05 4.87707897504177e-15 -7.90113914288622 -0.00637483504392116 1.51325784780964e-14 -4.35446994577952e-15 -3.50945655579203e-18 8.29964792242849e-30)
(0.00961832128837165 -6.06201066203936e-05 5.02686755797355e-15 -7.69855546651357 -0.00737097693766631 -6.36900268071398e-17 -6.4544544627621e-21 2.96379207510975e-24 2.53281196605619e-43)
(0.0102316648886452 -5.95270385328951e-05 1.43872191820328e-20 -7.48375651551058 -0.00828970573650383 1.63375208392755e-19 6.45445446276212e-21 -2.96379207510976e-24 -2.5328119660562e-43)
(0.0107702020418691 -5.81505164970642e-05 -1.44021889426799e-20 -7.25823077022524 -0.00913218163734308 1.21337798312743e-22 -6.40910046613493e-31 -8.06530446466679e-34 2.4474147567651e-61)
(0.0112367223794315 -5.65388150023267e-05 3.97041794387975e-21 -7.02341150299885 -0.00989935646644113 1.130660997841e-19 0 0 0)
(0.0116341779650645 -5.47227537526656e-05 -3.97548164644304e-21 -6.78067056167074 -0.0105935391409896 -6.85141874062643e-20 1.42803704064913e-21 2.2743718060269e-25 2.1418861828226e-44)
(0.0119654872905981 -5.27460753067402e-05 -3.97041794300913e-21 -6.53132134669042 -0.0112158096884282 -4.51304345532131e-20 -1.42803704064908e-21 -2.27437180602682e-25 -2.14188618282253e-44)
(0.0122332995020785 -5.06330298400223e-05 3.97548164644336e-21 -6.27662074264904 -0.0117688716629294 0 0 0 0)
(0.0124387411996932 -4.83636642341888e-05 0 -6.01778307348038 -0.0122525575693704 0 0 0 0)
(0.0125828215166097 -4.59892216642445e-05 -1.01927680401827e-30 -5.75601562223913 -0.012666871760648 1.28685514110573e-19 0 0 0)
(0.0126682141757772 -4.35618050614589e-05 -1.80236482140145e-20 -5.4924802963346 -0.0130141559087755 1.34108980109643e-19 -4.85004854742901e-31 -1.14922019415006e-33 1.18567726417886e-50)
(0.0126985259832979 -4.11253903088892e-05 1.80491354739258e-20 -5.22827372309081 -0.0132973096430399 -4.69597228565973e-19 -4.45017017464509e-21 -5.68814667596893e-24 4.31232266019804e-43)
(0.0126781300513844 -3.87230875447729e-05 1.80236482140149e-20 -4.96441515284685 -0.0135206586287585 2.05125045614986e-19 4.45017017464459e-21 5.6881466759683e-24 -4.31232266019756e-43)
(0.0126114847306891 -3.63687190369872e-05 -1.80491354729073e-20 -4.7018342209513 -0.0136886211776896 -5.65141654348547e-19 0 0 0)
(0.0125031585069019 -3.40984199729451e-05 -7.11853285647722e-34 -4.44138122329268 -0.0138054003359249 5.68202311776857e-19 0 0 0)
(0.0123575830773096 -3.19128369287515e-05 1.13623884668226e-30 -4.18381483402163 -0.0138763368364987 2.15387129109533e-32 0 0 0)
(0.012178863651027 -2.98416325439374e-05 -1.03457316337927e-43 -3.92982178708178 -0.0139045949792292 -4.4935205056015e-30 3.47031441562773e-31 1.22779109320882e-33 3.97040798053546e-61)
(0.0119697450107052 -2.78490548634076e-05 -1.13623884668222e-30 -3.68001467158892 -0.0138951382139859 -2.3931903232845e-32 0 0 0)
(0.0117302088301244 -2.59041619194821e-05 7.43878528602862e-15 -3.4349908896189 -0.0138463194998678 1.88014296629926e-16 0 0 0)
(0.0114584422949155 -2.39779312088446e-05 1.50560925011465e-14 -3.19537199642799 -0.0137588968978287 -2.99527644044391e-14 1.76239485131481e-15 7.58586365454348e-18 1.63935432533724e-29)
(0.0111561384795487 -2.22115848763496e-05 1.72954115880443e-16 -2.96181377889465 -0.0136304554527903 -6.35874280575103e-14 3.26257257065152e-15 1.50135781415946e-17 7.00737051776093e-29)
(0.0108238788102349 -2.04739988140546e-05 -1.50561772083195e-14 -2.73487463137574 -0.0134699162340655 -3.37825934892589e-14 1.50381139229255e-15 7.40801106887776e-18 1.87385538405615e-29)
(0.0104675226632652 -1.90550139084882e-05 -7.61173940190934e-15 -2.51517976513724 -0.0132699066424624 -2.41443901131555e-16 -9.71533915496725e-21 -4.2471372351306e-23 5.15142270298954e-34)
(0.0100847953276861 -1.75071499140387e-05 8.47071718076788e-20 -2.30308525133692 -0.0130522935770267 2.85461648465915e-21 0 0 0)
(0.00968469671795073 -1.65119853091978e-05 0 -2.09929753217584 -0.0127873984006395 0 0 0 0)
(0.00924829149942048 -1.48231750402142e-05 8.15143649212003e-15 -1.90388799106021 -0.0125231949351524 3.24793565753732e-16 0 0 0)
(0.00879746682570794 -1.44032368620009e-05 8.18114065043292e-15 -1.71825291992934 -0.0121711348436789 -3.63397281554663e-14 9.48661365005779e-16 6.71886202730105e-18 1.98357876108017e-29)
(0.00827967647886777 -1.20622581031773e-05 -8.15143649211961e-15 -1.54172201289759 -0.0118632245814088 -3.96795347573591e-14 8.4702493594017e-16 6.51639690234316e-18 2.20533353826416e-29)
(0.00776395220305077 -1.28981163126851e-05 -8.18104779184612e-15 -1.37761395359621 -0.0113669800996119 -3.61870126750845e-16 0 0 0)
(0.00710380401095842 -8.66422172748835e-06 8.53293114847488e-22 -1.22281500338432 -0.0110304163612254 2.54061135063043e-18 4.88107908645498e-21 5.03169658586402e-23 -6.34224130726343e-39)
(0.00649507063868911 -1.23672432631177e-05 -9.20222980689144e-20 -1.08608353767995 -0.0102490687347787 5.2324229645141e-21 -4.39573991300364e-22 8.36991433191124e-25 6.22789359823716e-39)
(0.00553736176962461 -2.96792765354097e-06 -1.91201251834369e-19 -0.957219776710233 -0.00991975199754889 -5.70614396036886e-22 -3.74758081898162e-22 2.00863682187937e-25 1.2940136002498e-38)
(0.00475445311613552 -1.35625478598711e-05 -1.64537889511904e-21 -0.859979614472142 -0.00848133732324511 -6.0147968686219e-19 -7.81172170886338e-21 -1.03627529316265e-22 -2.57629326919622e-38)
(0.00311528359964759 8.6249459954528e-06 1.89541091073596e-19 -0.765009516196128 -0.00825135546533779 -3.14189566965923e-18 2.10836451534924e-22 5.83719892650267e-25 1.28277794890113e-38)
(0.00202301479998371 -1.9827968311807e-05 1.9622049447973e-19 -0.734851509762333 -0.00525132889520182 1.58615643462822e-18 1.36913782706468e-22 -1.34191907294763e-24 1.32798287703925e-38)
(-0.00133154834617264 -0.000155332475726771 3.2502618757111e-18 -0.689475618002624 -0.00530711558912523 -8.08674520574147e-19 6.88456557483377e-21 1.16574420701283e-22 -2.46312451505935e-37)
(0.0026797644177088 -0.00159021625826824 2.53065797067759e-17 -0.797204324025322 -0.00454268284061793 -1.00115891027899e-17 1.58858707433498e-19 1.14622267987636e-21 -1.39054798565468e-36)
(0.0573311896743689 0.00121470688588601 -4.80774523086528e-17 -0.85890961299694 -0.060146468213928 2.86081332195992e-16 -3.37466711882154e-23 3.7573763377674e-22 3.92635471371979e-36)
(0.104428413581957 0.0110617625069228 6.34831756326578e-17 -0.760249775716482 -0.100948774081238 -2.89067371637759e-16 1.18408786071656e-18 1.57221785694528e-19 4.55629111155066e-34)
(0.12852936190757 0.0231372901528299 -1.3736015529608e-16 -0.618203526633439 -0.122702933676248 5.78330747379511e-16 0 0 0)
(0.10907742311502 0.026979522529007 -1.1600324665731e-16 -0.374620291500316 -0.0989426155035937 2.53807711067854e-16 -1.20019571955802e-18 -3.16773420447271e-19 8.32444999982698e-34)
(0.0390942613810331 0.0129774152878595 5.71440632061523e-16 -0.0674359296608661 -0.0261266028604192 -1.65103999757732e-15 4.4162298966872e-19 1.71220540324026e-19 1.07739090816489e-32)
(-0.100761046687319 -0.0348068589727097 -4.40886568677771e-19 0.330329177831488 0.116061790402989 2.25790366784633e-18 1.72623732514418e-21 2.59820527076629e-22 2.77843940177831e-38)
(-0.32326238271014 -0.132926633349566 -1.14493358323486e-19 0.816753717058396 0.339792712797303 1.52742880767768e-20 0 0 0)
(-0.662398217589145 -0.308414527892053 -9.46637426315023e-17 1.44201069326182 0.676788369561024 -8.75714703404827e-18 -5.35270223886978e-21 -2.84867049710727e-21 7.12427645100722e-36)
(-1.13011623952166 -0.577356362927727 -2.23499112167234e-16 2.21872219012169 1.13944604208612 4.31835521102218e-16 1.55840730984664e-17 8.00204300154425e-18 3.02504398101766e-33)
(-1.7181110359281 -0.938498239665282 1.89301518506968e-16 3.13574556321762 1.71854107915783 1.3370183970557e-17 1.26143583370632e-20 7.1793494411996e-21 7.11035595460894e-36)
(-2.41694644843441 -1.38357538235023 -7.1235594479203e-16 4.19333416648372 2.40505387742083 1.04931580319453e-15 -1.30781030379359e-20 -7.44328559792725e-21 -7.37175568713283e-36)
(-3.20412660495678 -1.89096375723377 4.54796947984468e-16 5.37933366386886 3.17739285796726 -1.05250060166134e-15 -2.2119745719776e-20 -1.3035294480196e-20 1.42457918841497e-35)
(-4.0404626666004 -2.42360005687915 1.59071378345448e-15 6.66316521042702 3.99787618288457 -2.43542084663237e-15 5.00683218007629e-20 2.9598785615964e-20 -2.18970301086608e-35)
(-4.86143783448468 -2.94089392865901 -8.48191496504626e-16 7.94388723286661 4.80706262561819 1.39138816905624e-15 -2.81026489416822e-20 -1.66573660533087e-20 7.40872184297231e-36)
(-5.70371908268555 -3.48492341392123 -2.99200774686085e-16 9.21925710378254 5.63606099462972 3.6390850520278e-16 6.75175232704432e-17 4.12750134707593e-17 2.68776343202815e-33)
(-6.64346560985678 -4.11336187376741 6.99988767118766e-16 10.5872841400255 6.56034574400622 -9.72708625357016e-16 0 0 0)
(-7.73354834368232 -4.86896468720348 7.57630621134563e-17 12.1095956293399 7.63122319415768 4.45198294543747e-18 -2.48632472997157e-20 -1.5414448550912e-20 -7.91763679513175e-40)
(-9.06850843602895 -5.82196491071994 1.04777110599472e-19 13.9086286954842 8.93826137988962 -2.36354397919803e-19 1.14386640176601e-20 6.9262144820376e-21 1.61533082328007e-39)
(-10.7910712246334 -7.0814348694745 5.47165953082614e-17 16.1726884481926 10.6198236002426 1.17220484774732e-18 1.52152626860107e-20 9.60630593591374e-21 -8.26339553703997e-40)
(-13.1873339287925 -8.78519140585131 -1.34975684459641e-15 19.429978477618 12.9373920676039 1.89976039356416e-15 0 0 0)
(-16.0878729050604 -10.6157426000897 1.02751025662511e-15 23.9142760453974 15.7487371685994 -1.7126518046941e-15 0 0 0)
(-19.1766802378187 -12.1614528503068 3.24651638715461e-16 29.6613719755583 18.741232274961 -4.17704360943142e-16 2.20183881302886e-16 1.39120435162535e-16 -3.10828130648939e-33)
(-22.1761990755051 -13.0386633888391 9.70034407288513e-17 37.0316511282564 21.6417831355477 1.14022056605918e-20 -1.05907712307152e-21 -6.15121419911987e-22 7.19888468498252e-38)
(-24.2517969332572 -12.5724643407857 -1.67551779367103e-16 46.0705009155048 23.6472307486669 3.15342083632841e-16 -3.2434106124188e-16 -1.66468750230641e-16 -2.22025824612739e-33)
(-23.790543063784 -10.0317609810464 -3.81595770983904e-18 55.8979078884631 23.1776304174398 4.21510120486351e-21 -2.64017440658551e-20 -8.87459668780083e-21 -2.21221292888361e-37)
(-17.8298213432183 -5.32253064068002 -2.30784138755747e-17 60.2875669938153 17.4338260315614 1.00398771531532e-16 3.90732217940995e-16 1.12977364133678e-16 6.5121808674401e-34)
(-8.90706993519993 -1.62777366380918 -6.86235979936815e-18 51.9939132739817 8.77516531916033 -3.94279646657275e-17 1.63804152409072e-16 2.76414899925459e-17 -1.2458354032799e-34)
(-3.01934878443844 -0.30233412717826 -6.67796641973441e-18 37.7954543120828 2.96058147868775 1.1391007393995e-19 5.47012296733893e-21 2.7471355640694e-22 -4.02930614687456e-39)
(-0.464125397492694 -0.0342839505797285 3.20061778224803e-20 24.0735071357404 0.490567523292089 -3.47726973000316e-18 -4.67863253160149e-18 -9.54912464569059e-20 6.7698648177009e-37)
(-0.0419692834634334 -0.00344253613250303 4.77544903385032e-19 17.9891886965226 0.0110167357701924 -5.42609996071139e-21 -1.7360303451608e-21 -1.20604268726459e-23 2.0205940109681e-39)
(0.099854800805145 -0.00941594232109766 -8.73456238362324e-20 21.5688468571611 -0.0740022721942395 -3.67941480547235e-22 0 0 0)
(0.220525511408476 -0.0382616409103705 6.18117062675547e-19 22.6557065072183 -0.253571055022995 -1.37230987075935e-18 4.05131919321192e-18 -4.67946805161296e-20 -1.03852958259423e-37)
(1.00257002965255 -0.0970922750170045 1.09219527904118e-18 20.695034459834 -0.969288719264317 -3.40601320059637e-17 -6.08970113035647e-17 3.23185268036218e-18 1.78013907682064e-35)
(1.26115361503712 -0.134163613813343 2.83831169027955e-17 12.2342922971358 -1.23390666280515 1.01384334199457e-16 -2.44166506324544e-17 3.34275071825006e-18 9.02147985734089e-35)
(-0.172433076584358 0.211331818085637 1.13545447027083e-17 1.30254455827371 0.227739938452763 -6.22955843249131e-17 8.16827852367455e-18 -6.91774853070169e-18 -8.43764183742253e-35)
(-2.14638447670691 1.02774052367248 -1.37397435541054e-16 -4.68981680385512 2.20668502156402 -2.90645732268255e-16 1.20259519708328e-16 -5.22497649834278e-17 -6.37962303146324e-33)
(-2.47084615513304 1.33441067717237 -1.53930899703013e-16 -4.79896841327749 2.51975928273423 -2.26540423406226e-16 0 0 0)
(-2.24461291879025 1.35006479798801 -2.35301100337257e-16 -3.86270633949406 2.28090548320289 -3.51476359902485e-16 -3.21072177189507e-22 1.97588768946211e-22 -2.1060978996119e-38)
(-1.94193067921054 1.25168493337789 -2.97225692167842e-16 -3.0847715258699 1.96726652699603 -4.96618610074903e-16 -2.48752693429206e-17 1.58564302512166e-17 9.46815617711288e-34)
(-1.65584633987315 1.10843975724114 2.00064808490981e-16 -2.5144971091898 1.67510926074894 2.59833487259752e-16 2.01063221133937e-17 -1.339048029247e-17 -8.7930324075664e-34)
(-1.41884519418038 0.955342222523188 -2.55587497193824e-16 -2.12636183617307 1.43221766618585 -3.82376642069154e-16 0 0 0)
(-1.21011680522407 0.799028305426307 1.52311468210402e-16 -1.83982926469194 1.21908800787762 2.73559361251014e-16 1.42236334214808e-17 -9.43435446221349e-18 -9.21950802699786e-34)
(-1.06562648318575 0.689183972057401 1.90183130346728e-16 -1.65070107583632 1.07172607697827 3.88605134939213e-16 -2.47540131472854e-17 1.60788837249397e-17 -2.27084721380058e-35)
(-0.972019198932501 0.617974030452119 -2.06228536097853e-16 -1.52946369660813 0.975534955847916 -4.24778656960283e-16 -1.13647540287331e-17 7.25623379660419e-18 -2.93623741295857e-33)
(-0.919119578419672 0.577810204562198 -3.89701898295599e-16 -1.46136222029754 0.920834076708906 -6.72111545655909e-16 2.13835596461149e-17 -1.34751924843589e-17 -3.16721613510372e-35)
(-0.910327518813183 0.569311330083577 4.82119838740368e-16 -1.45359965657897 0.910360957331662 8.32981771642074e-16 -1.06456309609064e-17 6.66685942757724e-18 6.08553902111069e-33)
(-0.942066291219042 0.588591816970726 3.7331118987061e-17 -1.50534249108648 0.941405393623373 -2.14519615018491e-18 -1.10002095807976e-17 6.87904914051413e-18 -7.9217934550523e-38)
(-1.00261275283505 0.625098188627795 -3.4829115669508e-17 -1.60321480593364 1.00154998866337 -1.24715523993658e-16 1.13902639401504e-17 -7.05815825502789e-18 -9.42354835438684e-34)
(-1.06989651393654 0.657979506933722 -2.37586355684875e-16 -1.72948077984477 1.06882340338116 -2.63340695579613e-16 2.48774242524711e-17 -1.52965097995025e-17 -3.11782162529567e-33)
(-1.13197976684546 0.675463056920776 1.98746434643001e-16 -1.8789822170978 1.13125009213845 4.07532618223649e-16 -2.68397932200679e-17 1.60627452355954e-17 -7.99754846343474e-35)
(-1.17669548854497 0.668524686436996 -3.39298965027541e-17 -2.04189322152663 1.17648074145332 -1.33301366737376e-16 2.24934930388195e-21 -6.2041248753755e-22 -2.90410566930633e-36)
(-1.19062497458286 0.629728031422422 -1.81167270974911e-16 -2.20518483824216 1.19100098261835 -4.29758611362306e-16 -2.15259199532948e-20 1.18715658526082e-20 -2.86483397675853e-39)
(-1.16670942471385 0.559012163319036 -3.04020274012533e-16 -2.36162531039893 1.16663528660012 -7.26593398125781e-16 3.24311235199817e-17 -1.59190191262267e-17 -1.55003386172483e-34)
(-1.10859113149158 0.46685204616809 -4.99865318488347e-16 -2.52104735195457 1.10838678062215 -1.17583481471246e-15 3.37312147514611e-17 -1.47370513420272e-17 2.82364190202188e-33)
(-1.02593111559126 0.368681693164895 -2.01169292292831e-16 -2.6883458510079 1.02540378122472 -3.00784265415393e-16 3.52277501912574e-17 -1.33553833619462e-17 -3.1312558014777e-33)
(-0.916258654553983 0.269925791576585 3.17315630899833e-15 -2.8511248567755 0.915424760594785 -1.37662716780512e-15 -1.80219245179735e-17 5.73173319355994e-18 1.73477137449336e-33)
(-0.780729531367752 0.176825594328964 1.07510931086033e-14 -3.00476536342276 0.779232568685902 2.75453776840944e-14 1.4369336420056e-15 -3.69475494809164e-16 -5.54292490164865e-30)
(-0.623384491266939 0.0960176759124102 2.03730878378403e-15 -3.15688975396677 0.622076492642388 2.88304798528326e-14 1.4681915167853e-15 -2.86840535922484e-16 -4.89777975013903e-30)
(-0.450953434539762 0.0336432276226023 -3.54471376361518e-15 -3.32937810412433 0.451015838159428 3.31647847329467e-16 4.75010068129342e-18 -6.32625590295665e-19 -5.03285119286829e-35)
(-0.298634277396196 -0.00300501057886922 -1.86656673396348e-17 -3.63354566813714 0.288252145733873 -8.6913611862911e-17 -5.60607839531761e-18 4.40766638066462e-19 -1.38156190352089e-34)
(-0.15570300568255 -0.010843866539345 4.05659197420821e-15 -4.25480775190491 0.15892858646581 -2.10680084347802e-16 -1.66280076947446e-18 4.94847064466703e-20 5.31515447693241e-34)
(-0.122343187094558 -0.0035503049672569 3.99327745946894e-15 -5.00805772362233 0.115747331203272 3.32401595323049e-14 2.85027281457224e-15 -3.009173083278e-17 -6.54044281725967e-30)
(-0.0938935478988835 -0.00158923461659661 -4.05665964810947e-15 -5.5588970449573 0.089653601090019 3.42121568248338e-14 3.24291741650216e-15 -2.42295954879105e-17 -5.30876639240548e-30)
(-0.0751816822666605 -0.00121573537171376 -3.99253105567219e-15 -5.98664719068867 0.0698969870896915 2.27032477031191e-16 -5.98782430144556e-20 3.31967662865811e-22 -2.72024039638403e-41)
(-0.0601047471658275 -0.000923437038763254 8.7387842955114e-20 -6.31350177127087 0.0551223748034133 3.67427962228722e-19 5.98782430144588e-20 -3.31967662865829e-22 2.72024039638417e-41)
(-0.0487827951283855 -0.00073019427153573 -1.31803508346745e-19 -6.56913253108134 0.0436188557855027 -3.30956263547741e-19 6.69871250056888e-20 -2.24007931254321e-22 2.92694389117592e-39)
(-0.0395388237117526 -0.000586877147238682 6.04647940541664e-22 -6.76671544162078 0.0344915556317217 3.78732377599386e-19 -1.36555599777868e-19 4.09700732099211e-22 -5.81441245982666e-39)
(-0.0319750223212114 -0.000489659344075024 -4.24364726626135e-15 -6.9179772169273 0.0269759478038291 1.95865916885593e-16 6.95684747725404e-20 -1.85692800845616e-22 2.8874685685337e-39)
(-0.025477825546408 -0.000419926682533014 -4.3188002386696e-15 -7.02971035004112 0.0206131278482775 -3.64080457507621e-14 -4.47513643244825e-15 9.23391933244699e-18 -5.6466043333735e-30)
(-0.0197883627972856 -0.000370623462496732 4.24378624939593e-15 -7.10731283807553 0.015070242586852 -3.81111490256807e-14 -4.51735027335703e-15 7.93407924926967e-18 -4.95334591599334e-30)
(-0.0146696711526626 -0.0003338759466507 4.31870559741786e-15 -7.15450053707395 0.0101399254505227 -1.81471966392319e-16 7.5569010726515e-20 -8.03148793224275e-23 -7.45591123051363e-42)
(-0.00999656268321383 -0.000305654603276011 -1.0276191445922e-19 -7.17423944428062 0.00567956044738047 -1.5221164189787e-20 -7.55690107265071e-20 8.03148793224191e-23 7.45591123051284e-42)
(-0.00567271905578117 -0.00028326975573451 1.02592401508893e-19 -7.16883138711194 0.00159302397768631 -2.4205159056395e-20 -7.65920026356221e-20 4.18660937060216e-23 -3.61098893555981e-42)
(-0.00164107202285771 -0.000265129745090626 1.0909379196758e-19 -7.14018621407691 -0.00218801309786882 1.66177234397528e-20 7.65920026356234e-20 -4.18660937060223e-23 3.61098893555987e-42)
(0.00213578548778769 -0.000249503961757623 -1.08998176703959e-19 -7.0899651330265 -0.00568939688176417 4.96305599513978e-19 7.65597045456146e-20 -8.26748165535478e-24 -2.63139298717196e-42)
(0.00568475958247722 -0.000235256552627984 5.56306693268749e-15 -7.01987126292691 -0.0089363284682491 -1.6453266357143e-16 -7.65597045456071e-20 8.26748165535396e-24 2.6313929871717e-42)
(0.0090206121743911 -0.00022163240550349 5.70840132481005e-15 -6.93139269298944 -0.0119511447191397 4.84244415782604e-14 4.90215493052659e-15 -1.4708982234133e-18 -7.24127581441185e-30)
(0.0121469031778446 -0.000208277166666922 -5.5631231431282e-15 -6.82590274472904 -0.0147430866285943 5.04739158612763e-14 4.82590487115518e-15 -6.57277796953459e-19 -6.80182128238012e-30)
(0.0150664213549696 -0.000194961480583877 -5.7083451546753e-15 -6.70472334464479 -0.0173169633657934 1.4427765528718e-16 0 0 0)
(0.0177774464038759 -0.000181400996490204 -9.6829684779869e-31 -6.56914977713826 -0.0196744564847424 2.0394643723073e-32 0 0 0)
(0.0202758397536149 -0.000167430612849344 -3.47773264752856e-20 -6.42046183878333 -0.0218139227639899 6.59244175039367e-22 -7.17352294113613e-31 -2.49056836132066e-34 -1.88038460839178e-61)
(0.0225586042292751 -0.000153240121516055 6.42519431820044e-15 -6.25992275306355 -0.0237351090197021 -1.08277380804987e-16 -3.4932922836174e-20 -4.03328442646899e-23 2.09737955272631e-34)