/*--------------------------------*- C++ -*----------------------------------*\
  =========                 |
  \\      /  F ield         | OpenFOAM: The Open Source CFD Toolbox
   \\    /   O peration     | Website:  https://openfoam.org
    \\  /    A nd           | Version:  7
     \\/     M anipulation  |
\*---------------------------------------------------------------------------*/
FoamFile
{
    version     2.0;
    format      ascii;
    class       volScalarField;
    location    "20000";
    object      k;
}
// * * * * * * * * * * * * * * * * * * * * * * * * * * * * * * * * * * * * * //

dimensions      [0 2 -2 0 0 0 0];

internalField   nonuniform List<scalar> 
15600
(
3.25072065072878e-06
3.25391327579489e-06
2.3494397783688e-06
1.3070789306781e-06
5.4888373965753e-07
1.91883510576974e-07
1.30366768898567e-07
1.0843391769199e-07
6.90718371807322e-08
4.42011257091976e-08
3.29530459844068e-08
2.75805591317673e-08
2.51602272415704e-08
2.52641723978153e-08
2.7300305279624e-08
3.15487237180333e-08
3.86096681869994e-08
4.92393603181074e-08
6.41440164488636e-08
8.43440778939339e-08
1.10983061652719e-07
1.447633685402e-07
1.85844916859175e-07
2.34216757090496e-07
2.90782470752694e-07
3.54216742027201e-07
4.21257956309994e-07
4.88661075473491e-07
5.56154914736281e-07
6.30925727506886e-07
7.46992988800266e-07
9.79810980411198e-07
1.23593373118483e-06
1.48884776117824e-06
1.73509007541403e-06
1.97615134827257e-06
2.21132759173371e-06
2.44155748491297e-06
2.66673139380098e-06
2.88706203257813e-06
3.10238234589721e-06
3.31266268948021e-06
3.51803323694443e-06
3.71900285271739e-06
3.91638290003105e-06
4.10805587764249e-06
4.29041562758428e-06
4.46169767215111e-06
4.62119334809723e-06
4.76829156141201e-06
4.90249709596828e-06
5.02348709285389e-06
5.13112148102476e-06
5.22540843454812e-06
5.30646738700007e-06
5.37450210972568e-06
5.42979103535698e-06
5.47266488616862e-06
5.50350767958924e-06
5.5227104887772e-06
5.53069692219969e-06
5.52787662179386e-06
5.51474290329316e-06
5.49189687623925e-06
5.45998461809311e-06
5.41968215577433e-06
5.37164754979099e-06
5.31650712803156e-06
5.25484775937482e-06
5.1871383509667e-06
5.11375144221015e-06
5.03484792724873e-06
4.95064772061489e-06
4.86143502840466e-06
4.76766227226221e-06
4.66955219335792e-06
4.56763962842869e-06
4.46161872741681e-06
4.35191072040935e-06
4.23717904539207e-06
4.11849868917748e-06
3.99278874964441e-06
3.86304911231472e-06
3.72124387843424e-06
3.57449024408593e-06
3.40343079671776e-06
3.22820247973881e-06
2.99936732957481e-06
2.7654437323006e-06
2.49159679870542e-06
2.60951640114595e-06
2.83779787371217e-06
3.13807612009764e-06
3.43600063978379e-06
3.74494301247758e-06
4.05551990172264e-06
4.38404245909822e-06
4.7571356489109e-06
5.10134064855748e-06
5.39012346617323e-06
5.60339907471117e-06
5.7208006003879e-06
5.70371189181226e-06
5.53800662124597e-06
5.35793715960959e-06
5.19964661730958e-06
5.08377725906382e-06
5.05195283507211e-06
5.17463829281044e-06
5.55838910857868e-06
6.02037298972128e-06
6.65121546201758e-06
7.4880533490922e-06
8.43382567915752e-06
8.69858938755151e-06
7.21959701606152e-06
5.53661415336741e-06
4.15661152948862e-06
3.17177523085198e-06
3.05576064671424e-06
0.000104735031237381
0.00010487401032255
7.59590292390285e-05
4.2416249431869e-05
1.79769516422988e-05
6.33384192082382e-06
4.24749948477387e-06
3.5380470641512e-06
2.27039396966816e-06
1.45365342120703e-06
1.07957682909144e-06
9.00623479301456e-07
8.19054834298614e-07
8.19928805264262e-07
8.83674265988e-07
1.01866170340409e-06
1.24411744544813e-06
1.5846387079752e-06
2.06320248786416e-06
2.7128047676246e-06
3.57101683033463e-06
4.66172982684618e-06
5.99114186204621e-06
7.55829092947562e-06
9.39281650149059e-06
1.14537976355923e-05
1.36356978998436e-05
1.58314563309186e-05
1.80304354220842e-05
2.04625689308208e-05
2.42097383639242e-05
3.17157188720284e-05
3.99818606661482e-05
4.81451552129614e-05
5.60905318196661e-05
6.38668850031251e-05
7.1451500138115e-05
7.88750830606829e-05
8.61342197593633e-05
9.32360365291453e-05
0.00010017531965213
0.000106951309001673
0.000113568361027573
0.000120043031618544
0.000126401912467547
0.000132553295482512
0.000138365742743102
0.000143820351250406
0.000148895365356266
0.000153572151948479
0.000157835855094452
0.000161677076282808
0.000165092105053634
0.000168081804542531
0.000170650453905178
0.000172804924277658
0.000174554357180087
0.000175909498545111
0.000176882667417615
0.000177486407443934
0.000177734174298639
0.00017763907681115
0.000177216844911251
0.000176486505445373
0.000175468471875072
0.000174184030430144
0.000172653884762771
0.000170897733651
0.000168933971351248
0.000166777334279318
0.000164439409645249
0.00016192531698485
0.000159241938066187
0.000156398340502773
0.00015340849732505
0.000150279731590735
0.000147028173026598
0.000143645171372726
0.00014014221365867
0.000136479843944753
0.000132687258654199
0.000128674260702708
0.000124524077795352
0.000120000187571543
0.000115299487376868
0.000109851523651797
0.000104228287139202
9.69578104923023e-05
8.94406345116528e-05
8.06816622791811e-05
8.45411334951375e-05
9.19055801979967e-05
0.000101511633770123
0.000111079166847629
0.000120983472026161
0.000130948406202212
0.000141487298885863
0.00015335921764822
0.000164290062227576
0.000173451705538557
0.000180214652667552
0.000183936895838761
0.000183436758309381
0.000178344796675514
0.000172732709969033
0.000167776553608271
0.000164163564188913
0.000163221425388259
0.000167172477731299
0.000179189639815774
0.000193801659426578
0.000213653514555119
0.00023972440008975
0.00026894096724895
0.00027764690273824
0.000231428920281383
0.000177697416686325
0.00013382389928077
0.000102413121514972
9.88290128727589e-05
0.000749971730377427
0.000751604848312282
0.000550106433134711
0.000309977508433417
0.00013349728650003
4.73423556305358e-05
3.11714678741755e-05
2.59934669358185e-05
1.68248399625849e-05
1.07959930816956e-05
7.99551673554352e-06
6.65283731454949e-06
6.03460439991824e-06
6.02427657977211e-06
6.47373766552139e-06
7.44183415596743e-06
9.06733420160744e-06
1.15305625939782e-05
1.50000713163906e-05
1.97147677330202e-05
2.59500141493827e-05
3.38847765030499e-05
4.35664452472401e-05
5.49776737592303e-05
6.83284252623216e-05
8.33325226108339e-05
9.92250699773831e-05
0.000115215768631337
0.000131182134133593
0.000148742736283353
0.000175532574438988
0.000228711303061524
0.00028704862215714
0.000344365308563223
0.000399857914926067
0.000453918082997841
0.000506415853258388
0.000557598905032439
0.000607465738985781
0.000656089802344629
0.000703454251617531
0.000749570804328355
0.000794483055517391
0.00083831596655164
0.000880968079376862
0.000921202420846337
0.000959112710926283
0.000994577135038485
0.00102748485283679
0.00105774424588502
0.00108528719347993
0.00111007790218334
0.0011321128590401
0.00115141357912108
0.00116801963906969
0.00118198400706271
0.00119337105073904
0.00120225303823466
0.00120870949366779
0.00121282029036873
0.0012146688842541
0.00121433699618448
0.0012119216831167
0.00120753867436188
0.00120131161952123
0.00119336861702655
0.00118383401367078
0.00117282602122591
0.00116045431033177
0.00114680689195527
0.00113195121043039
0.00111591704335662
0.0010987437467622
0.00108048631554335
0.00106122537223503
0.00104100756059211
0.00101992209985463
0.000997925499984338
0.000975063769411956
0.000951120698338012
0.00092621296082788
0.000899859620824424
0.000872428244888985
0.000842639021606646
0.000811352453686346
0.000775470761077388
0.000737741148366531
0.00068990735409362
0.000638874556551273
0.000578774610148511
0.000604741567528737
0.000653943142025629
0.000717484231468583
0.000781482433971886
0.000847533019658134
0.000914274787280371
0.000984754681686178
0.00106301032884459
0.00113572026035777
0.0011973768049433
0.0012438676685331
0.00127112723640426
0.00127204470304207
0.00124410047198456
0.00121054835251535
0.0011799044721719
0.0011572267840536
0.00115121611582542
0.00117580744637864
0.00125036539032628
0.00134344882045069
0.00146839427562177
0.00162854164819343
0.00180605972397106
0.00187131058955249
0.00159687419359272
0.00124079934501732
0.000949199568741694
0.000737189240371672
0.000714359428992049
0.00257352801799044
0.00257734707701265
0.00194413406352019
0.00113713075252184
0.000511415218853748
0.000184045437308736
0.000117608914198115
9.79268433677951e-05
6.40320457928593e-05
4.12384199247679e-05
3.04771294645017e-05
2.53028281216506e-05
2.28989230782837e-05
2.27970883929696e-05
2.44091074531312e-05
2.79616683445036e-05
3.39593908643849e-05
4.30648024410435e-05
5.58882605208593e-05
7.32770038449801e-05
9.61994789108894e-05
0.000125248561899471
0.000160497881774601
0.000201738848977066
0.00024956622370628
0.000302844487987626
0.000358800429334129
0.000414637132124362
0.000469788084651311
0.000529792927778819
0.000619685322509757
0.000791847115193735
0.000975160357659282
0.00115121010154019
0.00131794491169559
0.00147743963902277
0.00162974730572938
0.00177608281255003
0.00191675017625837
0.0020522609232748
0.00218279718399001
0.00230858600448658
0.00242990621296789
0.00254672427783424
0.00265596956632222
0.00275874693346415
0.00285498937727973
0.0029445643792501
0.00302735708582032
0.00310328538635335
0.00317231035970971
0.00323445328881414
0.00328979314600359
0.00333845035818716
0.00338057234122663
0.0034163246773631
0.00344588746978976
0.00346944956855981
0.00348720714444669
0.00349935176117278
0.00350607610086982
0.00350756698363179
0.00350404087224629
0.00349575061477932
0.0034829642248264
0.00346595660263954
0.00344499315810299
0.00342032509630268
0.00339218329764278
0.00336075223453963
0.00332616759983848
0.00328848403198447
0.00324777186919902
0.00320414125054351
0.0031577475662474
0.0031086865544906
0.00305712127616394
0.00300296819514692
0.00294624869502534
0.00288652731912906
0.00282386297883268
0.00275734969954894
0.00268736630467035
0.0026114691635827
0.00253047046163045
0.00243848782744823
0.00233918915961608
0.00221595052678332
0.0020772447878296
0.00191193750821553
0.00197526664145306
0.00210510243663989
0.002273411229374
0.0024477570683819
0.00262998109645047
0.00281720486962947
0.00301606149483861
0.00323421997997624
0.00344233776612231
0.00362530299022406
0.00377185692055326
0.00387138800449161
0.00390688069882647
0.00387018756568936
0.00381079772796109
0.0037526258565657
0.00371072031043997
0.00370871598990661
0.00378181262249392
0.0039800047977219
0.00422904026943215
0.00455157296519311
0.00494312721275025
0.00536085001239175
0.00552790247138185
0.00489069670801851
0.00390354289337235
0.00309667940529249
0.00251097382003579
0.00247117396140992
0.00541564791315645
0.00542491600229095
0.00432123642144825
0.00273366698577668
0.00135124958985917
0.000516587266912081
0.000314980028591663
0.000260033765158295
0.0001721112946543
0.000111468954960113
8.22761899818764e-05
6.81831488617366e-05
6.15762442272209e-05
6.10976481176967e-05
6.51149218909095e-05
7.42287819864869e-05
8.96854810061776e-05
0.000113097719475116
0.000145857193878581
0.000189809580614148
0.000246922249390577
0.000317991355387929
0.000402334722381288
0.000498530789429639
0.000607039508899301
0.000724593835524802
0.000845061415607219
0.000963147680818818
0.0010786798543483
0.00120458972641894
0.00138922602214002
0.00171800588937493
0.00205108018760493
0.00236259892603904
0.00265008957214728
0.00291997489960412
0.00317341409447559
0.00341356501960761
0.00364155981472402
0.00385879643880803
0.0040659700447408
0.00426374460439025
0.00445248154991916
0.00462856397060425
0.00479367656256479
0.00494827973477671
0.0050923979521721
0.00522601674902205
0.00534913177720955
0.00546176936538395
0.00556400241906579
0.00565597087969754
0.005737877733536
0.00580996852991612
0.0058725133303145
0.00592579637398441
0.00597011173191382
0.00600575765835704
0.00603303466302079
0.00605223332764257
0.00606363976404536
0.0060675305388558
0.00606421523701358
0.0060540454814116
0.00603738996123189
0.00601462194514876
0.00598609958154763
0.00595215992215798
0.00591311049353369
0.00586919928412176
0.00582060663683776
0.00576740933933799
0.00570969495156271
0.00564760767080338
0.00558133370691669
0.00551100012651791
0.00543678672849129
0.00535862183691687
0.00527644481306551
0.00518978165489356
0.00509845603168614
0.00500158177973774
0.00489906753814516
0.00478851264795223
0.00466977228672613
0.00453643716355422
0.00439002517591546
0.00421312485830196
0.00400646775590632
0.00376412912368341
0.00383581509803515
0.00402189832683375
0.00427300244727858
0.00454544006080362
0.00483741772236761
0.00514501742351205
0.00547574940631793
0.00583685084822149
0.00619104738551033
0.00651471187470648
0.00679014282673655
0.00700148787232459
0.00712590112546658
0.00715101567067178
0.00713590282123646
0.00711640284292326
0.00711631468216544
0.00717110758399576
0.00732993597758541
0.00766558137372474
0.00807871403444116
0.00858637560450064
0.00916341694602081
0.00975458749206088
0.00999879890481855
0.00918024098871263
0.00757271868980561
0.00620046666310522
0.00522940173204648
0.00521045144688128
0.00824332054138393
0.00826935201998857
0.00698575146733475
0.00484332104197518
0.00270682338677695
0.00118292091261222
0.000684491914625601
0.000554939850870152
0.000372937130903419
0.00024368952331279
0.00017988751752085
0.000148877633226308
0.000134172324676621
0.000132511736766613
0.000140308224136937
0.000158746438926582
0.000190102466168262
0.000237158192949719
0.000301881633643186
0.000386644873124514
0.000493467812660605
0.000621650674894726
0.000767829687021695
0.000928098609371445
0.00110231364431094
0.00128517946243392
0.00146890076942482
0.00164862514447689
0.00182798336879821
0.00202975369892627
0.00231805076942077
0.00278209734966576
0.00323342698374382
0.0036496627801779
0.00402809385949172
0.00437991273335641
0.00470742000099244
0.0050155016953874
0.00530606556828502
0.00558126358515775
0.00584226803011371
0.00609017204736457
0.0063221096421197
0.00653900523734618
0.00674204946573088
0.0069316131625705
0.00710783421444931
0.00727081201891498
0.00742064795535058
0.00755746909196557
0.00768144732536332
0.0077928204897427
0.00789188873427621
0.00797899305809888
0.00805449566228633
0.00811876905569279
0.00817219115395426
0.00821514053316675
0.00824799419492188
0.00827111697170469
0.00828486542604145
0.00828958476980932
0.00828565173464144
0.00827348580546498
0.00825352408434122
0.0082262052302989
0.00819194888854441
0.0081511488675373
0.0081041637491347
0.00805128756139929
0.00799273673991265
0.00792861521577449
0.00785902882767926
0.00778415057040705
0.00770418393937041
0.00761928359309207
0.00752963323365128
0.00743520733731732
0.00733588081242455
0.0072312426489464
0.00712089706336425
0.00700443500349828
0.00688104541485314
0.00674865348046186
0.00660624572846678
0.00644845180825324
0.00627426252956464
0.00606916189075887
0.00582691464175203
0.00555096681750408
0.00560495142221812
0.00581292000844688
0.0061097304489111
0.00644665133637203
0.00681645483387629
0.00721383199203341
0.00764500499387041
0.00811456850886292
0.0085832320175054
0.00902190095764387
0.00940868170752998
0.00972495143472055
0.00994656038750427
0.010060970386994
0.0101260673846577
0.0101834705391368
0.0102622537807581
0.0104035165402511
0.0106610881663456
0.011114610612089
0.011664070383471
0.0123151320332227
0.0130228066321373
0.0137326863994966
0.0140505583799409
0.0132855599621874
0.0113325527506934
0.00947723235071464
0.00810291136678564
0.00800256238162718
0.0106004903467084
0.0106268846358342
0.00937866557744622
0.00703791004855784
0.00439411194085129
0.00226463176323215
0.00127733032455089
0.00100942442085018
0.000691339265194814
0.000458057858785568
0.000338919001754612
0.000280318293898232
0.000252069965760628
0.000247293134356223
0.000259449878786997
0.000290248153169849
0.000342776650172545
0.000420365825256562
0.00052427869921871
0.000655803759427623
0.000815175766981213
0.000998663729205163
0.00120002057907524
0.00141414395822538
0.00164147850600099
0.00187668746710764
0.0021131672241771
0.00234909942288171
0.00259343160108006
0.00287647115432588
0.00326506272180122
0.0038299746030756
0.0043656656721976
0.00485652855125932
0.00530026377781986
0.00571125750951169
0.00609265360282148
0.00645034821118856
0.00678678125388302
0.00710454949861767
0.00740514140478446
0.00768825443375489
0.00795247884518772
0.00819975496037068
0.0084309362366492
0.00864640918495975
0.00884639383891233
0.00903107025034119
0.0092006155808116
0.00935522960531678
0.00949515549362244
0.00962070077850305
0.00973223508951603
0.00983016871306776
0.00991493163996513
0.00998696211189518
0.0100467009803398
0.0100945878739162
0.0101310587636562
0.0101565371481582
0.0101714361498836
0.0101761563535024
0.0101711270138057
0.0101568198651047
0.0101337248993507
0.0101023311211718
0.0100631057334048
0.0100164866249966
0.00996287278989852
0.0099025968359234
0.00983590823508321
0.00976293920346195
0.00968381443204007
0.00959873336849555
0.0095079140304152
0.00941153543393967
0.00930978687442309
0.00920269484889965
0.0090900945510569
0.00897169833454631
0.00884723626674479
0.00871600865411924
0.00857707540818146
0.00842875525955215
0.00826940090548286
0.00809474938749194
0.00790202963409803
0.00767977730375582
0.00741794044739414
0.00712764842618593
0.00715733371845942
0.00737042661519764
0.00769267411295761
0.00807254730610319
0.00849757921895137
0.00896071593047365
0.00946612178421207
0.0100152943125571
0.0105688188703964
0.0110940970926055
0.0115664745975379
0.0119659061565072
0.0122688032888638
0.0124644892000162
0.0126071905819935
0.0127408391871628
0.012897672848519
0.0131211632980199
0.0134665679055618
0.0140117595146821
0.0146664699802402
0.0154268248624402
0.0162335542368262
0.0170329531721533
0.0174206043675966
0.0167930389030226
0.0147710751131965
0.0126184363381001
0.0108160188313006
0.0104587660874422
0.0125924223848606
0.012567094876877
0.0113864001601582
0.00909121825216578
0.0061724295339505
0.00369514215984459
0.00211921386882622
0.00161498031708638
0.00112880914781503
0.000762565731438426
0.000567172605494044
0.000469244343063537
0.000421002573982798
0.000409430542204255
0.00042458054085974
0.000468086965178928
0.000543022465836141
0.000651953114337485
0.00079391297194826
0.000967906336514067
0.00117175507511046
0.00139927505059626
0.00164314793175278
0.00189899028573444
0.00216849479596605
0.00244740285558107
0.00273139397736963
0.0030220309214379
0.00333246346234165
0.00369595860729804
0.00417316830007215
0.0048111503201585
0.00540923007233343
0.00595598001433082
0.00645026837673964
0.00690770678848956
0.00733205521177738
0.00772960984732883
0.00810316319362213
0.00845553301599038
0.00878832298798852
0.0090995832899621
0.00939068228808924
0.00966307075008767
0.0099174900398098
0.0101543616934372
0.0103739682682688
0.0105765510458402
0.0107623455467832
0.0109316081005045
0.0110846374119974
0.0112217953049705
0.011343506351682
0.0114502367808601
0.0115424721289647
0.0116207051560234
0.0116854292964886
0.0117371357025871
0.0117763106954393
0.0118034286496931
0.0118189523438678
0.011823330705801
0.0118170379486594
0.0118005902765342
0.0117745229323942
0.0117393680074683
0.0116956335086888
0.0116437952919381
0.0115842877676779
0.0115174784752283
0.0114436486173632
0.0113629584987966
0.0112755515818481
0.0111816523999557
0.0110814929828032
0.0109752736284141
0.0108631925351827
0.0107453261370586
0.0106215987694229
0.0104918632522851
0.0103555472749326
0.0102120554266493
0.0100603590999265
0.00989910029159463
0.00972625569751437
0.00953844763248696
0.00933185128084458
0.0090974780107134
0.00882385110522398
0.00852702738190275
0.00853335926153237
0.00874395064419514
0.00908078881294183
0.00949066103769812
0.00995658847134737
0.0104696132777003
0.0110316042504422
0.0116410074985453
0.0122587169209826
0.0128497653608793
0.0133875883226666
0.0138514154696635
0.0142188749069348
0.014481754996547
0.0146906486573947
0.0148900451924449
0.015114101500053
0.0154071517961123
0.0158250272542472
0.0164405974719349
0.0171751982539
0.0180178710157748
0.0189002464280861
0.0197649974600349
0.0202091514632337
0.01968948810019
0.0177502203100893
0.0155061049242368
0.0133749700868931
0.0126707345060934
0.0143980268820072
0.0142639045285704
0.0130896394356303
0.010956272919487
0.0078971309671346
0.00530217840791952
0.00320973705387427
0.00233690473606153
0.00165828352229055
0.0011454348188705
0.000858440535382967
0.000711115261633779
0.000636747022267737
0.000613396542962821
0.000628225876859026
0.000681850181051821
0.000776409031098064
0.000912585075533053
0.0010864947136931
0.00129476775993652
0.00153329035409113
0.00179469306923113
0.00207201095351076
0.00236229100751322
0.00266833447074787
0.00298722653226293
0.00331690057338545
0.00366159943267509
0.00403675484590085
0.00447488943397664
0.00502719864995151
0.00572064775605823
0.00636884989871631
0.00696117220188427
0.00749813838745513
0.00799519658416053
0.00845663545487093
0.00888879621717356
0.00929473429318759
0.00967738236130235
0.0100376214097673
0.0103741236874859
0.0106890380438991
0.0109836033877796
0.0112585324543421
0.011514286488997
0.0117512012613314
0.0119695697041858
0.0121696769374623
0.0123518275403667
0.0125163675257447
0.0126637049541089
0.0127943118322857
0.0129087035340514
0.0130074148894942
0.0130909874652192
0.0131599619435247
0.0132148760606722
0.0132562619747614
0.0132846408104169
0.013300521360508
0.0133043969505755
0.0132967825198576
0.0132782344582656
0.0132493290926772
0.0132106376587122
0.0131627052526807
0.0131060423369323
0.0130411160528532
0.0129683268869285
0.0128879872416759
0.0128002851517976
0.0127053826788609
0.0126035289447969
0.0124949701336011
0.0123799253807326
0.0122586045811443
0.0121312312886206
0.0119978279811699
0.0118580304094356
0.0117112747300375
0.0115570542456356
0.0113943041719547
0.0112219143609712
0.0110376800048798
0.0108388935222381
0.0106211889708365
0.0103774851052139
0.0100959563778252
0.00979669675969467
0.00978249568480438
0.00998688619305031
0.0103318466106749
0.0107633178340301
0.0112605728292409
0.0118127175221675
0.0124192640986112
0.0130757653414641
0.0137434210620841
0.0143855943044562
0.0149743854218767
0.0154887423419235
0.0159077785816918
0.0162257892568411
0.0164902304726738
0.0167452184971383
0.0170260123418722
0.0173770420790527
0.0178543615601432
0.0185250333593233
0.019321044537957
0.0202259575877421
0.0211660152318972
0.0220765404875279
0.0225626328192109
0.0221147535406426
0.02029290359364
0.0180744906797979
0.0157765725003563
0.0147554452274801
0.0161107642111901
0.0158353202665535
0.0145969601971347
0.0126532175421362
0.00951808052619365
0.00694671668996258
0.00450618118361523
0.00315040459757192
0.00224423500465018
0.0015816745057424
0.00119514564730137
0.000991854803852729
0.000886467305810566
0.000847222135161125
0.000858035506171761
0.000918077951948117
0.00102798894839516
0.00118601371671778
0.00138536441341591
0.00162065284756369
0.00188646043789388
0.00217515452584871
0.0024807300170628
0.00280166308815247
0.00314158334900444
0.00349884778414405
0.0038732076031372
0.00427064088663632
0.00470717800634209
0.00521254288253447
0.0058286076005533
0.00656754735440705
0.00725903369959373
0.00789125793801649
0.00846651959122329
0.00899935502407071
0.00949453311477889
0.00995826452210021
0.0103938179457578
0.0108042958370847
0.0111892722801487
0.0115491710239672
0.0118860254630058
0.0122009794476335
0.0124947527119742
0.0127678482009335
0.0130206504340505
0.0132534991183059
0.0134667243812089
0.0136606745731447
0.0138357385175879
0.0139923660695617
0.0141310725771767
0.0142524189408541
0.014356985932213
0.0144453609016776
0.014518128886958
0.0145758715274562
0.0146191643091908
0.014648572826369
0.0146646499069597
0.0146679309911951
0.0146589692694156
0.0146383588318095
0.0146067147214934
0.0145646450544087
0.014512729838448
0.0144515121663311
0.0143814903658202
0.0143030967582973
0.0142166748452841
0.0141224401362535
0.0140205731434774
0.0139113478140091
0.0137950248695821
0.0136718402719157
0.0135420809648495
0.0134061955737331
0.0132639157880428
0.0131149355968874
0.0129587102419611
0.0127948063089381
0.0126221660744826
0.0124398694391067
0.0122456666218108
0.012037356947422
0.0118103867294812
0.0115591420623699
0.0112721812728008
0.0109726121890562
0.0109408607833232
0.0111372167570817
0.0114861027106115
0.0119333276467898
0.0124551091742708
0.0130386549244252
0.0136811269119157
0.0143753564109819
0.0150827276896989
0.0157654008907569
0.0163945783927628
0.0169492648777098
0.0174102003321222
0.0177740274163688
0.0180855400104026
0.0183879541585254
0.0187170525355486
0.0191169293582694
0.0196435516519653
0.0203583115682366
0.021202322675547
0.022154619211344
0.0231384638704409
0.0240795811801536
0.0245947990319787
0.0241897424873129
0.0224773298605781
0.0203256383209533
0.0179877569085633
0.0167380900101999
0.01775200704807
0.0173301720556024
0.0159899928059529
0.0142084085848497
0.0110320118542865
0.00852588971849186
0.00593811369223322
0.00404857345720149
0.00286706701715829
0.00204935463941789
0.00155914216746616
0.00129617559458001
0.00115686125690971
0.00109917520253197
0.00110326170773069
0.00116651553632874
0.00128785150732428
0.00146296415368681
0.0016824815483229
0.00193941748403399
0.00222756831539556
0.00253956007041784
0.00287048240987486
0.00322002668325693
0.00359242452303026
0.00398709879153714
0.00440509102568278
0.0048532611581542
0.00534708751328921
0.00591271438654803
0.00658412020317373
0.00736303659630111
0.00809378316125987
0.00876271100691511
0.00937369606511053
0.00994005167301599
0.0104669603444512
0.010960429164088
0.0114238905228185
0.0118604125463387
0.0122688140372637
0.0126509163028851
0.0130085165776342
0.0133427213966212
0.0136542751438873
0.0139437239720878
0.0142114990027712
0.0144579842144292
0.014683552298298
0.0148885929269354
0.0150735352888604
0.0152388685765116
0.0153851492684724
0.0155129819498044
0.0156229915972538
0.0157158098506833
0.0157920645890433
0.0158523799712081
0.0158973734380381
0.0159276538577277
0.015943817108001
0.0159464394959131
0.0159361110590963
0.0159134621823016
0.0158791453550246
0.0158338043050692
0.0157780526822304
0.0157124650423424
0.0156375700097757
0.0155538311503535
0.0154616232432346
0.0153611891589613
0.0152527277235586
0.0151365385882485
0.015012897461534
0.0148820728569322
0.014744632954748
0.0146007512005573
0.0144501755026889
0.0142926478892056
0.0141276530655589
0.0139548192889499
0.013773128121396
0.0135818092889586
0.0133786615380023
0.0131618756777185
0.0129269494194482
0.0126694154403045
0.0123786838311133
0.0120799860867595
0.012033358641011
0.0122208213687533
0.012570748548492
0.0130294267223235
0.0135706263576441
0.0141797336463644
0.0148515981568255
0.0155764904635626
0.016315840062764
0.0170309427124807
0.0176924656429346
0.0182797580888577
0.018775273142622
0.0191777682263461
0.0195297287649037
0.0198731450626201
0.0202438898915863
0.0206854512153815
0.021253378618072
0.0220038546472119
0.022885693509517
0.023874001207032
0.024890593598622
0.0258506453782032
0.0263843594912368
0.0260010822723701
0.0243794434229405
0.0222999565217835
0.0199927736682078
0.0186006326616187
0.0193154332518084
0.0187570426581455
0.0173168705954858
0.0156382124998958
0.0124510982617757
0.00999385984384844
0.00745338411156737
0.00506037486782629
0.00352958625567407
0.00253904030935963
0.00193978954729992
0.00161406927971408
0.00143893804834311
0.00136155017112726
0.00135729410745808
0.00142137769408023
0.00155094501150241
0.00173930977358997
0.00197495796529218
0.0022496952542104
0.00255690811999625
0.00288972074194084
0.00324424395391179
0.00362114949661317
0.00402510246202965
0.0044563407171789
0.00491670809781152
0.0054132892439325
0.00596034959072059
0.00658040655878308
0.00730117862908753
0.00811698106524304
0.00888450557322862
0.009588320288213
0.0102334862675073
0.0108320340588717
0.0113894668842156
0.0119115710107791
0.0124019037156766
0.0128632214490043
0.0132944134248936
0.0136979630026125
0.0140755530925189
0.0144282854865033
0.0147569392801046
0.0150621053433128
0.0153442605092111
0.0156038318962947
0.0158412335852529
0.01605689535482
0.0162512856149751
0.0164249316950288
0.0165784301923226
0.0167124286899723
0.0168275956683661
0.0169246065698134
0.0170041314903524
0.0170668365833624
0.0171133806026386
0.0171444152216447
0.0171605790590345
0.0171624887630606
0.0171507705476454
0.017126090416095
0.0170891377946443
0.0170405914184582
0.0169810979089388
0.0169112626423047
0.0168316440647975
0.016742736735345
0.016644947091667
0.0165385453799299
0.0164237485713083
0.0163008835168847
0.0161702406972612
0.0160323374284722
0.0158875840434272
0.0157360894602089
0.0155776478398188
0.0154120436512125
0.0152387993826186
0.0150575973882459
0.0148674814705989
0.0146678047142344
0.0144564771939482
0.014232002307651
0.0139900878048339
0.013727183902322
0.0134338285035275
0.0131366783725606
0.0130774372319663
0.0132556857161507
0.0136045868159737
0.0140714090492094
0.0146280051652889
0.0152580384744402
0.0159541013617226
0.0167040489147056
0.0174692326524843
0.0182103508486873
0.0188978568876467
0.0195117026396454
0.0200361056814698
0.020471675189485
0.0208588199383347
0.0212380797469179
0.0216450774267504
0.0221225037010364
0.0227251545797999
0.0235045419160867
0.0244160185141119
0.0254312078935325
0.0264715208879078
0.0274415782946057
0.0279852172099046
0.0276087172102895
0.0260588411570848
0.0240448638137018
0.0217997762829148
0.0203268297436394
0.0207921836144737
0.0201111424826854
0.018600424746775
0.0169534773782493
0.0137946790374295
0.0113420997166067
0.00898936953814546
0.00622242280128452
0.00425117485636109
0.00305328896784175
0.00233485993015468
0.00194188302194403
0.00172868399690735
0.00163069136636518
0.00161701632804136
0.00168008172795684
0.00181524416147634
0.00201374985993877
0.00226240378690725
0.00255212551291704
0.00287613177172856
0.00322811387894174
0.00360505899997876
0.00400841548724103
0.00444314922945054
0.00491006389022889
0.00541140379425341
0.00595402095762593
0.00655066235089953
0.00722051586690864
0.00798645917014476
0.00883737887263071
0.00964012992079969
0.0103778407211416
0.0110562941086491
0.0116863036937346