/*--------------------------------*- C++ -*----------------------------------*\
  =========                 |
  \\      /  F ield         | OpenFOAM: The Open Source CFD Toolbox
   \\    /   O peration     | Website:  https://openfoam.org
    \\  /    A nd           | Version:  7
     \\/     M anipulation  |
\*---------------------------------------------------------------------------*/
FoamFile
{
    version     2.0;
    format      ascii;
    class       volScalarField;
    location    "20000";
    object      k_conv;
}
// * * * * * * * * * * * * * * * * * * * * * * * * * * * * * * * * * * * * * //

dimensions      [0 2 -3 0 0 0 0];

internalField   nonuniform List<scalar> 
15600
(
-4.5891965217046e-06
-3.50157858670529e-06
-4.16024202680755e-07
-2.75339024774782e-07
5.21668990961684e-08
1.14020631419441e-08
-1.06069655787873e-07
-8.27024184204678e-08
-3.99808005514463e-08
-1.55974878160967e-08
-8.0871757407738e-09
-4.44001909287461e-09
-1.93504909210394e-09
-7.26230342385541e-10
-2.66897810825379e-10
-4.56887055419889e-10
-7.41845345070821e-10
-1.14871443807284e-09
-1.73311099056701e-09
-2.54313552530841e-09
-3.55099558364099e-09
-4.66742777378336e-09
-5.81772702059692e-09
-7.14955605391427e-09
-8.36911428381165e-09
-9.12367996981827e-09
-9.35419085130188e-09
-9.5083130477311e-09
-1.06767852401931e-08
-1.77509140286079e-08
-4.71282983346277e-08
-6.40639116195568e-08
-7.29519228854384e-08
-7.8576614878879e-08
-8.29724942345948e-08
-8.57889998680481e-08
-8.7909201240213e-08
-8.91512141443483e-08
-8.97858749958686e-08
-8.97636073899928e-08
-8.92188438428718e-08
-8.82837816332043e-08
-8.71783762869345e-08
-8.60837927681304e-08
-8.37608608258968e-08
-1.47572067906865e-07
-3.22349543896583e-07
-5.00047047395353e-07
-6.78157693051766e-07
-8.54152092907744e-07
-1.02528691862227e-06
-1.18899263550871e-06
-1.34316699612054e-06
-1.48618408252036e-06
-1.6168100762167e-06
-1.73409322575941e-06
-1.83740522743077e-06
-1.9262960587854e-06
-2.00068982316648e-06
-2.06049058854151e-06
-2.10597682527542e-06
-2.13711756739191e-06
-2.15408148376769e-06
-2.15753692208316e-06
-2.148337807318e-06
-2.12762195869209e-06
-2.09656527608005e-06
-2.05632335885889e-06
-2.00818630466407e-06
-1.95307087648707e-06
-1.89206532012357e-06
-1.82525267747857e-06
-1.75310474413574e-06
-1.67575343801933e-06
-1.59486647617492e-06
-1.50992688984376e-06
-1.42415653792473e-06
-1.33401989343149e-06
-1.24571460252949e-06
-1.14856472840106e-06
-1.05868478029467e-06
-9.49145630052982e-07
-8.60059286650237e-07
-7.2482924718903e-07
-6.40541416306158e-07
-4.47423428555877e-07
-3.7776060398404e-07
-6.59315945447417e-08
-3.77532681714988e-08
-6.73922883358303e-09
-1.53115531792334e-07
-4.20773602562705e-07
-9.75301876263127e-07
-1.46552510254092e-06
-2.10156151199912e-06
-2.83592841037569e-06
-3.78697820496447e-06
-5.17033943057144e-06
-6.44226905618905e-06
-7.55543847372321e-06
-8.3647034346808e-06
-8.63935641425985e-06
-7.97015638802846e-06
-6.3826930060728e-06
-5.65245733709131e-06
-5.38762586485327e-06
-5.56853556385188e-06
-6.70262106615286e-06
-9.7843811669599e-06
-1.63422290145577e-05
-2.16049947914978e-05
-2.91810644558411e-05
-3.98546973131895e-05
-4.78403541924801e-05
-2.8283995578661e-05
-2.39804217693268e-06
-2.37826355315914e-06
-1.38491606031027e-06
-6.40709950208396e-07
-4.52208513184123e-08
-6.7706888062293e-05
-4.98862467569383e-05
-2.7421850881398e-05
-2.18096448424907e-05
9.14714217100452e-07
1.16970799270536e-06
-1.68018184173167e-06
-1.52556340834311e-06
-7.3266676130483e-07
-2.94969173028374e-07
-1.54514395263838e-07
-8.63873054859775e-08
-4.03987646125334e-08
-1.7041866643339e-08
-2.41917630189279e-08
-4.00208391027005e-08
-6.32941517253824e-08
-9.72154307986412e-08
-1.46237513638118e-07
-2.14199898066853e-07
-3.00158536376636e-07
-3.99064137939176e-07
-5.066312838912e-07
-6.26690449887226e-07
-7.40230274245121e-07
-8.2216301619631e-07
-8.64389819619395e-07
-8.97392338911863e-07
-1.04718556873739e-06
-1.67544821999193e-06
-3.59269393064006e-06
-4.77301767445789e-06
-5.44735941822214e-06
-5.91027251645352e-06
-6.28679102155662e-06
-6.55486765146351e-06
-6.77354341214016e-06
-6.9297221858217e-06
-7.04392183922015e-06
-7.11374994558e-06
-7.15075641217511e-06
-7.16697854508769e-06
-7.18086056167726e-06
-7.20787734563857e-06
-8.09966340556616e-06
-1.16763083816459e-05
-1.51902963443968e-05
-1.8694478450107e-05
-2.2145275387746e-05
-2.54988082009311e-05
-2.87105134059244e-05
-3.17404732794972e-05
-3.45570177457289e-05
-3.71363083329262e-05
-3.94608079013557e-05
-4.15177455471165e-05
-4.32992785894417e-05
-4.48008073755963e-05
-4.60225866051085e-05
-4.69652917296307e-05
-4.76337408104738e-05
-4.80299267772789e-05
-4.81599203937903e-05
-4.80373135956357e-05
-4.76789761504853e-05
-4.71056510357783e-05
-4.63386365419823e-05
-4.53989056452792e-05
-4.43082231987801e-05
-4.30826238257459e-05
-4.17378950128132e-05
-4.02763814078346e-05
-3.87062818792666e-05
-3.70337982082958e-05
-3.52845062218493e-05
-3.34577521502454e-05
-3.15962662999819e-05
-2.96557736012547e-05
-2.77098629520217e-05
-2.56206573534018e-05
-2.35853207956726e-05
-2.12552327088374e-05
-1.91225501051408e-05
-1.63162229789525e-05
-1.40432499011464e-05
-1.01870563088309e-05
-7.70109935721169e-06
-1.65207560260772e-06
7.04195831839346e-07
1.46792827932299e-07
-4.17695609051025e-06
-1.18596022439967e-05
-2.33681826710023e-05
-3.41604485347676e-05
-4.76196814694038e-05
-6.28885477478267e-05
-8.22651192200907e-05
-0.000109113781981562
-0.000134150727922682
-0.000156175124214861
-0.000172791173630979
-0.000180007138864341
-0.000170518241922971
-0.000145036778886692
-0.000130081299404937
-0.000123440340006998
-0.000125649598183418
-0.000144677698595688
-0.000199403566197148
-0.000311675736309416
-0.000418135048168241
-0.000559473403787673
-0.000749168507489726
-0.000904174108384883
-0.000647182458731428
-0.000152769023205677
-0.000141344961532954
-9.00453829762298e-05
-4.30575730107327e-05
-4.31943880738811e-06
-0.000159945068373971
-0.000150220367436693
-0.000197150395235961
-0.000181497390680482
-9.45935997940476e-06
1.87026487943962e-05
-5.49564017260819e-06
-7.22530879919078e-06
-3.44031992431503e-06
-1.42731361750696e-06
-7.77860219441754e-07
-4.50816238392288e-07
-2.34834450706192e-07
-1.41710245541525e-07
-2.64836298833576e-07
-4.23190451528047e-07
-6.53658323608277e-07
-9.96102266460843e-07
-1.49546692085579e-06
-2.19036157246881e-06
-3.08458324293297e-06
-4.14553751891264e-06
-5.32626462093397e-06
-6.61559326438363e-06
-7.85930563715039e-06
-8.83576607133329e-06
-9.41535681406456e-06
-9.84466455520233e-06
-1.1236458223355e-05
-1.62994790488346e-05
-3.15738695227416e-05
-4.04489777063526e-05
-4.68272095880408e-05
-5.13742969556766e-05
-5.53871188273496e-05
-5.84334125014798e-05
-6.11400335337365e-05
-6.33271060981127e-05
-6.52293386482886e-05
-6.68208878226649e-05
-6.82271285099465e-05
-6.95681237250546e-05
-7.10249432146532e-05
-7.46103282468619e-05
-9.10579894615961e-05
-0.000104889962897504
-0.000118326046630547
-0.000131259179809983
-0.000143585245263961
-0.000155205501560389
-0.000166029229717366
-0.000175983398513548
-0.000185017008387385
-0.000193097402737555
-0.000200205530333592
-0.000206332342536553
-0.000211478134297377
-0.000215649186516575
-0.000218858526606849
-0.000221118559302656
-0.000222446959377793
-0.000222859490949257
-0.000222385359737078
-0.000221071534260163
-0.000218972797583337
-0.000216151768480092
-0.000212671559248888
-0.000208593380285189
-0.000203975846544711
-0.000198859059460056
-0.000193274147424189
-0.000187221104613309
-0.000180721612086513
-0.00017379803982743
-0.000166522484459123
-0.000158902843209058
-0.000151047373076991
-0.000142821126004308
-0.000134397958501462
-0.000125366094433465
-0.000116248615197425
-0.000105989966005116
-9.5944786419255e-05
-8.33918287518797e-05
-7.18315800577855e-05
-5.4326518271099e-05
-4.00084490998923e-05
-1.1685807746987e-05
2.3751968253583e-06
8.80557476909233e-06
-2.41228545231116e-05
-6.71983249948502e-05
-0.000122951393030288
-0.000175227417556586
-0.000234400122519661
-0.000301859974359752
-0.000387023406171856
-0.000500083257330241
-0.000609050005773967
-0.000708508345450798
-0.000790157275527262
-0.000839105680104155
-0.000827134952061006
-0.000753717620412649
-0.000699393421341484
-0.000672721712951985
-0.00068236489726756
-0.000758631507796406
-0.0009823058983251
-0.00142036217685313
-0.00188690217117263
-0.00244469797309746
-0.00313050417497462
-0.00366724952715057
-0.00299784595450657
-0.00110280541807291
-0.000881296136767622
-0.000499594827724259
-0.00023103559933363
3.05102192775119e-05
0.000256396023378727
-5.93935316836543e-05
-0.000505438206971891
-0.00057013915541849
-0.000144633939288218
0.000127889300875269
3.08114086227365e-06
-1.7056079335946e-05
-8.13393722655419e-06
-3.48366057316224e-06
-2.0388441047846e-06
-1.2329592073924e-06
-7.15989015102669e-07
-6.93571365591631e-07
-1.23943461411404e-06
-1.95235315228687e-06
-2.9838730924544e-06
-4.52274125597771e-06
-6.76244542889637e-06
-9.86214274699631e-06
-1.38486687666366e-05
-1.8579274923187e-05
-2.37604434038648e-05
-2.92552550659969e-05
-3.444772939659e-05
-3.84632429750766e-05
-4.06355561106717e-05
-4.15815090132915e-05
-4.43600390939585e-05
-5.81170752806703e-05
-0.000106635267683675
-0.000125832094053415
-0.000145857513959097
-0.000159214633775099
-0.000172175150128466
-0.00018187064835801
-0.00019109332763351
-0.000198870820590084
-0.000206202409907154
-0.000212915101368432
-0.000219433722231215
-0.000226110425401357
-0.000235251179905169
-0.000267644564382955
-0.000286028667238225
-0.000303257868446448
-0.000319182425274754
-0.000333784094036155
-0.00034704640363767
-0.000358960983446449
-0.000369534377559623
-0.000378786108911178
-0.000386744499929963
-0.000393441981046163
-0.000398912990657055
-0.000403193059549666
-0.000406318251179935
-0.000408323378150285
-0.000409238792366206
-0.000409089487526401
-0.000407898256920942
-0.000405696792628915
-0.000402532848253709
-0.000398464751630916
-0.000393553221866351
-0.000387860654398563
-0.000381447142320178
-0.000374367851068147
-0.000366667205270016
-0.000358364244043131
-0.000349457692671298
-0.000339925170676244
-0.000329779406116156
-0.000319036080618289
-0.000307760916157483
-0.000295956870920982
-0.000283714603397345
-0.000270840265597088
-0.000257474042849619
-0.000243082084127959
-0.00022820966333608
-0.000211492063137696
-0.000194450118112758
-0.000173313173739159
-0.000150181201287682
-0.000119993776475517
-9.15474417306111e-05
-4.11535743159633e-05
-4.75481574942607e-06
3.63596426426442e-05
-4.97007128384594e-05
-0.000140413773047802
-0.000239220119798014
-0.000330349130095315
-0.000430197831111082
-0.000542852245303443
-0.000682332805890705
-0.000860594598168013
-0.00104067756221824
-0.00121483369679212
-0.00137364363540733
-0.00149756186094909
-0.00154746088765142
-0.00151656900146971
-0.00147707743300271
-0.00146079446647482
-0.00149487436425984
-0.00162368591619494
-0.00198656658907927
-0.00264812428973041
-0.00346077615819973
-0.0043392646506677
-0.00534866627288979
-0.00610737808266339
-0.00567533202594915
-0.0028897883564573
-0.00204419188310831
-0.000463707147323456
0.000135544422969398
0.000683656926440071
0.00102700229414511
4.44160982929154e-05
-0.000360020346506816
-0.000569765455893863
-0.000393541517592932
0.000420723289100237
5.61476248384438e-05
-1.95416038469695e-05
-9.90115324540743e-06
-4.48815441827266e-06
-3.16456234378381e-06
-2.05215866470064e-06
-1.35524402595922e-06
-2.0129262849609e-06
-3.69221278421849e-06
-5.83206578521645e-06
-8.87813869566063e-06
-1.33333775753952e-05
-1.96488345448898e-05
-2.81030817178315e-05
-3.85400295083693e-05
-5.0268453251084e-05
-6.21623380149649e-05
-7.38018431208113e-05
-8.379095585359e-05
-9.06130846085641e-05
-9.31069624445042e-05
-9.20793137876554e-05
-9.24501304847242e-05
-0.000113452080513087
-0.000191301476142373
-0.000205333814160255
-0.000248042114672587
-0.000273133535344969
-0.000299375359312181
-0.000318056640011777
-0.000335990430721537
-0.000350816645356878
-0.00036472414393754
-0.000377295455101335
-0.000389255496446832
-0.000400465927383947
-0.000439936053285156
-0.000453507097863308
-0.000466309013473501
-0.000477563658449725
-0.000487283188735993
-0.000495536542877354
-0.000502392581819365
-0.000507927284602077
-0.000512229263026713
-0.000515388693889697
-0.000517487340906603
-0.000518594626347625
-0.000518770094879482
-0.000518065627859843
-0.000516527036620405
-0.000514193080341364
-0.000511091811404914
-0.000507242137664563
-0.000502657392711868
-0.000497365589209321
-0.000491410691384677
-0.00048484002843844
-0.000477696502989919
-0.000470019788942795
-0.000461845656766539
-0.000453204049773683
-0.000444111744192613
-0.000434559461706977
-0.000424514955111963
-0.000413934412997012
-0.000402815112806199
-0.000391155215660666
-0.000378996768261952
-0.000366331318163587
-0.000353215627201646
-0.000339448659589689
-0.000325102655975362
-0.000309684153009364
-0.000293580637059486
-0.000273289904938024
-0.000252275922401806
-0.000229369618590554
-0.000205342022200786
-0.000172515960408161
-0.000138027324816334
-8.25957929633125e-05
-2.41727203793692e-05
4.72365932727349e-05
-6.17242333299072e-05
-0.000164678251832807
-0.000271149073636168
-0.000371092272362146
-0.000475920744636657
-0.000591937810492269
-0.000731759102471985
-0.000904993024880011
-0.00108615649838044
-0.00126941004219492
-0.0014486531450615
-0.00160838229851244
-0.00171542981106054
-0.00176167965470663
-0.00177339961229879
-0.00178450146933945
-0.00183208047930327
-0.00195056215976466
-0.0022892950182658
-0.00285796128952868
-0.00370775378221694
-0.00460322796545092
-0.00568683482460272
-0.00655873269405232
-0.00694279966642563
-0.0044951271442597
-0.00367739036649331
-0.000214371966546935
0.00146475122337347
0.00259772729954419
0.00192063258571529
0.000437175534449747
0.000232840268612447
0.00036713897121709
8.63425657611319e-05
0.00075684271779874
0.000171158026659133
1.8619509342753e-05
5.80085978048762e-06
1.88103768426613e-06
-1.25884788666339e-06
-1.31180848980606e-06
-1.27262178004971e-06
-4.08461018565513e-06
-8.04709158741941e-06
-1.29043583343658e-05
-1.95359596184161e-05
-2.87322177808019e-05
-4.09888247395169e-05
-5.62409148653412e-05
-7.34899554756354e-05
-9.10331256040689e-05
-0.000107085127666443
-0.000121747183270358
-0.000133665976666157
-0.000142143172146148
-0.000146417074070373
-0.000148116868975023
-0.000155446476455609
-0.000193791556523718
-0.000283612214017245
-0.000293899972989338
-0.000365934410269902
-0.000400831138147543
-0.000437018030937587
-0.000460138727024836
-0.000481518280716539
-0.000497940488005199
-0.000512676809563808
-0.000525266098660488
-0.000536777984863542
-0.000567179724563803
-0.000577671735357188
-0.000584814523507391
-0.000590800710643471
-0.000595357452305991
-0.000598551140338493
-0.000600482107311872
-0.000601251330757705
-0.000600966520104651
-0.000599744499182199
-0.000597699014924822
-0.000594927456880567
-0.000591505834191178
-0.000587494044120278
-0.000582939656675265
-0.000577882225609925
-0.000572351941040265
-0.000566367565331086
-0.000559935974841302
-0.000553057739390235
-0.000545747595764281
-0.000538037438547347
-0.000529960578459313
-0.000521541351247827
-0.000512799382199649
-0.000503749990083486
-0.000494403406654637
-0.000484758060919748
-0.000474787190710086
-0.000464442019942952
-0.000453663159990575
-0.000442434651708862
-0.000430740129475615
-0.00041860485087587
-0.00040601342559318
-0.000393001746040521
-0.000379383525083393
-0.00036517559889683
-0.000349358107915259
-0.000328324268865423
-0.000310298640073569
-0.00029110080422371
-0.000268495726521437
-0.000243932240955773
-0.000211751732084274
-0.000175896212446229
-0.000121812503701743
-5.32317333886427e-05
2.6796751227792e-05
-7.15133556003933e-05
-0.000164891748200913
-0.000262464089165542
-0.00035631286703307
-0.000451892579516718
-0.000555275014557214
-0.000676478012431154
-0.000823167938654921
-0.000979497112717556
-0.00114286057928654
-0.00130988316534137
-0.00146906231742771
-0.00159397125824469
-0.00167595854880874
-0.00171331337733304
-0.00172889076430218
-0.00175930315459618
-0.00182477829503846
-0.00206325155432162
-0.00244402089031151
-0.00314969729938347
-0.00391349629514019
-0.0049600984903331
-0.00583911134680435
-0.00690490408360167
-0.00548181561731631
-0.00576490096290491
-0.00177073653523801
0.00084184004542454
0.00375004050674143
0.00205205313841858
0.000837315803841455
0.000432764459670551
0.00143802700716752
0.00131738053161946
0.0014297329066886
0.000531798579124315
0.000148720086504309
6.37545008995417e-05
2.7886926752543e-05
9.80796292312092e-06
4.45827639100862e-06
1.722556725653e-06
-5.69332285063402e-06
-1.33008736691817e-05
-2.20770854640007e-05
-3.32325611577473e-05
-4.74795978611165e-05
-6.49898963957352e-05
-8.50655344549049e-05
-0.000106077497897803
-0.000126398216719258
-0.000145018143659854
-0.000162954005378186
-0.000179054260926634
-0.000193756576521641
-0.000207046667416848
-0.000222463126243212
-0.00025101741919272
-0.000313023680193274
-0.000398405195494043
-0.000411555503821182
-0.000499601448853659
-0.000535489236071667
-0.000572652880536125
-0.000593708631819565
-0.000612564770749174
-0.000625757176421714
-0.000636997614246859
-0.000645858215543362
-0.000655006346408587
-0.000676145059305663
-0.000678381905289088
-0.000680214208939196
-0.000680917419572597
-0.000680390911618755
-0.000678719007230197
-0.000676010541228591
-0.000672376869548842
-0.00066793568587438
-0.000662811088977946
-0.00065712422326476
-0.000650977183990717
-0.0006444453472013
-0.000637584275093351
-0.000630434173350133
-0.000623026961160822
-0.000615384272434751
-0.000607517266603456
-0.000599422813476552
-0.000591090552534976
-0.000582521149174148
-0.000573734555032483
-0.000564752738111331
-0.000555585577613574
-0.000546238135609402
-0.000536711137503294
-0.000527001487603537
-0.000517096525671619
-0.000506959493603696
-0.000496532612999831
-0.000485744449340399
-0.000474567356339639
-0.000462973974799111
-0.000450977550784884
-0.000438559510490491
-0.0004257406666411
-0.000412356123534863
-0.000396387746376709
-0.000376861728823732
-0.000360740753334049
-0.000342993712545248
-0.000323887636858165
-0.000301726406862923
-0.000277165163677728
-0.000245820376675455
-0.000209771622476177
-0.000157494971580562
-8.57100681788282e-05
-6.54965911627408e-06
-8.533840125322e-05
-0.000162756575523441
-0.000247567593094717
-0.000331554685385163
-0.00041568835093405
-0.000504803894485211
-0.000606784500313261
-0.000728260522196106
-0.000859175106583919
-0.00100007476526341
-0.00114932180314516
-0.00129775498399703
-0.001422898012551
-0.00151397342886087
-0.00155707133986989
-0.001563699303072
-0.00156561333623975
-0.0015727974935875
-0.00170654633941648
-0.00192466103334454
-0.00245094474743407
-0.00304529459125009
-0.00399326398130975
-0.00480786204154325
-0.00629147440035755
-0.00667897668499128
-0.0072952945928635
-0.00376321243430853
-0.00188510798223075
0.00269190482866634
0.000980402913970961
0.000783265730653095
4.34113403483517e-05
0.00227471360420214
0.00242278944401836
0.00251462705070073
0.00131539110494612
0.00040611216778477
0.000182854301322056
8.71021970019754e-05
3.80182355080667e-05
1.99361462459624e-05
1.03890303514268e-05
-4.02071770106635e-06
-1.6523823073553e-05
-2.99630454805255e-05
-4.56759361415383e-05
-6.41399862332913e-05
-8.54883770373627e-05
-0.000108879388466413
-0.000132888101972307
-0.000156718797155745
-0.000180097047617349
-0.00020398173238894
-0.000227360693692979
-0.000251894943442993
-0.00027871496134802
-0.000313039348489984
-0.000365307010991064
-0.000444150342134921
-0.000516309652057014
-0.000536965926011004
-0.000626784493362404
-0.000658912527923271
-0.000691914130584695
-0.000708359523570467
-0.000722545533447629
-0.000731239669521088
-0.000738055625284739
-0.000742426764150311
-0.000761215894054619
-0.000759243169970865
-0.000757744053001458
-0.000755591176684856
-0.000752421170641772
-0.000748204769012199
-0.000743032065295027
-0.000737012943086347
-0.000730261357428383
-0.000722896679769054
-0.000715042559957942
-0.000706822132385185
-0.000698339256535313
-0.000689667330830051
-0.000680857371001207
-0.000671942606291814
-0.000662948340262009
-0.000653889245588292
-0.000644770964439916
-0.000635582705994195
-0.000626304878118535
-0.00061692492252278
-0.000607452115654586
-0.000597899566697405
-0.000588266081043931
-0.000578546091543538
-0.00056872985050967
-0.000558805222614308
-0.000548752804198384
-0.00053853025038389
-0.000528074616575719
-0.000517304648202674
-0.000506181835303406
-0.000494670369731548
-0.000482774122257615
-0.000470473418353569
-0.000457776028981001
-0.000442269229023335
-0.000423382954148181
-0.00040826672102745
-0.000392195072280317
-0.000374601381950659
-0.000355531272942709
-0.000333611969108712
-0.000309038701553124
-0.000278186631799536
-0.000242066897644904
-0.000190973325408815
-0.000128242843712152
-4.06582859124969e-05
-0.000102812302841048
-0.000163652803914085
-0.000235302294533906
-0.00030883906093193
-0.000382045633279482
-0.000458290041034821
-0.000543872259385826
-0.000644963845496893
-0.000754856879277809
-0.000876818969545635
-0.00101034348900422
-0.00114744944297996
-0.0012675885424648
-0.00135698531177441
-0.00139725742692664
-0.00139150398333553
-0.00136556435220659
-0.00132307109239345
-0.0013682987032875
-0.00146581076156056
-0.00183472511558867
-0.00227667416310102
-0.00311272439615884
-0.00386207843808984
-0.00558950653127407
-0.00648942925457864
-0.00823988100886958
-0.00518286044089827
-0.00451015958847709
0.000376737665934785
-0.000827500992459282
0.000209064045072884
-0.000847515789609737
0.00304294240369512
0.0028766019838053
0.00406259239748463
0.00210067106573966
0.000772048292715038
0.000355789954412907
0.000182796339314363
8.77344017183875e-05
4.80970214261758e-05
2.33090355626664e-05
3.79349358769349e-06
-1.48494701088533e-05
-3.37454294136089e-05
-5.42697631929111e-05
-7.68452413099504e-05
-0.000101992560799884
-0.000128971347106186
-0.000156812580139883
-0.000185467960848605
-0.000214992353020213
-0.000245935494254413
-0.000277872284726098
-0.000313625933128141
-0.000355247151725226
-0.000408282761662885
-0.000479982024064451
-0.000567738817156862
-0.000626461607560803
-0.00065480848674814
-0.000738249900815317
-0.000765565701468076
-0.000792807040281082
-0.000804537549922388
-0.000814008219896469
-0.000818530770271728
-0.000821364366785822
-0.000819981399560804
-0.000832781860188369
-0.000828377034421266
-0.000823957271056046
-0.000818839411408257
-0.000812828598310085
-0.000805929943261184
-0.000798233235946148
-0.000789845855385272
-0.000780880341208019
-0.000771453452916802
-0.000761684491700647
-0.000751695951198404
-0.000741592242172397
-0.000731444406807042
-0.000721299262726836
-0.000711183662739084
-0.000701117261953221
-0.000691109010758293
-0.000681160515352086
-0.000671255062909465
-0.000661365055556533
-0.000651465716516945
-0.000641556782290466
-0.000631644323961945
-0.000621718495999392
-0.000611765787697877
-0.000601768798698614
-0.000591709210055936
-0.000581563603012935
-0.00057128682711411
-0.00056081308655168
-0.000550052949524446
-0.000538957509447277
-0.00052748439676562
-0.000515629809812404
-0.000503373903812678
-0.000488989678450937
-0.000469665357585801
-0.000455437170216398
-0.000440305998624703
-0.000424186728853202
-0.000406596861183639
-0.000387444083449244
-0.000365549317901212
-0.00034082798587666
-0.00031011652701911
-0.000273776204482953
-0.000223221804934176
-0.000160298455998162
-7.2832610233749e-05
-0.000122818277671326
-0.000168194552771131
-0.000227095560351731
-0.000290324595934592
-0.000353421495576439
-0.000418344515881332
-0.000490233345749456
-0.000575106211180963
-0.000668205489139078
-0.000775049176902199
-0.000895866442541603
-0.00102312361820411
-0.00113696708195195
-0.0012205085183368
-0.00125442713760946
-0.00123624577201008
-0.00118608266479156
-0.00110379084449598
-0.00107795182845686
-0.00108780030265677
-0.00132998897293273
-0.00164887612535324
-0.00237990560296535
-0.00308803757679145
-0.00495948559104844
-0.00634577922220655
-0.00887879496571638
-0.00634155996042654
-0.006251215554444
-0.00193854808427284
-0.00276388428558793
-0.000702937005345245
-0.00206932451806012
0.00375021767218525
0.00273874788615655
0.00600135968781458
0.00260771599947383
0.00101866141586938
0.000562656697247624
0.000305092635087552
0.000156011884428545
8.82990442086523e-05
4.65417685398209e-05
1.82446359975674e-05
-7.79446892411111e-06
-3.31297671603533e-05
-5.90702042289211e-05
-8.61309168119345e-05
-0.000115366727403652
-0.000146238339370697
-0.000178384603901238
-0.000212392411515864
-0.000248494512247789
-0.000286856630172016
-0.000327860023766215
-0.000375103311265633
-0.000430990135932003
-0.00050019059471268
-0.000585991345383716
-0.000677725643458208
-0.000725598557993664
-0.000759511269733937
-0.000833660499187372
-0.000856634866901357
-0.000878171834514605
-0.000885824761583797
-0.000891157783841571
-0.000892176030146682
-0.000891948086643668
-0.000894951907147363
-0.00089438362265672
-0.000887956150250453
-0.000881303351017442
-0.000873988423395739
-0.000865901784572942
-0.00085706560165129
-0.00084756541340772
-0.000837503650156443
-0.000826988708184019
-0.000816131995360273
-0.0008050459002266
-0.000793850498104382
-0.000782649957618367
-0.00077151265958788
-0.000760481522754838
-0.000749577400899994
-0.000738814984448663
-0.000728198292334873
-0.00071772591335841
-0.000707376475393252
-0.000697115320403526
-0.000686906371352073
-0.000676740710467284
-0.00066661871119816
-0.000656523635238029
-0.000646435940311529
-0.000636332592139913
-0.000626191081055119
-0.000615985808085714
-0.000605670710700497
-0.000595178786723197
-0.000584413770404123
-0.000573316575364883
-0.000561839810815525
-0.000549973299805141
-0.000537125005577991
-0.000516709023093927
-0.00050304073180692
-0.000488688143393212
-0.000473447091329591
-0.00045718377167292
-0.000439465416090072
-0.00042010849709361
-0.000398052223741913
-0.000373027138898961
-0.000342164058646971
-0.000305389713992185
-0.00025485290506843
-0.000191388354418477
-0.000103239451946479
-0.000144581991602934
-0.000176025364521773
-0.000222765899324075
-0.000275958358132185
-0.000329608058517655
-0.000384428664633988
-0.00044471385946756
-0.000516474451836625
-0.000596094133620447
-0.000690907892610996
-0.000801579311778103
-0.000920530598993731
-0.00102784816107175
-0.00110382802347304
-0.00112984740957142
-0.00109998861916419
-0.00102923722361193
-0.00091518591659495
-0.00083268803776246
-0.00077756344239041
-0.00091871721836355
-0.00114068046998722
-0.00177842111055047
-0.00247044858202302
-0.00443035435693961
-0.00628923415466919
-0.00931577551217249
-0.00737760336333162
-0.00739417106550152
-0.00376963598648903
-0.00446766100356692
-0.0017435943619922
-0.00338594288409288
0.00414605792998031
0.00226178138161118
0.00742548836257262
0.00313123646545004
0.00157401369499226
0.000800275440590088
0.000442668817617702
0.000236429004541343
0.000136886635977938
7.596400835139e-05
3.76417462648681e-05
3.46105701062487e-06
-2.88301251644691e-05
-6.04278144802167e-05
-9.20776923568341e-05
-0.000125418497958286
-0.000160257462538001
-0.000196921862055193
-0.000236498850155134
-0.000279335993180431
-0.000325282776197566
-0.000375466216840661
-0.000433812841997966
-0.000502565479783407
-0.000584876189100755
-0.0006804405040778
-0.000773690160516519
-0.000813481285949663
-0.000850701298221964
-0.000915432241020922
-0.000934805231199758
-0.00095125156345792
-0.000955519895984652
-0.000957369106069766
-0.000955481839606179
-0.000952354988406484
-0.000957141615911009
-0.000948557622649405
-0.000940536791945072
-0.000932214375180605
-0.000923301066200503
-0.000913732032611909
-0.000903536415982682
-0.000892792609449245
-0.000881596040861898
-0.000870048820927233
-0.000858255039943377
-0.0008463181609326
-0.000834354364668748
-0.000822466888967853
-0.000810721048849118
-0.000799156048613651
-0.000787786883126032
-0.000776623733307836
-0.000765666131710491
-0.000754910371847311
-0.000744331370585716
-0.000733888209543489
-0.000723534316984266
-0.000713252796476251
-0.000703039348618229
-0.000692871663422261
-0.000682725600086362
-0.000672574008786537
-0.000662391647510595
-0.00065215204375311
-0.000641809594384669
-0.000631297426364429
-0.000620513613892721
-0.000609388848846885
-0.000597872131098683
-0.000585947878152592
-0.000565976968831601
-0.000551702103160091
-0.00053785802074173
-0.000523316307128204
-0.000507881516018739
-0.000491385915177625
-0.000473425448480487
-0.0004537511504237
-0.000431376336095873
-0.000405896061749028
-0.000374641091908338
-0.000337212909735441
-0.000286279429893885
-0.000221891804078059
-0.000132423018298804
-0.000167655567727335
-0.000186686802157082
-0.000221873630912378
-0.00026529369367478
-0.000309970903260471
-0.000355581275235019
-0.000405814025693221
-0.000466731473540547
-0.000535376624502414
-0.00062051694213935
-0.000722990574762888
-0.000834820699628801
-0.000935575236066653
-0.00100323323437724
-0.00102064714666451
-0.000979966489534567
-0.000891698554790979
-0.000752025267264183
-0.000624181518648243
-0.000519472480957054
-0.000578780382034405
-0.000723704434740246
-0.00127937356211573
-0.00197463538042484
-0.00399368255399975
-0.00631027021964557
-0.00963205638558514
-0.00827517406566943
-0.00822304418568194
-0.00514228839490279
-0.00581992153352907
-0.00279661063663579
-0.00456860116544521
0.00393826091746155
0.00168559963624622
0.00810845954273258
0.00376795722303918
0.0023633351139229
0.00106504162944301
0.000592197078599716
0.000324857184443789
0.000190882814229347
0.000109111965829925
6.00883969723933e-05
1.77721651040867e-05
-2.12756473187768e-05
-5.82948517689077e-05
-9.43951777595297e-05
-0.000131753997524663
-0.000170604333894397
-0.000211930177190643
-0.000257187375545714
-0.000306812338969376
-0.000360380836724959
-0.000419568026890734
-0.000488263172884402
-0.000568213813085502
-0.000660887820229774
-0.000763176692263655
-0.000856949184843496
-0.000890982290621005
-0.000929762084373598