/*--------------------------------*- C++ -*----------------------------------*\
  =========                 |
  \\      /  F ield         | OpenFOAM: The Open Source CFD Toolbox
   \\    /   O peration     | Website:  https://openfoam.org
    \\  /    A nd           | Version:  7
     \\/     M anipulation  |
\*---------------------------------------------------------------------------*/
FoamFile
{
    version     2.0;
    format      ascii;
    class       volScalarField;
    location    "20000";
    object      k_diff;
}
// * * * * * * * * * * * * * * * * * * * * * * * * * * * * * * * * * * * * * //

dimensions      [0 2 -3 0 0 0 0];

internalField   nonuniform List<scalar> 
15600
(
0.00108824513742373
0.00108962635694651
0.000788314327093251
0.00044074302491471
0.00018950683288434
6.84185028700391e-05
4.67898555074528e-05
3.81277301042875e-05
2.31964601549044e-05
1.38927250676139e-05
9.52936810122142e-06
7.25073798668054e-06
6.02657097767946e-06
5.55242801191427e-06
5.53978775324439e-06
5.94418669892243e-06
6.78925285011896e-06
8.11363863685125e-06
9.89219619641013e-06
1.2132291157572e-05
1.48507407151885e-05
1.79885908242676e-05
2.14331624805355e-05
2.51116508522625e-05
2.91821168446392e-05
3.35752590271902e-05
3.80872054458674e-05
4.25985809045323e-05
4.72943173929881e-05
5.29926002443301e-05
6.26985558470586e-05
8.22804204354242e-05
0.000103784685130435
0.000125018806549714
0.000145691258663106
0.000165928180198346
0.000185670372943134
0.000204997344089203
0.000223900148420254
0.000242397124496987
0.000260474528612815
0.000278130108816244
0.000295374917923505
0.000312251805921661
0.000328830404432058
0.000344865716100404
0.000360010199285753
0.000374223787932809
0.00038744947586562
0.000399638401164516
0.000410751578617532
0.000420764261701223
0.000429666538113106
0.000437460433717557
0.000444156903347589
0.000449773690771156
0.000454334484745537
0.000457867193601862
0.000460403841900876
0.0004619770855418
0.000462621962642993
0.000462372672708641
0.000461270272531213
0.000459364409202244
0.000456708357906367
0.000453357662181166
0.000449366352115574
0.000444785842535836
0.000439664126355152
0.000434039679637777
0.000427942727869487
0.000421386726920993
0.000414389715910492
0.000406975488223775
0.000399180455028193
0.000391023911590747
0.000382547662834577
0.000373729595740836
0.000364599000214578
0.000355054246736074
0.000345169678099146
0.000334713252526176
0.000323897161378351
0.000312112425289991
0.00029986044728971
0.000285673548110652
0.000271012580823428
0.000252086713117579
0.000232449450467621
0.000209322059600265
0.000219130666244018
0.000240995640058704
0.000272697906061429
0.000309336925658231
0.000353050190639425
0.000404379412362271
0.000466498038975329
0.000543735466251166
0.000627747108926521
0.000713976022669554
0.000797873639229553
0.000873765362325468
0.000931932334405113
0.000967389111419024
0.00100371284954522
0.00104949735219012
0.00111151156821121
0.0012033192892177
0.00135081986816289
0.00159141900335899
0.00187111689299476
0.00220563257904412
0.00259437000523796
0.00297898010143624
0.003063316199929
0.00248134075217345
0.00186156019581121
0.00139283413421787
0.00106480376222828
0.00102727150032683
0.00582060832844491
0.00583544546426539
0.00427001666899507
0.00240708453545306
0.00105260814793516
0.000381821486504225
0.000255433514528141
0.00020839967172964
0.000127979025082213
7.68529190813892e-05
5.25821079761322e-05
3.99178361127638e-05
3.31023288635499e-05
3.04190100921234e-05
3.02607823117141e-05
3.23780049143562e-05
3.68925203703859e-05
4.40182703472668e-05
5.36238787891335e-05
6.57446576943614e-05
8.0479244450536e-05
9.75246340543147e-05
0.000116275686874516
0.000136314237399476
0.000158492721951709
0.000182476018969828
0.000207168754851901
0.00023189297461644
0.000257534739656251
0.000288435560504384
0.000340571978878248
0.000444905052287257
0.000559523709611009
0.000672569846400069
0.000782463900242456
0.000889955544520124
0.000994762910611861
0.00109736094615044
0.00119772676694426
0.00129599039785849
0.00139209820348715
0.00148605245199747
0.00157791908253697
0.00166793299603063
0.00175563143894692
0.00183792721191765
0.00191574066614277
0.00198875865842692
0.00205671950047459
0.00211940032585143
0.00217662742955861
0.00222829434739011
0.0022743619708843
0.00231484446187394
0.00234979570284673
0.00237930030192394
0.00240346953289764
0.00242243454721308
0.00243634444444363
0.00244535290063851
0.0024496236081324
0.00244932098803519
0.00244464405494409
0.00243583223316643
0.00242314348862492
0.00240684630220768
0.00238720284609247
0.0023644637760352
0.00233886237818196
0.00231058853338866
0.00227978911887438
0.0022465361872557
0.00221092093448467
0.00217306875437793
0.00213315301833637
0.0020912838268563
0.00204764633791915
0.00200217450289756
0.00195495245496515
0.00190558430050662
0.00185426406426415
0.00180011610143933
0.00174376279859089
0.00168284775611364
0.0016187892320274
0.00154591003628165
0.00146895587551322
0.00137265884695311
0.00126883973003672
0.00114539864843533
0.00119554824354675
0.00130798184599133
0.00146998551532872
0.00165984609046617
0.00188566103628313
0.00215131285263859
0.00247169348849071
0.00286514730049902
0.00329476582452324
0.00373732884078153
0.00417041425142151
0.0045670301198313
0.00488306365353707
0.00509540074152536
0.00530444472026174
0.00555686602485158
0.00588869257179094
0.00636522939961402
0.0071056894592386
0.00827401816628118
0.00963811477757006
0.0112335589593709
0.0130212193405078
0.0147461040102582
0.0152633345828034
0.0127402559247256
0.00967531548996416
0.00736881266771162
0.00573279424145981
0.00556066672242784
0.0125214056007194
0.0125639492488452
0.00955363717440396
0.00565000549267055
0.00262107585144988
0.000961442150399051
0.000612093701452408
0.000497403935721153
0.000309098815769937
0.000186599569699704
0.000127523349839173
9.66902798027039e-05
8.00777792932253e-05
7.34276202235337e-05
7.27504798950167e-05
7.7545884887884e-05
8.80448789491237e-05
0.000104711470371154
0.000127188657085949
0.000155475834993786
0.000189725470241364
0.000229163517398416
0.000272320946645011
0.0003181991945303
0.000368712533905429
0.000423165122809019
0.000479181045999699
0.00053520172105699
0.000592623162955595
0.000660728986436877
0.000773830944374037
0.000994119141445083
0.00123193723041255
0.00146553344114721
0.00169137913955536
0.00191217474622899
0.0021274271868044
0.00233862763826612
0.00254582770075871
0.0027495186346095
0.00294965042152701
0.00314624438636553
0.00333938245599545
0.00352764210686757
0.00369985860672116
0.00386607452445634
0.00402438249152764
0.00417424255441856
0.00431512954196122
0.00444657172207441
0.00456817453540976
0.00467965033278601
0.00478081819628743
0.00487158366982657
0.00495191995748718
0.00502185673445011
0.00508147486120976
0.0051308988036008
0.00517029260224955
0.00519984313737242
0.0052197643910244
0.0052302898378627
0.00523172476216479
0.00522445404554463
0.00520890862149147
0.00518554756691869
0.00515483063701835
0.00511720846045453
0.00507310878405367
0.00502289777636863
0.00496686722111679
0.00490519258805398
0.00483807234482632
0.00476578340220005
0.0046886554602522
0.0046069581681963
0.00452101358455192
0.00443086818285357
0.00433655512742822
0.00423769835795701
0.00413418919064746
0.0040252822725889
0.00391090389514415
0.0037888130127348
0.00365836509979245
0.00351440290750531
0.00335761174166057
0.00317211142259417
0.00295556999633915
0.00269802810724612
0.00277513781583589
0.00298772674105184
0.00329907070905537
0.00367718173588761
0.00412959582579956
0.00466314924615141
0.00530049606000204
0.00606644738141281
0.00690822715653139
0.00777935175999333
0.00863745508389452
0.00943702375831593
0.0101122535926085
0.0106237074058286
0.0111075641534235
0.0116559069828695
0.0123370022547522
0.0132568397265
0.0145804235856583
0.0165350732230956
0.018768195679553
0.0212071008279777
0.0236441989746973
0.0257413662373905
0.0263983962394623
0.0231789154522292
0.017915128572395
0.0143184864199988
0.0119856509998325
0.0120334797096163
0.0135389945671873
0.0139240550778862
0.0118846993055845
0.00813227883290109
0.00452317932060626
0.00185386991199586
0.00106102171814771
0.000841218924516689
0.000529826680006779
0.000322126234316253
0.000220025239004828
0.000166732997498096
0.000137989372710096
0.000126095589417573
0.000124206930925463
0.000131584637511929
0.000148402752694406
0.000175123121293215
0.000210791033541317
0.000254924977139499
0.000307203410869248
0.000365828680307434
0.000428081369977536
0.000492327246155856
0.000561249535613461
0.000633841683986713
0.000707311484879446
0.000780152681967417
0.000854412034464183
0.000944399875975426
0.00109732344160974
0.00138414850276083
0.00168143324050556
0.00197917860635547
0.00226684656156636
0.00255054664392136
0.00282771720150076
0.00310071730236519
0.00336876558330826
0.0036323271130139
0.0038908404391675
0.00414384555408788
0.00438913735727752
0.00460534422597499
0.00482307001890322
0.00503112544878894
0.00522909026403531
0.00541628803053093
0.00559211197303209
0.00575604746499911
0.00590769079260543
0.00604677148373778
0.00617314766938744
0.00628678228167336
0.00638771888252465
0.00647606607027017
0.00655198768580684
0.00661569485097816
0.00666744007163687
0.00670750376045794
0.00673619142088455
0.00675382493087046
0.00676078238777043
0.00675750919956003
0.00674449256176082
0.00672223980446729
0.0066912554802769
0.00665203276066456
0.00660504253103011
0.00655070913787947
0.00648938809430098
0.00642133523453206
0.00634679718012055
0.00626610564437535
0.00617959657394034
0.00608760704051955
0.00599043417690558
0.00588834925009791
0.0057812673277734
0.00566928999441319
0.0055517716512962
0.00542913382579996
0.00529987127097496
0.00516474658193593
0.0050212612273169
0.00486704700245992
0.0046955642424118
0.00450693681777965
0.00427198033838744
0.00400902960841868
0.00401161248569695
0.00420368127065685
0.00452028059848087
0.00493608868839325
0.00544457020016976
0.00605319713239238
0.00677731031845781
0.00763259591445296
0.00858306637463438
0.00957714114206951
0.0105689564578577
0.0115145466315947
0.0123604292915607
0.0130617174529553
0.0137083380312296
0.0143950261711553
0.0151875763111643
0.0161773945957661
0.0174590023756896
0.0192229561716306
0.0211601698097266
0.0231027725049386
0.0247480313980457
0.0260177782116941
0.0263318609261973
0.0244014888469501
0.0180297219795639
0.013836556665657
0.012034532357394
0.0125591418560931
0.00591840100983229
0.00686485118173508
0.00823051494868041
0.0072811962301336
0.00554505279290068
0.0032076060165218
0.00161539553299583
0.00120773831669156
0.000768456662698083
0.000470261178826394
0.00032067894011889
0.000242765571036737
0.000200663859837313
0.000182113061978936
0.000177638853846993
0.000186094184447995
0.000207067590021723
0.000240238965491926
0.000283238465042958
0.000334258803853845
0.000391679050003589
0.000452338618263149
0.000512828277751851
0.000572250210332109
0.000634367171011657
0.000698809733798482
0.000764924092364402
0.00083490234784339
0.000917323432450335
0.00103826498836761
0.00125286204852075
0.0016079448773115
0.00194507052450773
0.00228500839292508
0.00260394820989044
0.00291351305760484
0.00320850914176134
0.00349276551614225
0.00376514100287655
0.00402666069630754
0.00427703372973194
0.00451669090249828
0.0047167861610797
0.00492664896582698
0.005122954322961
0.00530696661728934
0.00547861010199374
0.00563775387078914
0.00578432186926303
0.0059183003494941
0.00603974541946261
0.00614879306309709
0.00624565744429233
0.00633061432002617
0.00640397984371286
0.00646609727183828
0.00651732743335634
0.00655804606547596
0.00658864018829804
0.00660950498655283
0.00662103600635881
0.00662362217370289
0.00661766290266219
0.00660358487893796
0.00658183380192834
0.00655285392935952
0.00651707573402712
0.00647491039027685
0.00642674541975212
0.0063729408931054
0.0063138059466682
0.00624958530240819
0.00618047999082867
0.00610675384604557
0.00602863022520791
0.00594637361907532
0.00586015667079179
0.00577031906278013
0.00567671990297032
0.00557972058798648
0.0054785522305123
0.00537647246871415
0.00526947175624882
0.0051574247059303
0.00503839672670657
0.00491577585768111
0.00478173969381962
0.00464244364775445
0.00447760044228477
0.00430592958146971
0.00420424144835832
0.00430514583797792
0.0045265721173656
0.00485608714631542
0.00527824122206503
0.00579807469124919
0.00642152334568555
0.00715745147917097
0.00799266563778443
0.00888700091045408
0.00980507477057495
0.0107152966465829
0.0115832505463958
0.0123640861751861
0.0130882763355228
0.0138223513179847
0.0146120327183509
0.0155276911304556
0.016622402476559
0.0181192416145008
0.0198503995591276
0.0217272710918218
0.023491569645997
0.0253304184101789
0.0264673906192481
0.0264742785999861
0.0190565048965169
0.0119985061808692
0.00751695239381408
0.00596817887006557
0.00103731348908127
0.00143767506446862
0.0038226324662217
0.00462251910721602
0.0047668894912078
0.00452915372124773
0.00231295392484983
0.00160281082230018
0.00101764569772783
0.000623226724191321
0.000422149825624888
0.000318282372422594
0.000262057507562047
0.000234658036854412
0.000225228698847581
0.000231502325357937
0.000251792697676266
0.000284216420801908
0.000324756209495041
0.000370717507410817
0.000420201468308856
0.000470535295432482
0.000520047426032197
0.000570594812335577
0.000626896741965717
0.000689092580273174
0.000759382713934884
0.000845070204604572
0.000962355617587629
0.00114281245001228
0.00143547856985438
0.00183278389283274
0.00215998394770804
0.00248012499321046
0.0027670174890041
0.00303965771236854
0.00329344984649452
0.0035339121534038
0.00376062490585004
0.00397528251528271
0.00417810352536806
0.00434996314251295
0.0045273136040217
0.00469410654954277
0.00484921782262564
0.00499334666480898
0.0051266168746919
0.00524911469044005
0.00536094197243049
0.00546222376535671
0.00555311652517249
0.00563381601667446
0.00570456556525865
0.00576565052739146
0.00581738201936275
0.00586008701014427
0.00589409888731948
0.00591975865589767
0.00593741183046997
0.00594741237718367
0.00595011106141614
0.00594584926803373
0.00593496007597275
0.00591778849671589
0.00589469493703008
0.00586603475537228
0.0058321513369565
0.00579337102136218
0.00575000163496606
0.00570233882385463
0.00565064383645293
0.00559513864329653
0.00553598748790109
0.00547339884994561
0.00540752603859538
0.00533856583201041
0.00526663125609029
0.00519203609426408
0.00511469351176549
0.00503554722462709
0.00495788035857279
0.00487351383100712
0.00478609553895101
0.00469663272115761
0.00460328617526592
0.0045081413135003
0.00440725490275966
0.00430508375381291
0.00419735680976377
0.00408756101721618
0.00394156617127449
0.00397954990070876
0.00412696517577813
0.00437653643898003
0.00471193770283185
0.00513537137585842
0.00564784172093824
0.00625426491315846
0.00695359055051825
0.00771689005886256
0.00851965810673602
0.00934272385105067
0.0101693935935877
0.0109713153954368
0.0117537760628859
0.0125612635324572
0.0134250285236899
0.0144008932167354
0.0155281409366036
0.0170221188985492
0.018810464379794
0.0208650540094903
0.0229014358616049
0.025141984729238
0.0266244232567229
0.0282791750549925
0.0232407543699931
0.0155919079242026
0.00741410716735335
0.00307267223173999
0.00203222081954525
0.00115846832028319
0.00210447292474952
0.00299499988357261
0.00305674235184439
0.00487535211654962
0.00325561877992606
0.00206081499618467
0.00128851968499977
0.000783100447429928
0.000521749516851117
0.000389029628053617
0.000317443676227787
0.00027812008994615
0.000261040242623001
0.000261701561065971
0.000277144217235855
0.000304370479566972
0.000339116812138315
0.000379567629384269
0.000424693799315928
0.00047250727470456
0.000522210285324537
0.000576498246949534
0.00063924645848366
0.000710608708107383
0.000795147867601683
0.000903084478311057
0.00105123720909161
0.00126365710015258
0.00157253033853447
0.00191673381959621
0.00217710070933161
0.00243593627943971
0.00266788983680416
0.00289036658185282
0.00309840728426563
0.00329622412319733
0.0034831730412687
0.00366040945238136
0.00382650344365572
0.00396936366492934
0.00411875023835326
0.00425716423459718
0.00438597268229972
0.00450557622780708
0.00461607331391346
0.00471754286433646
0.00481007371431031
0.00489377081663134
0.00496876236412009
0.00503520379280052
0.00509329076610753
0.0051432596256043
0.00518537238634
0.00521990789284954
0.00524715052436055
0.0052673928967903
0.00528093179100476
0.00528807642870556
0.00528913465484472
0.00528440727751658
0.0052741781951465
0.00525873537410655
0.00523838227930583
0.00521341714670964
0.00518412896977932
0.00515079226416667
0.00511366701584634
0.00507301013861036
0.00502905611452257
0.00498201767227409
0.00493204667384725
0.00487932399741336
0.00482397294032208
0.00476614718991381
0.00470594563734426
0.0046436380933743
0.00458122238846558
0.00451960930642562
0.00445183478638503
0.00438254574860275
0.00431140595245668
0.0042387711838268
0.00416429592657842
0.00408886207947802
0.00401143592278987
0.00393433331175913
0.00386326315403302
0.00379030493828788
0.00363605738138888
0.00363719723346925
0.00373486378108546
0.00392418449722244
0.00419086871783103
0.00453488331871998
0.00495425333541604
0.0054504295942694
0.00602797551406187
0.00666547903882976
0.00734605989519982
0.00805900949893554
0.00879938135107312
0.0095540252441049
0.0103190408123128
0.011127471167811
0.0120031014792445
0.012988786269468
0.0141087334245138
0.015513514098113
0.0171657213038521
0.0190353790059818
0.0208154238142042
0.0226918719720115
0.0237252967287463
0.0247709468871175
0.0236399076356217
0.0197285008566027
0.0110784219117955
0.00553130094449097
0.00523908736087767
0.00342563305789264
0.00243785128431146
0.00292649201666377
0.00173904714837438
0.00371151436397355
0.00427495072634129
0.00257394674957452
0.00158727546614899
0.000960967001109853
0.000625753225199289
0.000457853000981894
0.000368001145549503
0.000314377926828263
0.000288468486558652
0.000282953984335663
0.000294287557547511
0.000319140339900665
0.000353407632670529
0.000395387128484071
0.000443072805431856
0.000493375774119936
0.00054532018925627
0.000601965299549693
0.000666979060692419
0.000741552585415227
0.000831753409823286
0.000947502859802666
0.00110109373838126
0.00130590283645488
0.00158147330106
0.00184222421439311
0.00204447807815265
0.00225361153132029
0.00244696544329559
0.00263516895144222
0.00281350061690992
0.00298412241064236
0.00314628344347127
0.00330071043960322
0.00343153911130832
0.00357251119747052
0.00370272141879724
0.0038238957949879
0.00393683277989033
0.00404177680589175
0.0041387982706455
0.0042279584905108
0.00430932829520137
0.00438299312127918
0.00444905925158544
0.00450765340306113
0.00455893794993947
0.00460311579080174
0.00464041584572439
0.00467108526317402
0.00469537597365974
0.00471354840143169
0.00472586617289216
0.00473260795793114
0.00473405294352001
0.00473047632047493
0.00472213107391695
0.00470926757024927
0.00469215142138283
0.00467104270663435
0.00464619398464482
0.00461784491998952
0.0045862229562245
0.0045515577860888
0.00451406536336098
0.00447395406018122
0.00443137387712388
0.00438649024601119
0.00433941223389868
0.00429026159265806
0.00423913824664798
0.00418853694590756
0.00413911997124947
0.0040836737274097
0.00402693814336557
0.00396897820297729
0.00390999263767488
0.00384989870645015
0.00378932592229998
0.00372831178739226
0.00366775839510857
0.00360836006385637
0.00355172676537896
0.00351383317827067
0.00336296767596746
0.00334157489073608
0.00340384162949816
0.00354672299927491
0.00375844187382602
0.00403745379289248
0.0043797008695907
0.0047838559850809
0.00525744667051021
0.00578429012447358
0.00635314447158316
0.00695915407219591
0.00760446387446902
0.00828458237307332
0.0089886649917815
0.00974129423347466
0.0105601683083624
0.0114748350827754
0.0124951292550168
0.0137049080087816
0.0150863459013573
0.016590753513308
0.0179360451282325
0.0192670552101281
0.0197915180376597
0.0206628856715183
0.020609418658625
0.0202728546573942
0.014260384552319
0.00930591829771011
0.00799133381830753
0.0060248906815886
0.00363039207379721
0.00385481555718503
0.0012486228304073
0.00236548378108782
0.00455914730637805
0.00306349276629342
0.00188085985689473
0.00115541112985217
0.000742027554382478
0.000533056985028271
0.000418260093220422
0.000353503253743408
0.000319452743341371
0.000309470638852433
0.000319463902182821
0.000345189005347526
0.000381294376645812
0.000424620825416578
0.000471679830536427
0.000519214483040216
0.000567248370866939
0.000619754651087004
0.000680475541545712
0.000751396671891546
0.000838402733584691
0.0009490824076925
0.00109058599591186
0.00126918055781999
0.00150002626382117
0.00169375778044853
0.00186000071945103
0.00203598943307444
0.00220509076853326
0.00237094093470589
0.00253005540840178
0.00268283204646313
0.00282865838579535
0.00296985580730763
0.00308849931944498
0.00321474820179066
0.00333205624754307
0.00344151437304645
0.00354363842618866
0.00363859378435927
0.00372644016041118
0.00380723295961119
0.00388103665892035
0.00394792933317532
0.00400800887632223
0.00406138792981225
0.00410820980400598
0.0041486572900582
0.00418293854874024
0.00421128087738901
0.00423391497892938
0.00425107962808488
0.0042630149042126
0.00426997734086377
0.00427222551785936
0.0042700175169873
0.00426358592119445
0.00425315409815145
0.00423895973080877
0.00422123426809862
0.0042002025686091
0.00417607752499675
0.00414906095891404
0.00411935999049357
0.00408717434650119
0.00405270889685317
0.0040161164108991
0.00397755242638984
0.00393711800418181
0.00389490838674344
0.00385275244722139
0.0038135666123485
0.00376748942396207
0.00372030993388541
0.00367224194527271
0.00362319336255774
0.00357370517630552
0.00352341137416511
0.00347356918948839
0.00342364704206118
0.00337580637827244
0.00332959820864751
0.00328972559489537
0.00327101074590099
0.00312650874680697
0.00309061107104545
0.00312639841328964
0.00323225019442902
0.00339877023914153
0.00362342861141338
0.00390064526563082
0.00422698971743694
0.0046118925644474
0.00504326789779927
0.00551456716313367
0.00602546830926854
0.00658260287668804
0.00718559209881697
0.00781665552983225
0.00849276988047781
0.00922569322844037
0.0100317905105539
0.0109079106930808
0.0118836802533497
0.0129618426241907
0.0140771328132039
0.0150085466101882
0.015862066955499
0.0160533260654998
0.0166341084592788
0.0167949671906997
0.0180264978344127
0.0150895377184474
0.0117478449276179
0.00934992606141047
0.00784045347726759
0.00484757571978625
0.00514784011782893
0.00143187594004689
0.00124285483827788
0.0037023965211099
0.00328771771516604
0.00213830731375441
0.00134415180024053
0.000865734644924007
0.000617131671860299
0.000479040453104066
0.000402120071493966
0.000360780443938059
0.000346843223807592
0.000355175701768756
0.000379905285499427
0.000413997693307162
0.000453227341109934
0.00049396770956513
0.000534084099939127
0.000574777372973466
0.000620396418711334
0.000674226370658432
0.000738324641764998
0.000817413626585923
0.000916552327862718
0.00103934152426241
0.00118884731591846
0.00138017851948217
0.001527511868101
0.00167121507047447
0.00182417447852641
0.00197672855650954
0.00212668200237782
0.00227207821295944
0.00241192483164255
0.00254556913230483
0.00266814683804378
0.00278630806389428
0.00290175306970581
0.00300940665621679
0.00311000215029719
0.00320390200941372
0.00329123142452087
0.00337204998967779
0.0034464155116147
0.00351439420589767
0.00357606491860261
0.00363152633526055
0.00368088693112194
0.00372428020963728
0.00376187723842071
0.00379387286939937
0.00382048174396708
0.00384192005949113
0.00385841130629634
0.00387017762156125
0.00387745817158518
0.00388049525052253
0.00387953466893885
0.00387479511419822
0.00386647927336899
0.00385480257291562
0.0038399731351619
0.00382219285653638
0.00380165220336039
0.00377853089882095
0.00375301547787602
0.00372528950355567
0.00369555383807255
0.00366396664137643
0.00363067664113256
0.00359577951269968
0.00355991997058219
0.00352980856959706
0.00349127154722167
0.00345183808632397
0.003411483854134
0.00337054947850069
0.00332884657708691
0.00328713382913327
0.00324486593951691
0.00320369727186385
0.00316271784823568
0.00312489033716422
0.00308899175355564
0.00306158767052621
0.00305781958693074
0.00292010186743948
0.0028744349917947
0.00288957691619919
0.00296488825133701
0.00309308651361817
0.00327099289499164
0.00349189226677318
0.00375080846640039
0.00405862373790933
0.00440679183136636
0.0047929675876854
0.00522057821428044
0.00569914163564133
0.00622956438675075
0.00678720674399799
0.00738194850549062
0.00801966334493051
0.00870416751833594
0.00942016624904541
0.0101548846121376
0.0109345155437353
0.0116847092621426
0.0122681401543558
0.0127570676045548
0.0127895679908403
0.0131422067145096
0.0133520291252128
0.0148982311805123
0.0140330510750538
0.0123230667996123
0.00945513105838898
0.0085944859906698
0.00569123780016273
0.00627748184017518
0.00196185012911618
0.000682560740377765
0.00213091495089686
0.00365535243875362
0.00238194922805802
0.00151330249700963
0.000984886393733939
0.000702803281597637
0.000543877775449114
0.000456346189265266
0.000408057655151315
0.00038903457062495
0.000393003979138721
0.000412764243572888
0.000440471396663819
0.000471837994214858
0.000503896796728937
0.00053563325365767
0.000568733163178982
0.000607267171515758
0.000653725189250902
0.000709861786615231
0.000779092864263135
0.000864580746391076
0.000968019765626078
0.001091484926847
0.00125113250693215
0.00136639441449941
0.00149407000210043
0.00162972446082717
0.00176968031608389
0.0019073023003273
0.00204196834615898
0.00217166129924617
0.00229603628039581
0.00240540309153766
0.00252053724223349
0.00262737777014586
0.00272721270492291
0.00282055695499703
0.00290768413265383
0.00298869991715383
0.00306366956015133
0.00313265857231173
0.00319574008364547
0.00325299878838358
0.00330454037436414
0.00335047613739392
0.00339093613292887
0.00342608530311726
0.00345610990917693
0.00348121661221496
0.00350161141346937
0.00351750671720503
0.00352911025385218
0.00353664671560051
0.00354034444003487
0.00354043986420415
0.00353714227536633
0.00353063787168275
0.00352112340752707
0.0035087869437305
0.00349381025971166
0.00347636401631292
0.00345660784011458
0.00343470851323074
0.00341083249256928
0.00338517558975263
0.00335790331778776
0.00332915958104109
0.00329903587196803
0.00327521484851316
0.00324415219816264
0.0032111297349239
0.00317738956803394
0.0031428919357366
0.00310805964410076
0.0030726472841829
0.00303754876970744
0.00300210697868164
0.00296821921811477
0.00293472429936335
0.00290507657105744
0.00287754938540908
0.00285976739046864
0.00286805981031193
0.00273675415007565
0.00268427683581702
0.00268276881925285
0.00273214596971434
0.00282695786615655
0.00296359140978317
0.00313448044379383
0.00333356450619434
0.00357297830023029
0.00384742757820261
0.0041584448797784
0.00451258233763681
0.00492105513415174
0.00538419780242771
0.0058708671781422
0.00638432521032714
0.00692461133764467
0.00748382263082988
0.00803480841597975
0.00853177310261143
0.00902662760498186
0.00944552234110128
0.00974871116418063
0.00998279141621828
0.00998954274935292
0.0101950353137695
0.0104802363952775
0.0118758179538736
0.0121261909747296
0.0115659695002912
0.00878873905408406
0.00844947844485161
0.00611147824262404
0.00684583113775417
0.00267136734428488
0.000430523402130721
0.000962163909176904
0.00401964580619516
0.00264021881131638
0.00167281737157616
0.00109614927831573
0.000784022414486947
0.000605870344091409
0.000508924432765623
0.000453824398549885
0.000428493038847786
0.000425754844230437
0.000437881263858402
0.000457189131199147
0.000479800602720854
0.000503380884908661
0.00052751808669083
0.000553808609636376
0.000585748654227844
0.000624991511450708
0.000672914782261761
0.000731860011511095
0.000803795631594679
0.000889552805853504
0.000991116407203871
0.00112557213915268
0.00121770913968421
0.00133238213931075
0.00145414536805555
0.00158360718210883
0.00171101089571581
0.0018366825174025
0.00195788498947732
0.0020750883739305
0.00217778842227409
0.00228472862405967
0.00238429105907502
0.00247741583961881
0.00256447885126326
0.00264570001135848
0.00272117736707372
0.00279098510623386
0.002855200091254
0.00291390589607047
0.00296719627936417
0.00301518839972126
0.00305800173541643
0.00309576764074911
0.00312864898729388
0.00315682659036191
0.00318050239733063
0.00319987515615489
0.00321514920306791
0.00322652025509086
0.00323420038197593
0.00323840510096677
0.00323936322525957
0.0032372780374099
0.00323232226266189
0.00322467640531635
0.00321451061714685
0.00320198839722466
0.00318726233195365
0.00317047319897863
0.0031517682949757
0.0031312954525429
0.00310924409946235
0.00308578897232534
0.00306107066027879
0.00304119008351797
0.00301761861742029
0.00299030129801114
0.00296215259051327
0.0029334423999344
0.00290412415451805
0.00287467277333534
0.00284481065341209
0.00281551154727141
0.00278604886916675
0.00275845913796963
0.00273141222622376
0.00270864555259742
0.00268812105127435
0.00267799899545152
0.00269627190287863
0.00257075568334832
0.00251344020233317
0.00249815070546533
0.00252499459441593
0.00259009019436163
0.00268953560333258
0.00281513642450532
0.00296014637013184
0.00313787587082598
0.00334611903966124
0.00358999038932585
0.00387854455093541
0.0042236679544817
0.0046238332125573
0.00504198275049783
0.00547528313221292
0.0059180152608279
0.00635143408460466
0.00673648243946392
0.00700185269828657
0.00722677621684445
0.00734854548410348
0.00743429094131651
0.00751465678273768
0.00759086720712995
0.00771114055820663
0.00811142809655446
0.00924875477194773
0.0100532787172113
0.0101429380205881
0.00776617323201211
0.00770028125660245
0.00621233921570872
0.00668511111252739
0.00359858571405933
0.000447524015705797
0.000315929444463128
0.00346562548501897
0.00281896474592816
0.00184515119245562
0.00120617919290103
0.000846144543269048
0.000662691194642057
0.000556336972534257
0.000494336221373074
0.000462028404195973
0.000451459344039043
0.000455005811844294
0.00046569398572009
0.000480082891977846
0.000496185684121532
0.000513761636489359