/*--------------------------------*- C++ -*----------------------------------*\
  =========                 |
  \\      /  F ield         | OpenFOAM: The Open Source CFD Toolbox
   \\    /   O peration     | Website:  https://openfoam.org
    \\  /    A nd           | Version:  7
     \\/     M anipulation  |
\*---------------------------------------------------------------------------*/
FoamFile
{
    version     2.0;
    format      ascii;
    class       volScalarField;
    location    "20000";
    object      omega;
}
// * * * * * * * * * * * * * * * * * * * * * * * * * * * * * * * * * * * * * //

dimensions      [0 0 -1 0 0 0 0];

internalField   nonuniform List<scalar> 
15600
(
3736.40840723734
3734.08459100674
3731.19827420121
3749.17096424941
3835.17643660845
3961.32766207062
3997.07223449325
3915.48676935095
3737.95785099981
3496.27263955553
3215.87938776383
2922.85359333817
2662.29902244273
2442.28438960946
2254.8009926787
2093.66001645717
1954.05363747272
1831.17340999021
1713.87707364688
1598.63527386298
1487.20000155198
1381.11527592548
1281.84986741335
1191.70829868532
1115.49598522884
1053.58356837398
1004.94774152067
968.935148560601
945.20407001066
933.687776230823
933.500431535517
934.102101807917
934.102101808002
934.102101807892
934.102101807948
934.102101807925
934.102101807967
934.102101807941
934.102101807914
934.102101807952
934.102101807939
934.102101807902
934.102101807922
934.10210180785
934.10210180795
934.10210180789
934.102101807954
934.102101808002
934.102101807905
934.102101807952
934.102101807962
934.102101807914
934.102101807937
934.102101807879
934.102101807949
934.10210180788
934.102101807975
934.102101807929
934.102101807978
934.102101807964
934.10210180798
934.102101807953
934.102101807964
934.102101807943
934.102101807885
934.102101807888
934.102101807939
934.102101807859
934.102101807922
934.102101807905
934.102101808001
934.102101807905
934.102101807941
934.102101807975
934.102101807967
934.102101807938
934.102101807888
934.102101807888
934.102101807901
934.102101807927
934.102101807914
934.102101807914
934.102101808001
934.102101807927
934.102101807941
934.102101807928
934.102101807927
934.102101807939
934.102101807913
933.49552873579
933.701639196965
945.248692853604
969.010413662474
1005.0541797692
1053.72254233938
1115.66961623697
1191.91960761595
1282.09089929032
1381.37619870554
1487.47727337216
1598.92531251919
1714.17585014625
1831.47730014686
1954.38878015346
2094.04485231685
2255.24636196194
2442.80420491319
2662.91112069982
2923.57945075848
3216.63228121055
3496.96196747105
3738.52560206913
3915.86302522768
3997.17009053099
3961.13336079495
3834.88260583046
3749.07521376176
3731.20398224185
3734.10271485327
3736.40840723649
632.839944971189
632.524574832706
636.0983642807
638.913314162524
650.067740102714
668.294553400858
673.197590856331
659.71401615924
630.232517572676
589.93199664669
542.96491782703
493.694590368974
449.742387599777
412.572962287065
380.917619465259
353.730167933791
330.197008077456
309.505874089586
289.791432406825
270.424392222144
251.670421700748
233.786116801427
217.028404738882
201.81375884296
188.926502469908
178.437865278896
170.197719048943
164.12033202321
160.159023840537
158.480696200395
159.231712292141
159.293621511651
159.168333057979
159.08771352659
159.03222494193
158.985728528369
158.946335750179
158.908173923194
158.86928702001
158.827592040434
158.782293648765
158.732866877113
158.679246697729
158.62150456929
158.560067857344
158.495513858738
158.428277905371
158.358961057001
158.288190055595
158.216601954556
158.14486111072
158.07359617459
158.00335968987
157.93463139324
157.867831566093
157.803334658355
157.741463047606
157.682503027603
157.62668065495
157.574208582346
157.525240801421
157.479954017816
157.438481463477
157.400873293171
157.36713401994
157.337210110504
157.311019695698
157.288459809066
157.269388666079
157.253690718651
157.24121590994
157.231934815567
157.22576167145
157.222637540029
157.222289375079
157.224716273189
157.229406326631
157.236765888152
157.245868946735
157.258178438011
157.271329350096
157.289313183817
157.306076527124
157.332211279823
157.352319716882
157.394001081925
157.417325169038
157.493089635841
157.540113865037
157.719009167669
157.678049808008
159.565785236899
163.461948756581
169.464966792919
177.590688545081
187.958384968779
200.718159347803
215.765641737906
232.370212222258
250.165725089543
268.924606207284
288.41263978386
308.392919881965
329.482891040081
353.347797057683
380.820187360065
412.719375422242
450.046026116499
494.043555875451
543.266941868893
590.83326347793
632.132919625927
663.002592710846
678.623594708664
676.828261889225
663.532492618622
652.798946130763
646.025888207653
641.331001744421
634.856291470485
216.932231994335
215.714512044987
220.670224573527
221.719481822999
220.472892998681
221.806752342123
221.288407696832
216.660325902188
207.144045920854
194.102765876435
178.778026327565
162.643940026445
148.236225667158
136.033468885825
125.664688905654
116.788514234938
109.12809092517
102.390723960942
95.9676118942033
89.6478509002158
83.5025180392648
77.6143791318397
72.0872891318111
67.0955582686245
62.8677669135288
59.4205492338034
56.7288313350858
54.7982812285345
53.6750574800781
53.6002191102677
54.6188806923059
54.5547984484466
54.2902441673596
54.0900074795969
53.9250722735761
53.7781043800666
53.6448890920149
53.5176296639921
53.3936454367637
53.2702660946682
53.1466030380522
53.0221137015
52.8968866177901
52.7714201988934
52.6469446292393
52.5231244387132
52.4006686885453
52.2802088616598
52.1623797211665
52.0477942811908
51.9370508202564
51.83065872284
51.7290106988191
51.6324057932915
51.5410757389605
51.4552048466473
51.3749273888027
51.3003466651003
51.2315144325216
51.1684830792189
51.111262135035
51.0599010063145
51.0143987596402
50.9746672983204
50.9405788238841
50.9119540504769
50.8885972201531
50.8703004864775
50.8568286572704
50.8479899339792
50.8435798994182
50.8435435209859
50.8477607521692
50.8561169294574
50.8682763081253
50.8841736633088
50.9032483612896
50.9258820293066
50.9511848637959
50.9806047671645
51.0119155137073
51.0490310624757
51.0863571405876
51.1343056339635
51.1787453519034
51.2470768864268
51.3021716533492
51.4154451001845
51.5061225053042
51.7567849774586
51.5665229617298
52.0700918846874
53.2084044778726
55.062562677592
57.6079402313137
60.8855228029533
64.9278792898641
69.6821574964846
74.9874914944317
80.7385890889475
86.8783700057207
93.3576372771686
100.150960122529
107.47061118131
115.67683813308
125.04722455419
135.853335667189
148.376112632545
162.924902381486
178.96919439025
194.896985395239
209.028082041962
220.003049478377
226.546514381031
229.160421984833
233.094225772506
238.164732865658
237.709460438476
232.12810810036
222.034469635302
113.482188123519
109.895660139526
114.364663239639
116.291420263747
110.377739928935
104.400137429927
101.240080205239
98.7049243378665
94.4922047704946
88.7024229542654
81.7958188568469
74.496299273621
67.9871230016334
62.4662051946465
57.8010963816832
53.8386357364395
50.4394136296369
47.4423444595633
44.5721739265989
41.7326830014353
38.9444837368897
36.2491618315452
33.718283108267
31.4598243366101
29.5512565225395
28.0011303784145
26.8274300821154
26.0710807130291
25.8143563818249
26.2145724014833
27.0289088592382
26.6347900035823
26.1813736197799
25.8384163014461
25.5641392372006
25.3321551054419
25.1340710764098
24.9572776807792
24.7972520047648
24.6491835830945
24.5109677475977
24.3808894122969
24.2583129410277
24.1431647995845
24.0338859684171
23.9300908122118
23.8316484514002
23.7384432963722
23.6504201792535
23.5675490861679
23.4898231816215
23.4171966081547
23.3495730163858
23.2868288163677
23.2288324180398
23.1754555426547
23.1265683040169
23.0820503618554
23.0417746350423
23.0056442400997
22.9735592017369
22.9454739308505
22.9213176858821
22.9009724102936
22.8843089701236
22.871174935762
22.8614198776879
22.8548939178439
22.8514369781999
22.8509294343511
22.8532540665615
22.858413834571
22.8663640283929
22.8770583459766
22.8902964068662
22.906066309487
22.9240216788154
22.9444845454422
22.9669145660301
22.9923825783732
23.0194470836594
23.0509445235894
23.0831949547406
23.1237964688006
23.1630160094037
23.2216313976692
23.2734111348824
23.3735828447355
23.4644226336769
23.6880761909388
23.4783354693176
23.6142476478812
24.0367008567258
24.7931516408799
25.8575280136437
27.2431416418607
28.9537296343724
30.9521362170554
33.2113125096832
35.6944696996491
38.3858212916331
41.2806426476835
44.4045435530114
47.8839134393048
51.7751167920136
56.1872723492069
61.2386064441626
67.0121126739628
73.5627334782849
80.4807670100886
87.4676534438109
93.6998881281842
98.5411795680587
101.504135335434
103.336845277714
109.635109338551
120.972006154431
128.599144582202
129.002472058319
120.51620745645
76.0214553609745
70.9031597032912
74.2398626872062
78.8816937040076
72.6349390012564
61.5671881992917
55.7891251956481
53.7398459352472
51.5830738252616
48.5845167832533
44.8994877558671
40.9812735506966
37.5013108562342
34.547079023575
32.0778598465839
30.0089107739985
28.2477338421847
26.6804326128967
25.1581999407724
23.6287161206783
22.0971218315924
20.5976289932193
19.1949416246496
17.9654432470612
16.930660376884
16.1058903792305
15.5267803045993
15.239205533867
15.3026916377586
15.7387688470204
16.1718711563457
15.5449095552317
15.0817520327984
14.7492277038654
14.509925063115
14.3216616302892
14.1744333628666
14.0518042093414
13.948656539922
13.8589374272626
13.7800344116059
13.7096429927157
13.6467460658499
13.5894384819973
13.5364561001435
13.4874511145452
13.4419826684974
13.3997295463416
13.360455626223
13.3239813373476
13.290172169459
13.2588920446265
13.2299967872702
13.2033468408677
13.1788154268877
13.1562917260229
13.135675262251
13.1168808284873
13.0998277988236
13.0844623293447
13.070736395662
13.0586421393566
13.0481562490584
13.03922964199
13.0318101910023
13.0258327261587
13.0212347459129
13.017953314598
13.0159192426264
13.0150880359726
13.0154183893019
13.0169450699298
13.0196719205498
13.0235990040291
13.0286347243446
13.0347967765168
13.0419126172226
13.0502087863681
13.0594082150633
13.070180657566
13.0817048101856
13.0957623035021
13.1102347186666
13.129984815403
13.1490591738042
13.1810764884332
13.2097423245048
13.2719936617186
13.3323361015351
13.4921840809452
13.3303372976881
13.3585378065044
13.5505825035099
13.9273646894676
14.469286222873
15.1780068877054
16.0499811377897
17.057688210952
18.2017476702769
19.4663862317248
20.8448671540097
22.3389996879549
23.9746943121531
25.8393104322252
27.9262118361416
30.279546178987
32.95938820145
35.984381125091
39.3511299537662
42.6964428283287
46.0607856144136
49.0033270193164
51.2244436208053
52.4568931932687
53.2317703717005
57.3868799662978
67.8552993461487
78.8245248286232
85.9075756520243
82.2259651518927
56.0963585260632
51.2355810589273
53.2557376538058
60.7086815312045
57.5510296055536
43.8247135890687
34.9174267012185
32.52914176255
31.3207666923903
29.655493442931
27.5083228599205
25.2052102617637
23.1734492780365
21.448251638918
20.0314967292932
18.8653606848129
17.8752402643923
16.9699305704417
16.0620628664953
15.1223731096196
14.1563065818799
13.2033138911516
12.3254601524214
11.5764548807244
10.9551672821357
10.4825485505389
10.1919897782466
10.1135670716449
10.2667426266299
10.5938830869156
10.755763720632
10.1564411907922
9.83643964620419
9.60654013873561
9.46114628302018
9.35181569811649
9.27429358019361
9.21334047728028
9.16594879292939
9.12706351925135
9.09495604712263
9.06786868064786
9.04457994756936
9.02362729733298
9.00460610570405
8.98724052170379
8.97123487649291
8.95639272932736
8.94257712066074
8.92969282809618
8.91767497441154
8.9064577372334
8.8959721277531
8.88615408489236
8.87694862312591
8.86831083689016
8.86020211051773
8.85259304221847
8.84545747674263
8.83878661138878
8.83257635968729
8.82684797770719
8.82160980876152
8.81685312173869
8.8125668689598
8.80873035727451
8.80532344744309
8.80232372065736
8.79970385777367
8.79745124017684
8.79555618252983
8.79405698055776
8.7929705566114
8.792308148037
8.79202499456879
8.79213940455592
8.79256157760944
8.79344355558179
8.79463957176917
8.79656854315872
8.79874140406137
8.80234283598925
8.80609406067205
8.81310537568982
8.81977856324559
8.83490174686958
8.84852523178965
8.88482456145494
8.92277030958132
9.03418424727682
8.92141566287268
8.91645012669614
9.01910717429156
9.23870515210522
9.56141215957277
9.98487125606573
10.5041110217814
11.0985203211153
11.772256428639
12.5169996922938
13.3280068748573
14.206033284115
15.1681109646801
16.2734318873062
17.5072715246038
18.8861816126753
20.4435051951314
22.1773160687538
24.0841003297907
25.880508341188
27.6631539492096
29.1832722144935
30.3272007170708
30.8840836745479
31.2623149073497
33.3644940814926
40.4130029018512
49.5719266286297
59.2680863612276
59.815496960615
42.4059687147357
38.8593273474609
39.7523140848164
48.6843271227589
50.1468158801839
36.6332562641398
24.6543050773556
21.2317740386559
20.3774002343976
19.398980513939
18.0841439676023
16.6678829430722
15.4333569287156
14.3861664963465
13.5474606762265
12.8685713717157
12.28324443653
11.7169567537316
11.1204008900411
10.4819413886264
9.81508057167861
9.16498900596948
8.58564259537149
8.11010562229986
7.72775232039511
7.45883751525421
7.32577407113163
7.34163630981853
7.49989620907357
7.72216221765944
7.75681638608083
7.2947607311977
7.10899650020242
6.96424469410826
6.88630596047829
6.82847006922187
6.79277680156675
6.76656138683223
6.74883395390059
6.73577984828492
6.72648882485408
6.71965539869523
6.71422925226308
6.70954832752368
6.70545973298943
6.70178033774307
6.69834868225128
6.6950684262139
6.69188067349523
6.68875289998498
6.68566964968733
6.68261157455415
6.67955575061361
6.67648167106741
6.6733738521192
6.67022225444218
6.66701992919139
6.66376510454731
6.66045797733527
6.65711025831946
6.65373721372706
6.65037037412051
6.64703008129259
6.64372415328954
6.64045815206098
6.63723002476202
6.63403713506461
6.63087401327361
6.62773149030514
6.62461008721477
6.6215135615141
6.61847787794794
6.61552318317058
6.61266293529776
6.60987412063741
6.60717205704667
6.60450793964188
6.60198982944864
6.59953984879277
6.59744416397778
6.59542045486875
6.59428046073433
6.59322639128977
6.59434617543316
6.59542300988642
6.60238402924123
6.60902496893719
6.63177410884552
6.65826553641166
6.74079513128769
6.66255770908008
6.6460441766404
6.70579376205599
6.84750919587762
7.06142680319296
7.3440768902132
7.6904858254629
8.08474520594891
8.53040567623088
9.02253681860399
9.55735941779223
10.134597454197
10.7650526175446
11.4898951719768
12.2964777953553
13.1895107172019
14.1888705724995
15.2862294666263
16.4842476419345
17.5725984003679
18.6391099800427
19.5295837121537
20.2226647505244
20.5212725953468
20.7902053382101
21.802859877503
26.2199426700749
32.2761176728591
41.1305518547072
43.7363320714618
32.2942480610327
30.1263972979791
30.368277259253
39.1223660600805
45.1423827856934
34.0549322566156
19.887391105099
14.955383822641
14.0143540623411
13.3466855662714
12.4926687067526
11.5966303309386
10.836366132618
10.195432060357
9.69949592350826
9.30171106765997
8.94286060111219
8.56520731141058
8.14683783184642
7.68986304209191
7.21452541553755
6.76437909251787
6.37974251475239
6.07738206368429
5.84448068709063
5.6981660779695
5.65126727084254
5.70635338310041
5.84567560163096
5.99596656300613
5.98221351552713
5.65052821410123
5.54820204175413
5.45615429388236
5.41623715323657
5.386312122448
5.37207374465997
5.36309212462224
5.35952556638539
5.35846213768672
5.35946449130403
5.36143849672231
5.36374455849948
5.36607637463935
5.36835792784797
5.37046914433591
5.3723244194352
5.37387997257979
5.37511675151361
5.37603271095021
5.37663524843533
5.376926658462
5.37690563638579
5.3765719916336
5.37592841625747
5.37498064988009
5.37373598246601
5.37220484605112
5.37039914152341
5.3683389922464
5.3660474544179
5.36355842202701
5.36089613182202
5.35807515629927
5.3551079510575
5.35200084314383
5.34875907965933
5.34538511199829
5.34187868621304
5.33824658819902
5.33449918429915
5.33066963390196
5.32677873841214
5.32284032235837
5.31884315726939
5.31480047201823
5.31068611651511
5.30658220106902
5.3024546405606
5.29851926423402
5.29461194323408
5.29130222177485
5.28809477959587
5.28646292838595
5.28502461202984
5.28796266357984
5.29135138104164
5.3068252291424
5.32732308101968
5.3919419095645
5.33700129551308
5.31672049547625
5.35283004049062
5.45040564319464
5.60257549687786
5.80578986779856
6.05541699071501
6.33881994449176
6.65848288248983
7.01127025395402
7.39412689851007
7.80631747404025
8.25506579715552
8.77024463814096
9.34248394005843
9.97154631132402
10.6701218350866
11.428496119889
12.2527679252754
12.9864569423906
13.6994818699463
14.285968512695
14.7667133036027
14.9534522286843
15.1860287931111
15.6791575253857
18.5576269690776
22.2746009672073
29.1533690996025
32.1249718167158
24.8985015278604
23.675311621739
23.7798840472736
31.033407558739
40.6866079502808
33.2446139104433
18.1496027632979
11.5609676684874
10.2201399478096
9.62421930363821
9.00285734984975
8.40884311473946
7.93503184642836
7.54462429066803
7.2579555109025
7.02789906462898
6.80321073533396
6.54231833997873
6.24164980884547
5.91097431726883
5.57207874105745
5.26151507281796
5.00674362455733
4.81503237535015
4.67530545535646
4.60151299822475
4.60018970836426
4.66843884030632
4.78525954367551
4.88948950432961
4.86101727096446
4.62634047642891
4.57057113708039
4.51037232592848
4.491260260711
4.47656831322822
4.47340486410962
4.4731471541177
4.47647491707698
4.4811089955307
4.48684002261603
4.49274681003872
4.49850992184695
4.50395657032298
4.5090400814089
4.513680114367
4.51783177353826
4.52147777747853
4.52461837539039
4.52726537513915
4.52943585602943
4.53114171420831
4.53239167848715
4.5331951261084
4.53356328633508
4.53350923919259
4.53304692139515
4.53219238482362
4.53096300439571
4.52938241435889
4.52747682657611
4.5252798617091
4.52281679083382
4.52010519685089
4.5171607479272
4.51399410549616
4.51061463597345
4.50702912372463
4.50324239394697
4.49926475453396
4.49511029683227
4.49080980543915
4.4863839579774
4.4818465820672
4.47719360374533
4.47243710824197
4.46756450111433
4.46264472533238
4.45767562604798
4.45282282788457
4.44799046873124
4.44359670675954
4.43933990904355
4.43630232017922
4.43362861989163
4.43437953668737
4.43607519623053
4.44723659318199
4.46413938402435
4.51658586804873
4.47768223750513
4.45695887942483
4.47897295968003
4.54913105571345
4.66269957122102
4.8164211303826
5.00607958636161
5.22141008302923
5.46397918334938
5.73167341927939
6.02200676729805
6.33410721103695
6.67315004386538
7.06163306505804
7.49295822655986
7.96494291590311
8.48614765294588
9.04729169880156
9.65556458832088
10.1927006525138
10.7127534801142
11.1367554019483
11.5027711380135
11.6338563654469
11.8441016477639
12.0819135172392
14.0787708660405
16.364725383764
21.4293701871989
24.0203797697589
19.5886775293759
18.8430581804771
19.1830994199602
24.2251097613878
36.1683138055303
32.7933798621372
18.0505058135402
9.90365537413868
7.96927530292723
7.30649341526284
6.77927418227333
6.34803105669551
6.04066296628488
5.80223932287866
5.6422401273898
5.51335474016844
5.37217195293741
5.19006641228674
4.97343227627788
4.73450364398581
4.49334033591751
4.27881136795123
4.10935541443913
3.98781296345265
3.90584600908263
3.87453087440155
3.89648039088509
3.96614243185009
4.06284720896165
4.13769145060894
4.10794444731423
3.94133323806513
3.91129368217819
3.87134488231143
3.86398147414293
3.85814208103427
3.86100266719327
3.86544520085812
3.87231830384639
3.87981183703651
3.88779953796258
3.89555812183632
3.90293858304751
3.90982625939214
3.91618866426924
3.92197117390654
3.92715134871246
3.9317257211477
3.93570402990748
3.939104298018
3.94194748972838
3.94424978590302
3.94602480875329
3.94728677012551
3.94805124679196
3.94833504986904
3.94815553277534
3.94753161516181
3.94648351656359
3.94503645777177
3.9432179986995
3.94106081195983
3.93859029654306
3.93582561236435
3.93278422805539
3.9294794608364
3.92592323544784
3.92212512702071
3.91809328422534
3.91384032958773
3.90938272605082
3.90474939699282
3.89996065320939
3.89503030425534
3.88995898730868
3.88475824235147
3.87942524025116
3.87402534307801
3.86857198356658
3.86319375700333
3.85784047043397
3.8528306900136
3.84798997572732
3.84413932396085
3.84076716649995
3.84017823333874
3.84084074259639
3.84916356172248
3.86355377457222
3.90704259011019
3.87944517684007
3.85979709116327
3.87301495984412
3.92503479914785
4.01275321933401
4.13333221459203
4.28297148902068
4.45319198080281
4.6448535960545
4.85644643977119
5.08593058106041
5.33245147315072
5.59996659830487
5.90592147698338
6.24579988224082
6.61680360748863
7.02495036307075
7.46201648011118
7.93506802593851
8.35331110644305
8.75827143434779
9.08739835107606
9.38363762483952
9.48377999127312
9.67294398361515
9.7784953486866
11.2400733770599
12.6895047400973
16.4058305814744
18.4490756477303
15.7862252999148
15.2107527739178
15.9553766579949
18.718205219785
31.4960452018251
31.9262377084884
18.787132932912
9.33110777644781
6.67364097390208
5.8619822951278
5.35220624842672
4.99785229026964
4.7798693607911
4.62947926582109
4.54347906794441
4.47498943278536
4.38696501540288
4.25960777903356
4.10336584944398
3.93024568981353
3.75765849913227
3.60816422765612
3.49451833121455
3.41774850375473
3.37188269077581
3.36546375527102
3.39867300303743
3.4648216350789
3.54505098522805
3.60097303066233
3.57510621068578
3.45610220632286
3.44070037720186
3.41447983857239
3.41410248531906
3.41382840159961
3.42020424605313
3.42739244501914
3.43622848788153
3.4452672064692
3.45440167098119
3.46309697956341
3.47128282510823
3.47887509004922
3.48584987317965
3.49216998679254
3.49782597124026
3.5028219576409
3.50717249099215
3.51089834992797
3.51402191485966
3.51656134027407
3.51853286332284
3.51995343960216
3.52084116845083
3.52121505178907
3.52109448538945
3.52050011455201
3.51945389154229
3.51798191306925
3.51611243250612
3.51387720246644
3.51130156884608
3.50840574698497
3.50520848517901
3.50172503798038
3.49796921699444
3.49395268271394
3.48968603651706
3.48518364429291
3.48046366054697
3.47555360294127
3.47047336668502
3.46523680758761
3.45984786710643
3.45431810206143
3.44865533233947
3.44292009191767
3.43713230101138
3.43139595447613
3.42569171080329
3.4202699466687
3.41504133352467
3.41064571694881
3.406800827702
3.4052836596761
3.40519760798274
3.41146900274113
3.42387225919548
3.46036862838933
3.44087577734083
3.42297454125692
3.43056831942082
3.47004494651224
3.53956616496091
3.63674167646527
3.75816658993775
3.89674727706291
4.05281599012856
4.22522622859795
4.41229073119577
4.6132450213662
4.83128949061723
5.08026091109805
5.35714941176793
5.6591364588021
5.99059072467626
6.34450514999503
6.72733675643487
7.06851123726208
7.39980456427887
7.6694597980521
7.91905643272081
8.00032047677584
8.16770535831951
8.20172475162438
9.31452729804367
10.2684372745755
13.0408538476006
14.5891150349286
13.0250456651699
12.4767165777779
13.6164661803601
14.5029746813886
26.8733893387845
30.4517094825722
19.8780945267655
9.48429740902657
5.99687408808007
4.96840898922207
4.43185736314264
4.10368392106827
3.9273026539056
3.82424025861305
3.77903272844288
3.74559601791943
3.69137230995322
3.601932845176
3.4884846361168
3.36186270497241
3.23693081712519
3.13148520746793
3.05473058709631
3.00701002732381
2.98405018874953
2.99223525338843
3.03026610314123
3.09116367302902
3.15838990177506
3.20205554380947
3.18181371221836
3.09661577030849
3.08998488036272
3.07363110073886
3.07768323772168
3.08120688992629
3.08981864141894
3.09877532988754
3.10881368822284
3.11877913220678
3.12856898160887
3.13779958195031
3.14643532839944
3.15441154447773
3.16171055391908
3.1683075704451
3.17420106938553
3.17939965472031
3.18392042011397
3.18778536433066
3.19101730178307
3.19363539544204
3.1956575077557
3.19710243486389
3.19799002930347
3.19834085857857
3.19817580550628
3.19751680224083
3.19638709151533
3.19481344894879
3.19282465761673
3.19045182074242
3.18772032336726
3.18465129521853
3.18126461546924
3.17757717804759
3.17360439935932
3.16935969439206
3.16485566072517
3.16010812806791
3.15513659206258
3.14996754966673
3.14462051155023
3.13910946556461
3.13344078584942
3.12762851103261
3.12168828111375
3.11567350583998
3.10960864622809
3.10358061101151
3.09759103716878
3.09184215920987
3.08630220247227
3.0814817951223
3.07725337279224
3.07501546362097
3.07430177418107
3.0789702428261
3.08966250942784
3.12046837740309
3.10683265363199
3.09091947538876
3.09488775424821
3.12541053628686
3.18163774275691
3.26161287276942
3.36230062019596
3.47770768895324
3.60777731925993
3.75158460355395
3.90772717217609
4.07556505334677
4.25780585066474
4.46561932233757
4.69706930503977
4.94957749195548
5.22640820618429
5.52175138096596
5.84135596195146
6.1298601415511
6.41133999211735
6.64150238653581
6.85746288841937
6.92608341568406
7.07124750641749
7.06559184876351
7.93651260455877
8.58749897298867
10.7015613170385
11.858543409795
10.9718131852537
10.4154432493649
11.8285456142372
11.4511213816807
22.5570438027133
28.5709264308988
20.8838926803826
10.1601896807051
5.75904143230784
4.43646479583403
3.83889693926107
3.50559385375273
3.34126916420525
3.25987185111019
3.23478953833483
3.22063421932529
3.18761953436795
3.12423288701
3.04086613147707
2.94701183596168
2.85533498787808
2.78007670804666
2.72814881941441
2.69965381468193
2.69144519272044
2.7081310931641
2.74755731576672
2.80293266604509
2.86009490710912
2.89584366758088
2.88155129868728
2.82087463527697
2.81989667219059
2.8109896924102
2.81807691159877
2.82440837716104
2.83459663758288
2.84482831920763
2.85570953153272
2.86631978947685
2.87656257373709
2.88616583840241
2.89510934453092
2.90334280022103
2.91085365238771
2.9176263549418
2.92366457334527
2.92897978609585
2.93359056400793
2.93751950272623
2.94078954888844
2.94342053167299
2.94543155377178
2.94684290700142
2.94767592127934
2.94795252881539
2.94769492420467
2.94692621071926
2.94567079134689
2.94395614985381
2.94181165339974
2.93926809889322
2.9363511044391
2.93308274094586
2.92948403403416
2.92557341773107
2.92136781460926
2.9168822452607
2.91213105848074
2.90713141427552
2.90190397497701
2.89647454251003
2.89086230840375
2.88508148059627
2.87914139147237
2.87305923588629
2.86685399974712
2.86057346488889
2.85424530839079
2.84794417475444
2.84168596851995
2.8356381085219
2.82980782176886
2.82461149744866
2.82002614115238
2.81717308403303
2.8158780761424
2.81921285892746
2.8283510253188
2.854386634812
2.84498283988204
2.83107044897457
2.83271660587528
2.85669893809029
2.90293671768789
2.9698746890102
3.05482043160788
3.15267074126716
3.26308507908351
3.38527610884353
3.51807893124124
3.66099402854392
3.81639222340179
3.99341616463147
4.19088752826155
4.40657200750861
4.64298543351175
4.89543324352425
5.16904470565271
5.42009494562762
5.66641428961533
5.86900614701423
6.0591251452236
6.11833305302214
6.24135604443529
6.21362739880525
6.90823999557504
7.36759700679537
9.01395177234017
9.87783452032574
9.40314455609993
8.8568148348949
10.3770656540609
9.34577068258384
18.6843771059496
26.4339058032756
21.5293988446922
11.1869805071427
5.87371913470551
4.16202410980236
3.466320015746
3.10486417086382
2.93307488662605
2.85654961568137
2.83845276481259
2.83358185869408
2.81350123145011
2.76792519408146
2.70572956401618
2.63513465658174
2.56694791385187
2.51272591448879
2.47783437320411
2.46229825456045
2.4636929526206
2.485208770904
2.52425294520228
2.57448408452813
2.62396088949644
2.65467568423625
2.64608147109508
2.60361234562681
2.60662649962612
2.60357370193678
2.61293498655694
2.62150312811658
2.6329353454264
2.64419974364386
2.65576952418676
2.66691313410633
2.67754579491827
2.68747519625057
2.69668824671716
2.70514637034233
2.7128415936568
2.7197655763033
2.72592566950901
2.7313354173669
2.73601440019918
2.73998563459365
2.74327221745795
2.74589460109383
2.74787303999724
2.7492292522296
2.74998601138461
2.75016662011224
2.74979459510451
2.74889425121032
2.74749117499547
2.74561369069243
2.74329190419026
2.74055665973276
2.7374340381016
2.73394715619585
2.730118278502
2.72596738083483
2.7215128861088
2.71677136724065
2.7117587958584
2.7064936076449
2.70099755821533
2.69529603401031
2.68940798490422
2.68334845531788
2.67713018567605
2.67077174949257
2.66429390360905
2.65774041446461
2.65114113265262
2.64456166394702
2.63802754278209
2.63168050850265
2.6255540395314
2.61999452766021
2.61504910124698
2.6116325296911
2.60976722611785
2.61193625635816
2.61961694668935
2.64156544388409
2.6351908421073
2.62316935488971
2.62336175006804
2.64248554890366
2.6810514980967
2.73786501946632
2.81055019152848
2.89473435354089
2.98987314011151
3.09526841500021
3.2099608596255
3.33359771473381
3.46830650553279
3.62165184404224
3.7929842707871
3.98044395071645
4.18604544363469
4.40611696058696
4.6453358820978
4.86896298126453
5.08958649409068
5.27198209922723
5.44111866211313
5.49247201610253
5.59384760347069
5.55419501254122
6.11531240828487
6.44956897036088
7.75483863889847
8.40498978928245
8.17320906375342
7.67208656053378
9.13922340233091
7.95413069409248
15.1732419710111
24.144094868865
21.8425073447202
12.4071703695573
6.30545104798608
4.09472030596424
3.25342587037027
2.84221080372079
2.64801975504547
2.56428436100977
2.54418444612753
2.54188055276436
2.5291189586053
2.49561961396867
2.44840157271256
2.3945059710674
2.34315775309924
2.30384796322676
2.28085521435679
2.27418103795893
2.28185916331812
2.30597659958245
2.34377790599329
2.38950073210831
2.43318147282368
2.46081220451791
2.45746100320438
2.42884554508014
2.43497413851227
2.43668824581412
2.44791873315609
2.4583901840503
2.47091321929411
2.48310456113494
2.4953175087876
2.50697241973208
2.51800159714844
2.52826900224138
2.53776555736692
2.54646276831234
2.55435697860762
2.56144572701752
2.56773924057906
2.57325274676853
2.57800668724657
2.58202454975113
2.58532975344029
2.58794348024189
2.58988720078169
2.59118413307955
2.59185858563143
2.59193534332946