/*--------------------------------*- C++ -*----------------------------------*\
  =========                 |
  \\      /  F ield         | OpenFOAM: The Open Source CFD Toolbox
   \\    /   O peration     | Website:  https://openfoam.org
    \\  /    A nd           | Version:  7
     \\/     M anipulation  |
\*---------------------------------------------------------------------------*/
FoamFile
{
    version     2.0;
    format      ascii;
    class       volScalarField;
    location    "20000";
    object      p;
}
// * * * * * * * * * * * * * * * * * * * * * * * * * * * * * * * * * * * * * //

dimensions      [0 2 -2 0 0 0 0];

internalField   nonuniform List<scalar> 
15600
(
-1.1655258955946e-08
0.0106084501252623
0.00954246536674022
0.0251536959220521
0.04469778234424
0.0575652206235306
0.0642720400780041
0.0689254734127991
0.0723800864921487
0.0747605668200027
0.0766493216765411
0.0780871570847093
0.0792132527041901
0.080161761568423
0.0809431118386977
0.0816105478831659
0.0821885141406148
0.0827483343038608
0.0833094228808364
0.083890955871666
0.0845153602905668
0.0851896998992898
0.0859021564515449
0.0865880245359516
0.0872601783610786
0.0879132936107762
0.088524832016984
0.08905205159851
0.0895000791282994
0.0897899366414744
0.0893578968043889
0.0898144352120813
0.0907105911827897
0.0920988941257361
0.0938650739322894
0.0959792743238046
0.0983870723540881
0.101057975779887
0.103960899176102
0.10707242453374
0.11037083456082
0.113837172683221
0.117453659014794
0.121203799020619
0.125071757846053
0.129042318884476
0.133100626439568
0.137232257392056
0.141423165288043
0.145659747721307
0.149928855708292
0.154217922534858
0.158515084058759
0.162809253307129
0.16709015436694
0.17134832663754
0.175575135547211
0.179762745490254
0.183904138574599
0.187993039455387
0.192023954219778
0.19599204805858
0.199893190621874
0.203723987542941
0.207481736737568
0.211164417668229
0.214770617114967
0.218299466889274
0.221750612044241
0.225124078608171
0.228420306739777
0.231639923474848
0.234783899852415
0.237853394917309
0.240850113133482
0.243775624765609
0.246632449788109
0.249422037343071
0.252147987462805
0.254810526481828
0.257415836181524
0.259960632868272
0.262457682595546
0.264894117594445
0.267299531313419
0.269635963983244
0.271976168963223
0.274218044497868
0.276543480159818
0.278679776714867
0.281094807049723
0.283429624490861
0.285891617242124
0.288333962051795
0.290790355532921
0.293188533253456
0.295469317881576
0.297548540753188
0.299196227356366
0.300229151103705
0.300433156865595
0.299605529173309
0.29760466786435
0.294403044158253
0.290277563451238
0.284989374025227
0.278244991605529
0.269648171543836
0.258291492566846
0.242728151016008
0.219403602540412
0.187597094571072
0.145735656316298
0.0920101583538269
0.0283842914814808
-0.0373196131362079
-0.0699822648267767
-0.0600624295608172
-0.0425538076932548
-0.0119583863307738
-3.34743000984649e-06
0.0106085358887072
0.0095762564001553
0.0250859146012436
0.044523141181942
0.0573912009707867
0.0641361613530277
0.0688148977633958
0.0722971410861053
0.0747009802971637
0.0766054744978347
0.0780577028001821
0.0791939758573435
0.0801498952073902
0.0809375806415706
0.0816100398025234
0.0821912394178862
0.0827522088057449
0.0833133947355302
0.083894030301729
0.0845167368565847
0.0851893343631572
0.0859015118761494
0.0865883758997218
0.0872613049445373
0.0879151944291351
0.0885277405751043
0.0890556464494991
0.0895050958899477
0.089796253615562
0.089368764650772
0.0898292482992955
0.0907257336908274
0.0921144258829141
0.0938808916797423
0.095995319729262
0.0984032059584231
0.101074071650481
0.103976822914531
0.107088051557151
0.110386046049051
0.113851859251403
0.117467718645261
0.121217137303046
0.125084291778975
0.129053977672676
0.133111347877435
0.13724198896862
0.141431864479575
0.145667382315045
0.149935403650341
0.154223371361038
0.158519430099927
0.162812500894667
0.167092315090889
0.171349418590382
0.17557518259597
0.179761776493582
0.183902186714956
0.187990141573958
0.192020150368581
0.195987381118972
0.199887705401082
0.203717729871982
0.207474752739051
0.211156753113969
0.214762317006927
0.218290575026666
0.221741170795996
0.225114128842434
0.228409888063648
0.231629074720102
0.234772658594471
0.237841796679749
0.240838191031617
0.243763409297741
0.246619969106635
0.249409318195475
0.252135055730213
0.254797407451008
0.257402554544517
0.259947213261658
0.262444151460399
0.264880503014407
0.267285870145122
0.269622299868754
0.271962566131925
0.274204609619351
0.276530419530635
0.278667951424274
0.281090080472976
0.283434757776667
0.285906716780272
0.288358186123743
0.290822311204957
0.293225220056089
0.295506536449784
0.297578197476183
0.299207889319509
0.300212875039109
0.300379700497224
0.299508691266748
0.297463486944286
0.294224361091506
0.290061286881278
0.284725167824141
0.277919616362898
0.269236850062071
0.257751132766309
0.24197992052486
0.218410728782487
0.186379613543713
0.144334594428728
0.0905808192280153
0.0272504397026904
-0.0376720161098804
-0.0697399239031341
-0.059835950538312
-0.0424501507464079
-0.0119352935326587
3.33020002880919e-06
0.0106310944544839
0.00965079103789847
0.0250545547289892
0.0443666355544951
0.0572323090651724
0.0640074401970116
0.0687070994897184
0.0722151347797263
0.0746413248419991
0.0765611570129442
0.0780277192126611
0.079174295456843
0.0801377993613949
0.0809319487391099
0.0816095801584017
0.0821941283844944
0.0827562470507282
0.0833173206441772
0.0838966338791618
0.084516960131744
0.0851868286551731
0.0858974710627441
0.0865840179247199
0.0872564571007872
0.0879098710974311
0.0885222823693494
0.0890499696384472
0.0895005730388426
0.0897920220668458
0.0893726490470646
0.0898406465467117
0.0907383444865304
0.0921280503631359
0.0938951306521025
0.0960100130529709
0.0984180754233835
0.101088915301088
0.10399143885798
0.107102271765214
0.110399717180957
0.113864845887095
0.117479895157739
0.121228397405268
0.125094553984162
0.129063172857492
0.133119414463243
0.13724887759796
0.141437538831237
0.145671819205231
0.149938592083167
0.154225311113034
0.158520130566649
0.162811980207015
0.167090599361742
0.171346540915594
0.17557118230914
0.179756697956712
0.183896078937521
0.187983057069546
0.192012145300104
0.195978514452422
0.19987803727084
0.203707320588096
0.207463661847142
0.211145038823755
0.214750035833145
0.218277781175965
0.221727916419467
0.22510046371675
0.228395861048435
0.23161473361934
0.234758050020431
0.237826963287896
0.240823173892254
0.24374824321766
0.24660469089929
0.249393956203571
0.2521196504896
0.254781980022549
0.257387158076256
0.259931852347593
0.262428914006808
0.264865360590951
0.267271000717168
0.269607604972717
0.27194843687176
0.274190793857186
0.276517891344905
0.278656038020589
0.281084751978863
0.283438168347945
0.285919449413683
0.288379104028036
0.290849948816602
0.293256212472768
0.295536180693514
0.297598016349596
0.299207380996176
0.300182606358064
0.300311247685374
0.299397090430576
0.297309184954477
0.294033903937214
0.289832812315319
0.284447262510414
0.27757826866917
0.268806472219347
0.257188635492569
0.241216746198039
0.217431425509915
0.185227963446493
0.143089879641244
0.0894665547743062
0.026668813616799
-0.0372840467347646
-0.0689109757440948
-0.0593546036800826
-0.0422739019753704
-0.0118938622984589
3.76851383182915e-05
0.0106907850746921
0.00980373843876335
0.0250887256725405
0.044229333604039
0.0570891540033941
0.0638925438453027
0.0686077365694438
0.072138075579584
0.0745842911485325
0.0765180395564529
0.0779983140678794
0.0791549514313037
0.0801259703965487
0.0809265248767279
0.0816092612567444
0.082197100396059
0.0827601512872497
0.0833205924349228
0.0838977140130371
0.0845143747459288
0.0851797116475032
0.0858863938579106
0.0865700523588544
0.0872394253415704
0.087889773927271
0.0884996422469392
0.089025273655787
0.0894754956420454
0.0897646693708977
0.089363324964091
0.089843917436651
0.0907449911280897
0.0921371815336267
0.0939056563140044
0.0960213620174519
0.0984296477140382
0.101100300586423
0.104002283238942
0.107112303170225
0.110408705985886
0.113872599756127
0.117486256083201
0.121233269380213
0.125097854172172
0.129064816639949
0.133119345536287
0.137247062678141
0.141433964887903
0.145666493307158
0.149931538953442
0.154216569852012
0.158509752396453
0.162800027044605
0.167077142717004
0.171331660273475
0.175554964043971
0.179739233338614
0.183877463869749
0.187963390338751
0.191991529341719
0.195957054012876
0.199855836341456
0.203684480791927
0.207440281077831
0.211121210583088
0.214725848968918
0.218253319080155
0.221703257920315
0.225075682883293
0.228371030421165
0.231589924250556
0.234733331382291
0.237802397911858
0.240798822076581
0.243724154196196
0.246580918875334
0.249370540674974
0.252096656018238
0.254759436486965
0.257365157584092
0.259910401348
0.262408172097561
0.264845288983675
0.267251927810075
0.269589396444484
0.271931798745751
0.274175308802261
0.276505331307982
0.278644821734537
0.281078438417085
0.28343733869531
0.285924997381467
0.288389411942347
0.290863266329887
0.293268652301243
0.295542367499111
0.297588967876458
0.299173129335791
0.300115089916197
0.300203818761602
0.299247050982644
0.297119350394756
0.293811005687475
0.289572538037149
0.284136776300247
0.277202588680439
0.268339266671134
0.256588158825253
0.240428510207439
0.216468939967712
0.18416381805076
0.142048091772954
0.088746107520208
0.0267565408522919
-0.0359718559475752
-0.0672451352391834
-0.0584193061022688
-0.0419222672394265
-0.0118109483489738
0.000124382586820828
0.0108027032152722
0.0100717989313489
0.025228773056671
0.0441230565165825
0.0569471613707649
0.063784272736796
0.068511896561875
0.072062626100422
0.074527451967975
0.0764741150689188
0.0779680557863482
0.0791349874484806
0.0801138298917229
0.0809210889668547
0.0816091621580147
0.0822004470264126
0.0827642115595596
0.0833232952518583
0.0838969302768082
0.0845079619077773
0.0851660167175041
0.0858651909170309
0.0865423691023381
0.0872051030090786
0.0878488487002636
0.0884530909618767
0.0889745617830413
0.0894226093580389
0.0897088611512528
0.0893417831528564
0.0898406116349027
0.0907476302725911
0.0921442303887707
0.0939148182879833
0.0960313958157223
0.098439469525718
0.101109196477493
0.104009687696192
0.107117800377121
0.11041196518444
0.113873367682897
0.1174843727448
0.121228616539816
0.125090308178813
0.129054302152582
0.133105832615404
0.137230557484869
0.141414506306449
0.145644152071152
0.149906413163906
0.154188778901382
0.158479432478331
0.1627673282826
0.167042227083354
0.171294698910643
0.175516135433354
0.179698720238032
0.183835452860816
0.187920069466434
0.191947089481795
0.19591168728884
0.199809731345691
0.203637819595221
0.20739323703584
0.211073947276003
0.214678519933374
0.218206066841519
0.221656215495696
0.225028974118424
0.22832477542485
0.231544240916542
0.23468833544664
0.237758194434905
0.240755511423453
0.243681819587783
0.246539649377864
0.249330404895012
0.252057760455056
0.254721840935821
0.25732901432428
0.259875752894522
0.262375284250253
0.264814154181004
0.267223054688123
0.269562647382227
0.271908343046563
0.274154609337947
0.276490300090318
0.278633547556884
0.281069747169288
0.283428274023082
0.28591683119537
0.288379676254528
0.290849802041505
0.293246652386999
0.295505292101828
0.297526634949713
0.299075976888886
0.299976569868494
0.300019332508683
0.299016704512996
0.296849296337306
0.29350953890906
0.289232949364497
0.283743667148168
0.276738527271076
0.267774924619224
0.255879667826136
0.239528497723807
0.215414796000004
0.183052636159282
0.1410406445572
0.0882039773426754
0.0272478801341375
-0.0339950462714321
-0.0648302282917954
-0.0569347555472816
-0.0412777668486561
-0.0116398520517068
0.000288317145013028
0.0109844980027299
0.0104687181254707
0.0255011718956264
0.0440817798730878
0.0568060857881278
0.0636821222677864
0.0684175434974998
0.0719876552039925
0.0744701117802263
0.0764287096627995
0.0779363962949727
0.0791140276570937
0.0801011755272561
0.0809156374684882
0.081609483607489
0.0822045379793286
0.0827688086670008
0.0833256389389623
0.0838941447433456
0.0844970645437916
0.0851444405563029
0.0858319417616345
0.0864986882312935
0.0871510972439954
0.0877848626409121
0.0883809058238063
0.0888969609925
0.0893421688533081
0.0896276738278529
0.0893128540276091
0.0898348794603763
0.0907505795410587
0.092153077060508
0.0939257928717932
0.0960425181925056
0.0984492055370707
0.101116584906684
0.104014019245031
0.107118580785943
0.110408829199907
0.113866078306897
0.117472775118673
0.121212584442658
0.125069760667563
0.129029222203046
0.133076253188179
0.137196556844984
0.141376203897194
0.145601707055676
0.149860018171037
0.154138651538474
0.15842580882242
0.162710458756478
0.166982373653312
0.171232131715611
0.175451130522617
0.179631555822397
0.183766408867461
0.187849424858738
0.191875124428218
0.195838681608632
0.199735958635749
0.203563543076526
0.207318706618841
0.210999398235078
0.214604172631286
0.218132125728246
0.221582871128717
0.224956403999322
0.228253151423842
0.231473732383165
0.234619109891437
0.237690406331593
0.240689308963438
0.243617329138329
0.246477004492236
0.249269714401615
0.251999183438956
0.254665482323439
0.257275104706786
0.259824378620007
0.262326809893489
0.264768613662503
0.267181215222966
0.269524391761116
0.271875360154851
0.274126231044326
0.276470597159021
0.27862020329818
0.281056522258882
0.283407399177397
0.285890106921305
0.288343643044775
0.290801868016663
0.29318096096517
0.295414015875858
0.297398291941164
0.29890114443971
0.299749954984596
0.299738205010124
0.298683820746743
0.29647399714751
0.293102049044271
0.288784953299026
0.283237116598903
0.276152932407941
0.267076880779766
0.255021577824897
0.238465101758058
0.214199800346256
0.181800302233695
0.139938088815758
0.0876546595386933
0.0278792486392085
-0.0316877724887954
-0.0619367617302476
-0.0549784602192184
-0.0403049641947757
-0.0113452906462663
0.000536369882559971
0.0112477830889031
0.0109846611434324
0.0259003242442957
0.0441308431285501
0.0566820926138452
0.0635945988860154
0.0683253118263868
0.0719127035057094
0.0744121320578344
0.0763816312000157
0.0779031329269951
0.0790919587995367
0.0800880259732198
0.0809103662225285
0.0816106107389121
0.082209911312255
0.0827745034530021
0.0833280847660716
0.0838896605506639
0.084481867234755
0.0851152243006098
0.0857872367595918
0.0864402478879412
0.0870795490525026
0.0877010875933079
0.0882875480268661
0.0887979601915441
0.0892406842575027
0.0895288920253215
0.0892806421161577
0.0898288461108964
0.0907553978458363
0.0921642106958581
0.0939384382631583
0.0960542098621265
0.0984581838531037
0.101121793776631
0.10401472328284
0.107114297133069
0.110399231245001
0.113850969520718
0.117452028597887
0.121186125798298
0.125037576912429
0.128991361540752
0.133032814648136
0.137147687432325
0.14132209399143
0.145542588909871
0.149796158661292
0.154070342421721
0.15835335926473
0.162634190699844
0.166902618837348
0.171149228110663
0.175365420039938
0.179543380272332
0.183676109721355
0.18775734033377
0.191781592462003
0.195744038241956
0.199640531822513
0.203467648096154
0.207222642695925
0.210903447241731
0.214508598790509
0.218037174665503
0.22148877224202
0.224863371413573
0.228161392655944
0.231383452089941
0.234530511534418
0.237603679725797
0.240604637517058
0.2435348725218
0.246396931130774
0.249192166479664
0.251924360713571
0.254593531097607
0.257206297038171
0.259758844174627
0.262265010317356
0.264710632116224
0.267127962308182
0.269475775534955
0.271833356133023
0.274090098605527
0.276444896977829
0.27860221157104
0.281037676150821
0.283375349026335
0.285846711359498
0.288284478612217
0.290723835618934
0.293077250225948
0.295275745128936
0.297213024736974
0.298659193340979
0.299446594904812
0.29937182357993
0.298258852978725
0.296001570446051
0.292593268206608
0.288230556987413
0.282617066055246
0.275444007180526
0.266241876084113
0.254009760628179
0.237231877134346
0.212809019689098
0.18037792969069
0.138691913761463
0.0870158719633168
0.0285113772920452
-0.029271895697621
-0.0588073649771383
-0.0527050074305998
-0.0390548803367532
-0.0109245507155228
0.000860997968984614
0.0115916630020074
0.0115981823686199
0.0264026848981039
0.0442680448267939
0.0565923696986275
0.0635386379797377
0.0682408170088084
0.0718374824941314
0.0743532506109609
0.0763326914393513
0.0778681214087032
0.0790687821260409
0.080074575255507
0.080905694491509
0.0816131714920233
0.082217342034388
0.0827821352577733
0.0833315244180403
0.0838845071421481
0.0844637368324455
0.0850803632861809
0.0857339531394798
0.0863708397315116
0.0869951623470808
0.0876031100713275
0.0881792283258631
0.0886839483605608
0.0891247480435777
0.0894188331418627
0.089245676065546
0.0898209853675617
0.0907601884768908
0.0921754042976257
0.0939507112843722
0.0960647967251358
0.0984652065392565
0.101124146974805
0.104011664133455
0.107105359513749
0.110384110917943
0.1138294911954
0.11742408925657
0.121151696859543
0.124996688545024
0.128944103412657
0.132979327864191
0.137088161971856
0.141256763778042
0.145471730469994
0.149720083245449
0.153989385671483
0.158267873406261
0.162544539741224
0.16680917557139
0.171052370463275
0.175265528825216
0.179440834926681
0.183571288246838
0.187650616014721
0.191673337508107
0.195634621823766
0.19953031395249
0.203356975089939
0.207111843457829
0.210792832132256
0.214398459220436
0.2179277821905
0.221380381118068
0.224756219354978
0.228055710159356
0.231279465969277
0.234428447617638
0.237503750339345
0.240507048735218
0.243439806505729
0.246304579331785
0.249102695580572
0.251837993402679
0.254510437858916
0.257126781578743
0.259683075442672
0.262193479663597
0.264643460638711
0.267066091900649
0.269419145556894
0.27178397501929
0.274047185703268
0.27641284266787
0.278577937418011
0.281013191398102
0.283334542781554
0.285790875775526
0.288208221016321
0.29062346244432
0.292945142270815
0.29510224815735
0.296985135327178
0.298366825749292
0.299085156745354
0.298940265979075
0.297762508372654
0.29545217949528
0.292001664490086
0.287586644733792
0.281899394794012
0.274627171962099
0.265285675946563
0.252861676305921
0.235849084465545
0.211262881169327
0.178803783524956
0.137316189665514
0.0862910439523718
0.0291202685286646
-0.0268294075996181
-0.0555742085768377
-0.0502421203005406
-0.0375994109640181
-0.0103894549908067
0.00125330869021627
0.0120079451754628
0.0122872326379401
0.0269888484179291
0.0444769291768451
0.0565509419742549
0.0635278459981473
0.0681778062822951
0.0717632649336005
0.0742934304715803
0.0762819144929983
0.0778314483076906
0.0790447494738723
0.0800612901876113
0.0809023028203524
0.0816180100668254
0.0822277662993727
0.0827927192908148
0.0833371245556585
0.0838801287136955
0.0844445674943678
0.0850423751353993
0.0856752934158326
0.0862941693793651
0.0869020031835564
0.0874952255925875
0.0880602257109942
0.0885589280921035
0.0889983210075899
0.0893007612981422
0.0892068277347339
0.08980912029675
0.0907628467512533
0.0921847759215212
0.0939611824876859
0.0960733298256638
0.0984697934167079
0.101123607906979
0.104005216967813
0.10709252274923
0.110364566088314
0.113803058947274
0.117390682470885
0.121111306328476
0.124949363826996
0.128889955422558
0.132918520307339
0.137020908736187
0.141183323601055
0.145392405710856
0.149635211387481
0.153899328615557
0.158173009589198
0.162445259252099
0.166705877121452
0.170945457619262
0.175155407780068
0.179327909985116
0.183455961907102
0.18753328519442
0.191554397800077
0.195514464927334
0.199409321778361
0.203235515548242
0.206990266418832
0.210671468525035
0.214277620435972
0.21780775919408
0.221261447096524
0.224638630109492
0.227939713832759
0.231165305848513
0.234316365808057
0.237393975871509
0.240399804367331
0.243335291838276
0.246203003382111
0.249004243802563
0.25174290205477
0.254418900558041
0.257039116893648
0.259599476339343
0.262114439050551
0.264569132563119
0.266997394259237
0.269356043481174
0.271728383653418
0.273998275467903
0.276374566757365
0.278546740534877
0.280983106823833
0.283286473783912
0.285725249346002
0.288118647463907
0.290505602829981
0.292790666983374
0.29490090565823
0.296723614996597
0.298034713631925
0.298677866247899
0.298457085401218
0.297209306083663
0.294840768864755
0.291342001841931
0.286867734683763
0.281098735541689
0.273717621420003
0.264224826558555
0.251596340062691
0.234339852441129
0.209588330992078
0.177108202611907
0.135843352566977
0.0855120586593309
0.0297252811292801
-0.0243700690100542
-0.0522890013932176
-0.0476660912432339
-0.0359945916298253
-0.00975217390974109
0.00170668992933062
0.0124864795021192
0.0130343438655306
0.0276469111352236
0.0447444577721786
0.0565748202123008
0.0635525204008917
0.0681546425049404
0.0716948196464792
0.0742335541450963
0.0762298484792601
0.0777935988598682
0.0790204164511473
0.0800488622299
0.080900992060603
0.0816259710771865
0.0822420151044648
0.0828071192120223
0.0833458831771824
0.0838777554261964
0.0844259155788358
0.0850032060420375
0.0856135702100257
0.0862127271849341
0.0868026134994112
0.0873799340544214
0.0879328972807584
0.0884250703650696
0.0888636256664948
0.0891763336682712
0.0891632823384228
0.0897920633482515
0.0907622593140549
0.0921913973509988
0.0939692215048515
0.0960794676033621
0.0984718733795493
0.101120354406229
0.103995787127448
0.107076391832808
0.110341388203018
0.113772642765583
0.11735294491026
0.121066243209534
0.124897032726962
0.128830478328334
0.132852073530738
0.136947720202447
0.141103667031953
0.145306599476821
0.149543609328229
0.153802309081029
0.158070967695556
0.162338602004699
0.166595020360804
0.170830822132852
0.175037417090579
0.179206985589043
0.18333252350643
0.187407746362025
0.191427170883539
0.195385957651559
0.199279931667805
0.203105626282945
0.206860243468726
0.210541658552265
0.214148350451749
0.217679335677993
0.221134158690164
0.224512747538276
0.227815499934786
0.231043017254765
0.234196257549746
0.237276290565599
0.240284778224888
0.24322313982741
0.246093948599581
0.248898487356802
0.251640691491796
0.254320448308882
0.256944744986855
0.259509399253917
0.262029139466767
0.264488793134833
0.266922882898378
0.269287342604836
0.271667262055492
0.273943833746258
0.27633028254018
0.2785083795159
0.280947284939256
0.283231720188106
0.285651079424025
0.288017664066905
0.290372792192277
0.292617046948
0.294675725079012
0.296433415137292
0.297668847885389
0.298231721138387
0.297930174075352
0.296607834411048
0.294176357020298
0.290623449659025
0.286083106515102
0.280224715500019
0.272725662614657
0.263070964217511
0.250227508289178
0.232721321380122
0.207806242990813
0.175316055801681
0.134300797343626
0.0847074721986017
0.0303463638670651
-0.0218881189456701
-0.0489701651905398
-0.0450164718225843
-0.034278683033145
-0.00902516828383462
0.00221620807360952
0.0130168529023978
0.0138298712634211
0.0283621902868929
0.0450607643156323
0.0566611740706544
0.0635666657963405
0.0681843567420207
0.0716409275007873
0.0741758718940784
0.0761777229115664
0.0777554491798608
0.078996502529963
0.0800379708946666
0.0809023969563046
0.0816376091217679
0.0822605497857105
0.0828257940640303
0.0833583661195892
0.0838781326413943
0.084408755488533
0.0849640811242964
0.0855502334787197
0.0861280575710208
0.0866985481361563
0.0872587585830302
0.0877987278223148
0.0882838520366308
0.0887222573315973
0.0890467507845457
0.08911480142486
0.0897693600414238
0.0907579069246301
0.0921947901980727
0.0939745079863614
0.0960830448901831
0.0984714420347834
0.101114534551526
0.10398366880755
0.107057392948629
0.110315130048327
0.113738926406363
0.117311679990484
0.12101742444224
0.124840720073248
0.128766799211331
0.132781211032561
0.136869910159881
0.14101919171443
0.145215786533002
0.149446821855797
0.153699934534137
0.157963410520431
0.162226278888993
0.166478357193526
0.170710250010118
0.17491337014535
0.179079896001642
0.183202821926316
0.187275856963896
0.191293516998421
0.195250957307671
0.199143992404142
0.202969142323277
0.206723591024495
0.210405195612492
0.214012415650495
0.217544247418629
0.221000217859496
0.22438023687173
0.227684694296999
0.230914183825855
0.234069661335286
0.237152185069465
0.240163410622858
0.243104738580382
0.245978747166681
0.248786702035488
0.251532577378787
0.254216232295117
0.256844747832876
0.259413855215441
0.261938511744349
0.264403288971544
0.266843301745248
0.269213677939031
0.27160110331572
0.273884195259119
0.276280188803332
0.278462739300049
0.280905536885357
0.28317051971466
0.28556907906843
0.287906476487538
0.290226707100605
0.29242647265529
0.294429478419927
0.296117997531574
0.297273452789004
0.297751682778225
0.297365133438122
0.295964166135865
0.29346528388417
0.289852446161337
0.285239284952051
0.279284116919374
0.271658594000581
0.261832435806099
0.248765201226517
0.231006118946986
0.205932283884171
0.173446488256981
0.132709516686395
0.0838989571980417
0.0309976996323646
-0.0193790198799772
-0.0456266574430444
-0.0423134934024053
-0.0324763854080374
-0.00822074522968938
0.00277858743799858
0.013589121126803
0.0146714881358131
0.0291071427930078
0.0454096493691069
0.0567872744095251
0.0635357446382546
0.0682731900767365
0.071612248295698
0.0741237777349076
0.0761272585055358
0.0777180924305585
0.07897368251911
0.0800290610757034
0.0809067933306523
0.0816530643798804
0.0822834158901932
0.0828488082160522
0.0833747596228239
0.0838816223433931
0.0843936494385235
0.0849257695787473
0.0854862436622654
0.0860412216636575
0.0865909098660854
0.0871328292085223
0.0876588977182279
0.0881365272912088
0.0885755656831369
0.0889130488687285
0.0890614136150361
0.0897408543736873
0.0907494901085298
0.0921946280899978
0.0939768155460481
0.0960839338716165
0.0984684907866881
0.101106254832769
0.103969081567681
0.107035856454069
0.110286230091599
0.113702455957733
0.117267535771429
0.120965596446853
0.124781266653985
0.128699849069139
0.13270694956953
0.136788576274283
0.140931070997489
0.145121210341912
0.149346156539552
0.153593570313822
0.157851754763327
0.162109751613519
0.166357388085669
0.170585274338808
0.174784826660253
0.178948221735076
0.18306845285455
0.18713922240953
0.191155046094524
0.195111073216941
0.199003107580332
0.202827656763629
0.206581887222258
0.210263638822123
0.213871352425573
0.217404004743332
0.220861105866742
0.224242547579323
0.227548712118225
0.230780183874663
0.233937915858049
0.237022956092057
0.240036954366494
0.242981293209289
0.245858556462959
0.2486699948694
0.251419612009899
0.254107248309013
0.256740060476857
0.259313716074823
0.261843356043886
0.264313345413205
0.26675928545466
0.269135589862194
0.271530327028597
0.273819648151421
0.276224479510876
0.278409790488816
0.280857694718043
0.283102993394566
0.285479740434333
0.287785992352584
0.290068656066889
0.292220693891885
0.294164412544556
0.29578018581038
0.296851984995991
0.297241816469618
0.29676654737847
0.295283250730157
0.292712690697601
0.28903421263301
0.284341576971189
0.278282464150059
0.270522374754372
0.260516086611625
0.247217734436356
0.229204911219068
0.203979863104064
0.17151592088546
0.131087335271608
0.0831045236419933
0.0316906314054681
-0.0168395235769248
-0.0422643570666679
-0.0395686024690749
-0.0306026525193653
-0.00734885749794648
0.00339228023932939
0.0141947776827852
0.0155595332232353
0.0298407225548711
0.0457717637040577
0.0569422402440536
0.0635064730052525
0.0684053919579957
0.0716170422523445
0.0740813434134365
0.0760802777631637
0.0776826181992317
0.0789524688285843
0.0800222910145935
0.080914115881515
0.0816721447767925
0.0823103729400915
0.0828759849197213
0.0833950363406588
0.0838883816255588
0.0843809460454884
0.084888810820895
0.0854223207748226
0.0859530504187359
0.0864805961317381
0.0870031054122007
0.0875144513961295
0.0879842249650068
0.0884247149487526
0.0887761110450315
0.0890032366785544
0.0897065306634601
0.0907368156217791
0.0921906699542978
0.0939759745679022
0.096082034038954
0.0984630157962036
0.10109560504526
0.103952207936524
0.107012059302099
0.110255061965752
0.113663695880195
0.11722106560716
0.120911398709142
0.124719394918885
0.128630429986428
0.132630167215785
0.13670466854608
0.140840322384146
0.145023951163086
0.149242751197991
0.153484406236498
0.157737236587465
0.161990297077792
0.1662334251426
0.170457236989947
0.174653152947117
0.178813348349449
0.182930816093749
0.18699925188253
0.191013172149912
0.194967719545739
0.198858686969469
0.202682570703804
0.206436520471343
0.210118360235109
0.2137265131233
0.217259937257409
0.220718126852187
0.224100955861206
0.227408799427209
0.230642230855152
0.23380219967704
0.236889745488942
0.239906511306384
0.242853864915317
0.245734394998612
0.24854933847463
0.251302719684399
0.25399437061544
0.256631502929991
0.259209745285577
0.261744371842509
0.264219595702612
0.266671387337505
0.269053550221085
0.271455302152898
0.2737504531313
0.276163351549882
0.278349582122479
0.280803622639478
0.283029190898484
0.285383396472776
0.287656898002989
0.289899673398974
0.292001134873451
0.293882390761348
0.295422341793599
0.296407349390339
0.296705547186237
0.296138279665992
0.294569257291244
0.291922912330843
0.288173189549762
0.283394554532891
0.277224569326434
0.269322252341493
0.25912801728299
0.24559274792181
0.227327657699985
0.201960572993807
0.169536864280042
0.129447919222525
0.0823399762148874
0.0324350823171216
-0.0142667822510681
-0.0388873586513628
-0.0367890742730415
-0.0286663955135665
-0.00641633615310023
0.0040569838103592
0.0148276238513554
0.0164928450168406
0.0305205855864821
0.0461399196536982
0.0571330183976205
0.0635453252141992
0.0685034779108484
0.0716594221274803
0.0740530634899891
0.07603849684684
0.0776499993829268
0.0789332295741705
0.0800176228504812
0.080924094036363
0.0816944798677829
0.0823410465049986
0.0829070453438421
0.0834190798403138
0.0838984774530627
0.0843708939300967
0.0848536315575744
0.085359062676336
0.0858642569877769
0.0863684009018208
0.0868704580354457
0.0873663495889371
0.0878279742662217
0.088270709341242
0.088636681651735
0.0889404314287368
0.0896664714794218
0.090719767448892
0.0921827453190299
0.0939718627426295
0.096077271517994
0.0984550223546966
0.101082668667925
0.103933209341453