/*--------------------------------*- C++ -*----------------------------------*\
  =========                 |
  \\      /  F ield         | OpenFOAM: The Open Source CFD Toolbox
   \\    /   O peration     | Website:  https://openfoam.org
    \\  /    A nd           | Version:  7
     \\/     M anipulation  |
\*---------------------------------------------------------------------------*/
FoamFile
{
    version     2.0;
    format      ascii;
    class       surfaceScalarField;
    location    "20000";
    object      phi;
}
// * * * * * * * * * * * * * * * * * * * * * * * * * * * * * * * * * * * * * //

dimensions      [0 3 -1 0 0 0 0];

internalField   nonuniform List<scalar> 
30950
(
2.90505851731775e-05
-3.13581105369852e-06
3.1403525432652e-05
-2.35294026260935e-06
1.79860533921868e-05
1.34174720330183e-05
2.89436518591358e-07
1.76966168536213e-05
-1.04497627751826e-05
1.07391992784438e-05
-1.22805925355812e-05
1.83082976869873e-06
-1.05249122179032e-05
-1.7556803138307e-06
-8.8161964313531e-06
-1.70871579774767e-06
-7.49233326872407e-06
-1.32386318284568e-06
-6.65843004434807e-06
-8.33903245231993e-07
-6.05888069773365e-06
-5.99549363645634e-07
-5.65078600184308e-06
-4.08094712838629e-07
-5.45443328769925e-06
-1.96352735752776e-07
-5.39110040765887e-06
-6.33329080815534e-08
-5.51931174650605e-06
1.28211304936315e-07
-5.89947265250175e-06
3.80160867037507e-07
-6.58634386155176e-06
6.86871164685894e-07
-7.51364687309337e-06
9.27302959782579e-07
-8.6458811989278e-06
1.13223426421555e-06
-9.9608748673777e-06
1.31499359473214e-06
-1.13713665713491e-05
1.41049161657269e-06
-1.27528676259811e-05
1.38150095291123e-06
-1.40124269160851e-05
1.25955917439094e-06
-1.52728337071038e-05
1.26040666219756e-06
-1.64758557371528e-05
1.20302188833837e-06
-1.748828138964e-05
1.01242549818205e-06
-1.82592064327071e-05
7.70924876622806e-07
-1.88758460627806e-05
6.1663945156952e-07
-1.93711109165801e-05
4.95264663282419e-07
-2.08745215132209e-05
1.50341039420152e-06
-2.76352829652785e-05
6.76076124140019e-06
-3.41390797110437e-05
6.5037965408202e-06
-3.93686331135177e-05
5.2295532098904e-06
-4.35529067505196e-05
4.18427346208678e-06
-4.69778584316362e-05
3.42495152785911e-06
-4.97879988840951e-05
2.81014032248172e-06
-5.21145675364536e-05
2.32656854485502e-06
-5.40375577103088e-05
1.92299008605794e-06
-5.56185476149474e-05
1.58098983245832e-06
-5.68986304401104e-05
1.28008276379824e-06
-5.79087821718656e-05
1.0101516761192e-06
-5.86717828590045e-05
7.63000632304905e-07
-5.9205886879426e-05
5.3410396195827e-07
-5.95257204368197e-05
3.19833491534675e-07
-5.96439992254815e-05
1.18278712515027e-07
-5.95717665465632e-05
-7.22327673630572e-08
-5.93194033594506e-05
-2.52363289055655e-07
-5.88970734494507e-05
-4.22330025784007e-07
-5.8314982811242e-05
-5.82090767472444e-07
-5.75834739973721e-05
-7.31508955617111e-07
-5.67133235366705e-05
-8.70150613456503e-07
-5.57156872315638e-05
-9.97636467048046e-07
-5.46018246410778e-05
-1.11386275957818e-06
-5.33828648795215e-05
-1.2189599356761e-06
-5.20696719097106e-05
-1.31319314687029e-06
-5.06728116070896e-05
-1.39686048072879e-06
-4.92024773335024e-05
-1.47033445122237e-06
-4.76685294219576e-05
-1.5339480876328e-06
-4.60803535061192e-05
-1.58817608979742e-06
-4.44470314982692e-05
-1.63332217957066e-06
-4.27771702090231e-05
-1.66986145889789e-06
-4.10792850050136e-05
-1.69788537176515e-06
-3.93617747225265e-05
-1.71751044831531e-06
-3.76326358437823e-05
-1.72913904212616e-06
-3.58994060649241e-05
-1.73322993876618e-06
-3.41690001834822e-05
-1.73040603633018e-06
-3.2447718076677e-05
-1.72128225484286e-06
-3.07412819170878e-05
-1.7064362990367e-06
-2.90547163507764e-05
-1.68656569599785e-06
-2.73926346856802e-05
-1.66208178475513e-06
-2.575905004288e-05
-1.63358475337123e-06
-2.41582221409291e-05
-1.60082800553475e-06
-2.25943680119733e-05
-1.56385422847505e-06
-2.10720192734732e-05
-1.52234883715499e-06
-1.9594642146886e-05
-1.47737722707007e-06
-1.8166620265087e-05
-1.42802198571741e-06
-1.67897002143657e-05
-1.37692015807849e-06
-1.54693468515895e-05
-1.32035347192897e-06
-1.42052524519847e-05
-1.26409450761165e-06
-1.30081634926014e-05
-1.19708906282308e-06
-1.18726806107995e-05
-1.13548297755815e-06
-1.08224146667267e-05
-1.05026603032257e-06
-9.83799827481386e-06
-9.84416468557312e-07
-8.97588243206412e-06
-8.62115911635854e-07
-8.18085870903578e-06
-7.95023787453455e-07
-7.59467998073094e-06
-5.86178792184563e-07
-7.06818252400759e-06
-5.26497523668763e-07
-6.95509358823149e-06
-1.13089008137088e-07
-6.87392652743334e-06
-8.11671392870956e-08
-7.80231992805722e-06
9.28393317011401e-07
-7.56833085377783e-06
-2.33989158615432e-07
-6.9509038834049e-06
-6.17427054351126e-07
-5.63963900855388e-06
-1.31126495728037e-06
-3.85953737776577e-06
-1.78010171103875e-06
-1.56029949274053e-06
-2.29923796283539e-06
1.2304143993879e-06
-2.79071396722166e-06
4.57071314816318e-06
-3.34029882049996e-06
8.63544108092607e-06
-4.06472799984563e-06
1.31962813122337e-05
-4.56084029173872e-06
1.80816527317179e-05
-4.88537147086797e-06
2.3101604431014e-05
-5.01995173959073e-06
2.80014588991941e-05
-4.8998544967586e-06
3.23701942838573e-05
-4.36873540331563e-06
3.58245940686519e-05
-3.4543997973948e-06
3.88648023755776e-05
-3.04020831815451e-06
4.17380999327533e-05
-2.87329757086859e-06
4.4662343043015e-05
-2.92424312829818e-06
4.80791132315083e-05
-3.4167702105055e-06
5.27754816152213e-05
-4.69636840777898e-06
5.98154859834859e-05
-7.04000439172341e-06
6.80792861597684e-05
-8.26380019595794e-06
7.79044038322819e-05
-9.82511768778811e-06
8.96248100087181e-05
-1.17204061908315e-05
0.000102065318206855
-1.24405082115576e-05
0.000109133803186566
-7.06848498217339e-06
9.62214091616045e-05
1.2912394040026e-05
6.8517042256194e-05
2.77043669221507e-05
4.44073323818589e-05
2.41097098794419e-05
2.66000636877609e-05
1.7807268695839e-05
6.86559466674724e-07
9.81403659550145e-05
-8.27312453071046e-06
0.000101265555970242
-5.47813029291624e-06
6.75770472546473e-05
4.7105980730963e-05
1.56850799014908e-05
6.95885841766491e-05
-2.23298389927462e-05
4.87541181341627e-05
-3.31242709180893e-05
1.26252616672638e-05
-2.9824915311489e-05
-5.0550359400756e-06
-2.54026220473992e-05
-6.13100908900702e-06
-2.19332549970557e-05
-4.79323026997052e-06
-1.96690891018529e-05
-3.09806918532975e-06
-1.80956381406155e-05
-2.17300037427411e-06
-1.70599140984307e-05
-1.44381880776645e-06
-1.66095588651082e-05
-6.4670802772183e-07
-1.65894200763808e-05
-8.34717641365144e-08
-1.7141257586595e-05
6.80048737474453e-07
-1.84474203147176e-05
1.68632350650403e-06
-2.06219015942915e-05
2.86135234401316e-06
-2.35111492882812e-05
3.81655053980412e-06
-2.70075472577123e-05
4.62863210186258e-06
-3.10300613327325e-05
5.33750751454278e-06
-3.53405594271131e-05
5.7209895259648e-06
-3.96282005283562e-05
5.66914183320795e-06
-4.37137958009769e-05
5.34515418516944e-06
-4.78234525225703e-05
5.37006307884975e-06
-5.18064749082638e-05
5.1860439262621e-06
-5.53412811604586e-05
4.54723136276042e-06
-5.83235999010791e-05
3.75324319596552e-06
-6.09757566029268e-05
3.2687957083677e-06
-6.40957567171709e-05
3.61526432230789e-06
-7.12083113520195e-05
8.61596457971081e-06
-8.88587824839969e-05
2.4411231952206e-05
-0.000105863459503379
2.35084731753971e-05
-0.000119216242398936
1.85823357596728e-05
-0.000129796112677862
1.47641434365271e-05
-0.000138301667903251
1.19305064897234e-05
-0.000145183521567076
9.69199375998963e-06
-0.000150771531577988
7.91457835998173e-06
-0.000155286596763151
6.43805509739935e-06
-0.000158886307672414
5.18070058040587e-06
-0.000161681270729327
4.07504566234794e-06
-0.000163753386593895
3.08226737628995e-06
-0.000165164776098032
2.17438995809461e-06
-0.000165965138393331
1.3344660583054e-06
-0.000166195494157763
5.50189031387602e-07
-0.000165891962410262
-1.85253288445115e-07
-0.00016508655275126
-8.77642710233852e-07
-0.00016380948679348
-1.52942956087116e-06
-0.000162090340649807
-2.14147651205269e-06
-0.000159958378588586
-2.71405319704623e-06
-0.000157443023669318
-3.24686426526897e-06
-0.000154574345623139
-3.73882906763451e-06
-0.000151382854982701
-4.18912752841157e-06
-0.000147898886368262
-4.59783180314879e-06
-0.000144152119429255
-4.96572730764303e-06
-0.000140171327363797
-5.29398564518452e-06
-0.000135984314814492
-5.58387345969263e-06
-0.000131617804436006
-5.83684525393309e-06
-0.00012709749133412
-6.054261607043e-06
-0.000122447854069496
-6.23781376482574e-06
-0.000117692451814847
-6.38872483762982e-06
-0.000112853790804536
-6.50852286604648e-06
-0.000107953991370746
-6.59768519609207e-06
-0.000103014677004855
-6.65682519816798e-06
-9.80563812759577e-05
-6.6874351473693e-06
-9.30983747202413e-05
-6.69123686123676e-06
-8.81583763507398e-05
-6.67040476029767e-06
-8.32525684735498e-05
-6.62709047118063e-06
-7.83956651404628e-05
-6.56333995315891e-06
-7.36007808812284e-05
-6.48145025630102e-06
-6.88799689978988e-05
-6.38289394882812e-06
-6.42441921851555e-05
-6.26936182810414e-06
-5.97048901171169e-05
-6.14013032023939e-06
-5.52735511936132e-05
-5.99519338816843e-06
-5.09619308075576e-05
-5.83396945439593e-06
-4.67799677981447e-05
-5.65934046763232e-06
-4.27384868931926e-05
-5.46950312523746e-06
-3.88444798725355e-05
-5.27092741785288e-06
-3.51102389675004e-05
-5.05459461926926e-06
-3.15411831283295e-05
-4.83315058876385e-06
-2.81582864821265e-05
-4.5799859460074e-06
-2.49630809816463e-05
-4.33068870545666e-06
-2.19961365956623e-05
-4.01721063107533e-06
-1.92473030765097e-05
-3.73325018924805e-06
-1.68061597499826e-05
-3.30325942864564e-06
-1.46326590026295e-05
-2.96852471890968e-06
-1.29445162777709e-05
-2.27432170093472e-06
-1.16180881553147e-05
-1.85292583558097e-06
-1.11951195494056e-05
-5.36057813551643e-07
-1.13728256505053e-05
9.65387504437107e-08
-1.34268910631563e-05
2.98245850697952e-06
-1.2704868742126e-05
-9.56011709510415e-07
-1.05356068155214e-05
-2.7866892136301e-06
-6.68244597106608e-06
-5.16442603152728e-06
-1.53686416034848e-06
-6.92568374332261e-06
4.89355030681622e-06
-8.72965263784197e-06
1.25569457567125e-05
-1.04541096056828e-05
2.15927382165201e-05
-1.23760914457378e-05
3.22968015984782e-05
-1.47687915222852e-05
4.41691373180618e-05
-1.64331761271613e-05
5.6784839284577e-05
-1.75010735307424e-05
6.96996449915853e-05
-1.79347575213762e-05
8.2337883514432e-05
-1.75380930809439e-05
9.3765100780615e-05
-1.57959527230048e-05
0.000103179593631378
-1.28688926985046e-05
0.000111430887682436
-1.12915024190261e-05
0.000119122452548361
-1.05648624862325e-05
0.000126840389151384
-1.0642179778669e-05
0.000135579950485026
-1.21563315866118e-05
0.000147234412054796
-1.63508300124012e-05
0.000164045449639864
-2.38510420018825e-05
0.000184479724416787
-2.86980749876261e-05
0.000209125128640894
-3.44705219178481e-05
0.000238623001618372
-4.12182791671428e-05
0.000270958982596315
-4.47764891797241e-05
0.000293268150543939
-2.93776529079688e-05
0.000274424291504905
3.17562531109121e-05
0.000216487374074922
8.56412843764436e-05
0.000153238751382925
8.73583325804783e-05
0.000103586134999892
6.74598850820906e-05
1.12696419575207e-05
0.00018188639182057
-9.94899923145388e-06
0.000182603883786696
-6.19562227862855e-06
0.000132828411229445
9.68814532656405e-05
4.75861230086232e-05
0.00015483087236139
-2.41630417347513e-05
0.000120503282827962
-5.03582801429119e-05
3.88205000318721e-05
-4.80259404664821e-05
-7.38737564767999e-06
-4.16464745611621e-05
-1.25104750287943e-05
-3.6437111834101e-05
-1.0002593041394e-05
-3.29456402882807e-05
-6.5895407874949e-06
-3.05553943546023e-05
-4.56324637363012e-06
-2.90304393135722e-05
-2.96877392068927e-06
-2.84487751766106e-05
-1.22837224405013e-06
-2.86250153294988e-05
9.2768298759112e-08
-2.97736918072263e-05
1.82872511190877e-06
-3.21890408779291e-05
4.10167245926352e-06
-3.60177791667228e-05
6.69009049943339e-06
-4.10377472265204e-05
8.83651844860832e-06
-4.70695221420611e-05
1.06604068442768e-05
-5.3961899602631e-05
1.2229884773365e-05
-6.1344122095472e-05
1.31032117808659e-05
-6.87762302366235e-05
1.31012496927941e-05
-7.60489841707953e-05
1.26179077882295e-05
-8.34200142493844e-05
1.2741092774232e-05
-9.06584187590163e-05
1.24244480012301e-05
-9.73262053089702e-05
1.12150174302366e-05
-0.000103313644160348
9.74068152461131e-06
-0.000109095206896696
9.05035789449375e-06
-0.000116537878366293
1.10579352327916e-05
-0.000130460263419003
2.25383490898612e-05
-0.000156533099520859
5.04840675600819e-05
-0.00018103897027929
4.8014343491746e-05
-0.00019987999313328
3.7423358223287e-05
-0.000214541571499702
2.94257214650483e-05
-0.000226075448606848
2.34643833090441e-05
-0.000235197637346273
1.88141822555342e-05
-0.000242391906202202
1.51088470070363e-05
-0.000247990421085819
1.20365697965846e-05
-0.000252224856933728
9.41513625725162e-06
-0.000255261666194431
7.1118547545475e-06
-0.000257224575129273
5.0451761352417e-06
-0.00025820913745295
3.15895208975029e-06
-0.000258292027612726
1.41735600256068e-06
-0.000257537341627033
-2.04497198676387e-07
-0.000256004324927209
-1.71827026454571e-06
-0.000253748249787047
-3.13371815984186e-06
-0.000250819196147084
-4.45848354307398e-06
-0.000247264678935716
-5.6959940965154e-06
-0.00024313121246032
-6.84752007308409e-06
-0.000238464865682883
-7.91321146656667e-06
-0.000233311729316225
-8.89196587641352e-06
-0.000227717584079265
-9.7832732204975e-06
-0.000221727182353854
-1.05882339915874e-05
-0.000215383764891723
-1.13091452360096e-05
-0.000208728858227305
-1.19488927751462e-05
-0.000201802263851686
-1.25104682971559e-05
-0.00019464200079663
-1.29971087651948e-05
-0.000187284396321098
-1.34118665321826e-05
-0.000179763986198853
-1.37582243298999e-05
-0.000172113879163811
-1.40388323090907e-05
-0.000164365787853644
-1.42566146067142e-05
-0.000156550719681301
-1.44127537931908e-05
-0.000148698755576362
-1.45087897216143e-05
-0.000140838362840789
-1.45478282937903e-05
-0.000132996188039204
-1.45334120636542e-05
-0.00012519678317455
-1.44698100126702e-05
-0.000117462653111961
-1.43612209050305e-05
-0.000109814346334087
-1.42116470828273e-05
-0.000102270429643444
-1.40253672774424e-05
-9.48481285296851e-05
-1.3805195371613e-05
-8.75636246166944e-05
-1.35538660305933e-05
-8.04337498750724e-05
-1.32700053358624e-05
-7.34755343176797e-05
-1.29534092096033e-05
-6.67059899017867e-05
-1.26035141304261e-05
-6.01403586472453e-05
-1.2224971983909e-05
-5.37941161577954e-05
-1.18157458817134e-05
-4.76798087324435e-05
-1.13852351166478e-05
-4.18143920589275e-05
-1.09200115708752e-05
-3.62115724075461e-05
-1.04359705187312e-05
-3.08971930878127e-05
-9.89436553935028e-06
-2.58871023535159e-05
-9.3407797030709e-06
-2.1225115838447e-05
-8.67919739561932e-06
-1.69300543573898e-05
-8.0283119051559e-06
-1.3089785165654e-05
-7.14352884337601e-06
-9.72925201178543e-06
-6.32905808933715e-06
-7.05412887230559e-06
-4.94944505765895e-06
-5.09222195340354e-06
-3.81483297945648e-06
-4.35979701988243e-06
-1.26848298505829e-06
-4.91162418579958e-06
6.48365662928385e-07
-7.47935124360309e-06
5.55018529759845e-06
-6.07279268911488e-06
-2.36257054111208e-06
-2.20842973284548e-06
-6.65105244947504e-06
4.00059333271763e-06
-1.13734493711359e-05
1.20918368185979e-05
-1.50169274892634e-05
2.19653598368609e-05
-1.86031758937176e-05
3.35656529316272e-05
-2.2054402909358e-05
4.70934595493028e-05
-2.59038982403568e-05
6.28609432091253e-05
-3.05362753267419e-05
8.02658699911227e-05
-3.38381030244059e-05
9.87367104319619e-05
-3.59719140631093e-05
0.000117678387253309
-3.68764344178312e-05
0.000136336538102315
-3.6196243996164e-05
0.00015349394904208
-3.2953363726189e-05
0.000168115957148998
-2.74909008693302e-05
0.000181024107178575
-2.41996525129773e-05
0.00019300603028232
-2.2546785652281e-05
0.000204908777259952
-2.25449268128816e-05
0.000218063670411245
-2.53112247853948e-05
0.00023505456244512
-3.33417220825166e-05
0.00025880149497619
-4.75979745574491e-05
0.000288080707505557
-5.79772875314165e-05
0.000323480054382877
-6.98698688020376e-05
0.000365608924548219
-8.33471493323966e-05
0.000412275529824468
-9.14430944476813e-05
0.00044864873052142
-6.57508535895238e-05
0.000436745116950858
4.36598667002454e-05
0.000369926925804685
0.000152459475538299
0.000281882731364431
0.000175402527029477
0.00020588174277558
0.000143460873674779
3.69408676025525e-05
0.000278197954209232
-3.40070302820563e-06
0.000273960476913372
-1.95814500148906e-06
0.000212262986207866
0.000158578943949653
9.70595565406616e-05
0.00027003430199313
-1.32801677854315e-05
0.00023084300710078
-6.22747329855201e-05
8.78150651823422e-05
-6.43895478940376e-05
-5.27256077572652e-06
-5.71302277256322e-05
-1.97697952343418e-05
-5.07088037379705e-05
-1.64240170759566e-05
-4.6298744974447e-05
-1.09995996112379e-05
-4.33050001884197e-05
-7.55699123129437e-06
-4.14733004495761e-05
-4.80047373923343e-06
-4.09242990240405e-05
-1.77737375807584e-06
-4.14762902256019e-05
6.44759399798538e-07
-4.3417166824661e-05
3.76960159552703e-06
-4.71297003505237e-05
7.81420585324628e-06
-5.27757955033187e-05
1.23361855031262e-05
-6.0070106635695e-05
1.61308294125853e-05
-6.87625828426236e-05
1.93528828593711e-05
-7.86237142936356e-05
2.20910160032412e-05
-8.91729991573397e-05
2.36524963874871e-05
-9.98956036972379e-05
2.38238539334685e-05
-0.000110571000216677
2.32933039618592e-05
-0.000121439342097096
2.36094342609943e-05
-0.000132198074971789
2.31831804359513e-05
-0.000142366260316988
2.13832022931038e-05
-0.000151900352590643
1.92747732808532e-05
-0.000161610732917882
1.87607376816248e-05
-0.000174051708114573
2.34989098854705e-05
-0.000193779915226333
4.22665556814248e-05
-0.000224381947094801
8.10860989605087e-05
-0.000251802987777281
7.54353837620141e-05
-0.000272164818697615
5.77851887861537e-05
-0.000287490676319783
4.47515787829583e-05
-0.000299097115847508
3.5070822581558e-05
-0.000307876969447468
2.75940356422446e-05
-0.00031440717864705
2.16390560263072e-05
-0.000319085029435619
1.67144204278543e-05
-0.000322185604667908
1.25157113453135e-05
-0.000323909097320596
8.8353472667275e-06
-0.000324405365314837
5.54144398422887e-06
-0.000323791102226534
2.54468884397284e-06
-0.000322161027932969
-2.12718466416901e-07
-0.000319601774106342
-2.76375122260507e-06
-0.000316190767994435
-5.12927659821294e-06
-0.00031199269960095
-7.33178680043528e-06
-0.000307067889598296
-9.38329381774123e-06
-0.000301473356009366
-1.12905279806438e-05
-0.000295264093488312
-1.30567829097913e-05
-0.000288493737030697
-1.46835682567813e-05
-0.000281215001237581
-1.61707020150875e-05
-0.000273479360929154
-1.75189138832968e-05
-0.000265336455467383
-1.87311398125741e-05
-0.000256833776982502
-1.98118240814265e-05
-0.000248016616818601
-2.07660532980403e-05
-0.000238928145922487
-2.15989395486552e-05
-0.000229609447014237
-2.23158080239461e-05
-0.000220099639518874
-2.29216743726707e-05
-0.000210435893147246
-2.34219710413749e-05
-0.000200653796811599
-2.38209289797114e-05
-0.000190787522458189
-2.41228892906366e-05
-0.000180870429027336
-2.43298475502762e-05
-0.000170934757224509
-2.44444618459698e-05
-0.000161010976697944
-2.44716091360596e-05
-0.000151127607326036
-2.4416781743597e-05
-0.000141311015000959
-2.42864026357006e-05
-0.000131585495660385
-2.40867405309471e-05
-0.000121973368712321
-2.38237743014072e-05
-0.000112495068354744
-2.35036678893874e-05
-0.000103169759005601
-2.31305049590446e-05
-9.40158907230697e-05
-2.27077345370673e-05
-8.50527071131615e-05
-2.22331891586453e-05
-7.62998761048832e-05
-2.17062404241801e-05
-6.77768269025425e-05
-2.11265635373304e-05
-5.95017709152712e-05
-2.05000281783073e-05
-5.14924770251875e-05
-1.98250399843383e-05
-4.37655462202137e-05
-1.91121661402427e-05
-3.63401373204035e-05
-1.83454206938128e-05
-2.9237094874082e-05
-1.75390131891742e-05
-2.24831515183968e-05
-1.66483091156137e-05
-1.6107753633089e-05
-1.57161778010555e-05
-1.01509071206431e-05
-1.46360441100037e-05
-4.6600162660492e-06
-1.35192029505222e-05
2.93131154709454e-07
-1.20966764459873e-05
4.62004330031506e-06
-1.06559704125453e-05
8.15894784306801e-06
-8.48834977967677e-06
1.07319922511974e-05
-6.3878775747091e-06
1.19323481422275e-05
-2.46883907586556e-06
1.13306090939039e-05
1.25010449624399e-06
8.94607038840627e-06
7.93472377451069e-06
1.09471029790242e-05
-4.36360336858042e-06
1.61008626037698e-05
-1.18048123101785e-05
2.3928988316606e-05
-1.92015753106293e-05
3.3971132215095e-05
-2.50590715979603e-05
4.60603189566383e-05
-3.06923628236521e-05
6.01452150280464e-05
-3.61392991436043e-05
7.64440045589025e-05
-4.2202687906806e-05
9.5238530267993e-05
-4.93308011450442e-05
0.000115970699172449
-5.45702720153406e-05
0.000138035632821594
-5.80368477818668e-05
0.000160796047688499
-5.96368493443611e-05
0.000183464255650732
-5.88644520143416e-05
0.000204787508661585
-5.42766167935969e-05
0.000223648290133252
-4.63516823995491e-05
0.000240615879184894
-4.11672416236197e-05
0.00025645496457449
-3.83858710980058e-05
0.000272079978287063
-3.81699405751082e-05
0.000288901907159049
-4.21331536978855e-05
0.000309708269736691
-5.41480846905146e-05
0.000337741622898014
-7.56313277397958e-05
0.000372383881548314
-9.26195461958622e-05
0.00041415226452655
-0.000111638251789596
0.000463475002399086
-0.000132669887208923
0.000518354038417178
-0.000146322130463787
0.000565713247187636
-0.000113110062355714
0.00056825322067953
4.11198932100084e-05
0.000510521485376414
0.000210191210845343
0.000416878841356587
0.0002690451710559
0.00032556173015587
0.000234777984879995
7.7756347344921e-05
0.00037744754133694
1.32504885697325e-05
0.000367245605070512
8.24379124803491e-06
0.000299763464907225
0.000226061084093681
0.000162364716520414
0.000407433050348618
1.25003760254724e-05
0.000380707347544456
-6.66870413648377e-05
0.000167002482517341
-7.79577177743783e-05
5.99811559120031e-06
-7.1345756889202e-05
-2.63817561601803e-05
-6.44229909587143e-05
-2.33467830566726e-05
-5.9511107535781e-05
-1.5911483098681e-05
-5.61942361787864e-05
-1.08738626656903e-05
-5.42796407428425e-05
-6.71506926211344e-06
-5.3955024527748e-05
-2.10199007006984e-06
-5.50767319771642e-05
1.76646673910517e-06
-5.80026135233624e-05
6.69548301544557e-06
-6.31749619791321e-05
1.29865541650369e-05
-7.0746795290032e-05
1.99080186517703e-05
-8.03657462506544e-05
2.57497801910912e-05
-9.17005829412664e-05
3.06877193447049e-05
-0.000104426216897036
3.48166497260287e-05
-0.000117963532137068
3.71898113620032e-05
-0.000131746589375229
3.76069108696166e-05
-0.000145532632734315
3.70793469803734e-05
-0.000159491203907174
3.7568005055571e-05
-0.000173270169601643
3.69621457177783e-05
-0.000186435519591223
3.45485518409122e-05
-0.000199094942952343
3.19341961787199e-05
-0.000212298406161675
3.19642004174531e-05
-0.000228571069009609
3.97715722659952e-05
-0.000251241750868067
6.49372371022162e-05
-0.000281444646393535
0.000111288994095896
-0.000306843590340717
0.000100834327373081
-0.000324971237487547
7.59128356486846e-05
-0.000338186420122036
5.79667611798863e-05
-0.000347799265008472
4.46836672713202e-05
-0.000354695973019608
3.4490743490381e-05
-0.000359425017968226
2.63681008376784e-05
-0.000362364413950548
1.96538162906584e-05
-0.000363774054450859
1.39253517362462e-05
-0.000363844434744952
8.90572745475771e-06
-0.000362719018736595
4.41602786716766e-06
-0.000360511392599847
3.37062590941409e-07
-0.000357319865677483
-3.4042455163889e-06
-0.000353228009480834
-6.85560756072857e-06
-0.000348304414131147
-1.00528721046768e-05
-0.000342611912342399
-1.30242887617369e-05
-0.000336209610793698
-1.57855955542686e-05
-0.000329153664081933
-1.83464748942009e-05
-0.000321498343075589
-2.07121041299547e-05
-0.000313296665907492
-2.28852456483304e-05
-0.000304600745060056
-2.48666230929553e-05
-0.000295461439904429
-2.66582192736606e-05
-0.000285927793404872
-2.82647865486549e-05
-0.000276046771477947
-2.96928462444887e-05
-0.000265863247030484
-3.09495779795769e-05
-0.000255420081562647
-3.20421052473256e-05
-0.000244758169055097
-3.29777207584687e-05
-0.000233916527967505
-3.37633156832035e-05
-0.000222932347646551
-3.44061515813943e-05
-0.000211841295394681
-3.49119814470822e-05
-0.000200677735045858
-3.52864498516916e-05
-0.000189475255264825
-3.55323275403304e-05
-0.000178266336505154
-3.5653380811171e-05
-0.000167081721524259
-3.5656224318242e-05
-0.000155950238368774
-3.55482650949495e-05
-0.000144898634073051
-3.53380071204129e-05
-0.000133951666106109
-3.50337086785001e-05
-0.000123132181449556
-3.46432591289681e-05
-0.000112461267164504
-3.41745823352423e-05
-0.000101958785789804
-3.36329864846226e-05
-9.16440619007264e-05
-3.30224585684097e-05
-8.15372153105576e-05
-3.23400358847188e-05
-7.1658965343089e-05
-3.15844905240923e-05
-6.20296653449592e-05
-3.07558636674794e-05
-5.26689356012455e-05
-2.9860758056191e-05
-4.35954442265227e-05
-2.88985314969631e-05
-3.48279935392327e-05
-2.7879616969406e-05
-2.63863072111277e-05
-2.67871071665633e-05
-1.82951784253672e-05
-2.5630142120055e-05
-1.05804296472127e-05
-2.43630580365234e-05
-3.27907734544313e-06
-2.30175302406612e-05
3.57347026114763e-06
-2.14885918478692e-05
9.91464037313153e-06
-1.98603731871509e-05
1.56869288418041e-05
-1.78689650342678e-05
2.0768427963647e-05
-1.5737469652034e-05
2.50410463251824e-05
-1.2760968260916e-05
2.8243594244751e-05
-9.59042562038723e-06
3.00910085996127e-05
-4.31625356682039e-06
2.99406975706631e-05
1.40041537695768e-06
2.81960574943618e-05
9.67936369208185e-06
3.04694998528342e-05
-6.63704588970724e-06
3.62223018707278e-05
-1.75576144874443e-05
4.47970897657407e-05
-2.77763633564105e-05
5.57938817776996e-05
-3.6055863748415e-05
6.90026228645504e-05
-4.3901104033897e-05
8.43740456601223e-05
-5.15107220455524e-05
0.000102106216524243
-5.9934858859542e-05
0.000122433991034131
-6.96585757267212e-05
0.000144878143548702
-7.70144245875824e-05
0.000168841268939125
-8.19999732199482e-05
0.000193687407380085
-8.4482987827528e-05
0.000218654630243124
-8.38316749181817e-05
0.000242574353667259
-7.81963402596793e-05
0.000264379123072001
-6.8156451847812e-05
0.000284404287766836
-6.11924063620482e-05
0.000303326498166075
-5.73080815382777e-05
0.000322010366813307
-5.68538092582328e-05
0.000341776677987028
-6.18994649006003e-05
0.000365284109738024
-7.76555164631247e-05
0.000395750676266569
-0.000106097894283473
0.000433178792299067
-0.000130047662238815
0.000477996694733842
-0.000156456154231009
0.000530440960964611
-0.000185114153441528
0.000588725009892612
-0.000204606179388813
0.000642299410700768
-0.000166684463160368
0.000659539415582346
2.38798883274507e-05
0.000620839004390413
0.000248891622037946
0.000538443165940587
0.000351441009511055
0.00044576389696242
0.000327457253862973
0.000129421511370628
0.000470065609637342
3.85810204220549e-05
0.000454449411874146
2.38599889974552e-05
0.000387241632950081
0.000293268863000857
0.000238296843909555
0.000556377839362276
5.35745640804408e-05
0.000565429627329057
-6.10840480861534e-05
0.000281661094625127
-8.74148187009098e-05
3.23288861574975e-05
-8.35968062459887e-05
-3.01997686584632e-05
-7.71277608708287e-05
-2.98158284840449e-05
-7.22723195827678e-05
-2.07669244546365e-05
-6.8993779504491e-05
-1.41524028266664e-05
-6.72596124881245e-05
-8.44923637227662e-06
-6.73654959855901e-05
-1.99610667727916e-06
-6.92391911841916e-05
3.64016181920436e-06
-7.329778397925e-05
1.07540756752686e-05
-8.00052395792102e-05
1.96940096116983e-05
-8.94694552004408e-05
2.93722341017096e-05
-0.000101251239129349
3.75315639303573e-05
-0.000114911515084503
4.43479950902425e-05
-0.00013000371898876
4.99088533982252e-05
-0.000145855604848562
5.30416969648223e-05
-0.000161868980187719
5.36202859253087e-05
-0.000177791901493172
5.30022679760125e-05
-0.000193730230019877
5.35063332483827e-05
-0.000209355135062481
5.25870504065642e-05
-0.000224373535994577
4.95669524044883e-05
-0.000239061712033667
4.66223718408718e-05
-0.00025449643186107
4.73989198677286e-05
-0.000272678767189885
5.79539072291679e-05
-0.000295576589150956
8.78350587263059e-05
-0.000322531131250391
0.000138243535898533
-0.000344019154742167
0.000122322350615295
-0.000359127071325806
9.10207520263708e-05
-0.000370024740500773
6.88644301857555e-05
-0.000377758282265043
5.24172088973497e-05
-0.000383063898254857
3.97963593666416e-05
-0.000386391574143529
2.96957766313971e-05
-0.000388058841345681
2.13210834106441e-05
-0.000388286729842811
1.4153240158715e-05
-0.000387240541795186
7.85953933534878e-06
-0.000385047337503402
2.22282350251833e-06
-0.000381811983047809
-2.89829194170533e-06
-0.000377622595756665
-7.59363289114757e-06
-0.000372552037264031
-1.19261661452539e-05
-0.000366664411307827
-1.59404981620091e-05
-0.00036001949460316
-1.96692055770596e-05
-0.000352673913895169
-2.31311763821141e-05
-0.000344682001592995
-2.63383873245804e-05
-0.000336096641327365
-2.92974645308992e-05
-0.000326969816208111
-3.20120709084926e-05
-0.000317352870455859
-3.44835689900462e-05
-0.000307296113028252
-3.67149768483521e-05
-0.000296848217376029
-3.87126823486482e-05
-0.000286055939659933
-4.04851241077178e-05
-0.000274964091435638
-4.20414263493597e-05
-0.000263615600223474
-4.33905966026709e-05
-0.000252051543271653
-4.45417778508415e-05
-0.000240311203083381
-4.55036560093487e-05
-0.000228432112735884
-4.62852420642218e-05
-0.000216450308272384
-4.68937860435793e-05
-0.000204400565769085
-4.73361924858178e-05
-0.000192316905203699
-4.76159882343842e-05
-0.00018023226677206
-4.77380193690855e-05
-0.000168177883784722
-4.77106074289621e-05
-0.000156183097028021
-4.75430519713914e-05
-0.000144275204446771
-4.72458998168737e-05
-0.000132479551510164
-4.68293617249129e-05
-0.000120819600545837
-4.6303210197033e-05
-0.000109317102334776
-4.5677080643732e-05
-9.79925688207029e-05
-4.49575200901264e-05
-8.68660076189927e-05
-4.41490198564907e-05
-7.59581712441945e-05
-4.32478723422758e-05
-6.52905062742098e-05
-4.22521555750188e-05
-5.48840442513642e-05
-4.11623257712363e-05
-4.47593454177916e-05
-3.99854569721e-05
-3.49357666216269e-05
-3.87221103776825e-05
-2.54334233268709e-05
-3.73819603509219e-05
-1.62725283083086e-05
-3.59480022732188e-05
-7.47980281156435e-06
-3.44228677047856e-05
9.19094493731083e-07
-3.27619554279937e-05
8.8840388161846e-06
-3.09824746459493e-05
1.63810294547443e-05