/*--------------------------------*- C++ -*----------------------------------*\
  =========                 |
  \\      /  F ield         | OpenFOAM: The Open Source CFD Toolbox
   \\    /   O peration     | Website:  https://openfoam.org
    \\  /    A nd           | Version:  7
     \\/     M anipulation  |
\*---------------------------------------------------------------------------*/
FoamFile
{
    version     2.0;
    format      ascii;
    class       volSymmTensorField;
    location    "20000";
    object      tauij_B;
}
// * * * * * * * * * * * * * * * * * * * * * * * * * * * * * * * * * * * * * //

dimensions      [0 2 -2 0 0 0 0];

internalField   nonuniform List<symmTensor> 
15600
(
(2.1670357704078e-06 -1.63569762325666e-08 -5.21836892531895e-29 2.16723682813585e-06 -2.19271566545512e-31 2.16714710048585e-06)
(2.16890050185062e-06 -1.88266036809049e-08 3.28760013333678e-27 2.16971094285608e-06 4.37285299996604e-28 2.16927551719659e-06)
(1.56482653932547e-06 -1.19448441063141e-08 1.90161014793845e-27 1.56773640646527e-06 -1.47664063774436e-26 1.5662931855792e-06)
(8.70648021001024e-07 -2.74577288167887e-09 -4.07553901589119e-27 8.72152494546447e-07 1.16048462023763e-26 8.71385953785397e-07)
(3.66194149740055e-07 3.37729070293759e-10 -3.97213788723186e-27 3.65672521222496e-07 -1.1251128597148e-26 3.6592249310502e-07)
(1.28206445973212e-07 2.68095465520874e-10 -1.20492543836322e-26 1.2764504223351e-07 -3.19324637062741e-26 1.27922340384649e-07)
(8.71094722125746e-08 1.36789509893388e-10 -4.06262426914868e-27 8.67160323572984e-08 -7.64433312483504e-27 8.69111792657111e-08)
(7.24371864702193e-08 7.98841916935111e-11 -5.18149155417168e-28 7.21435369648733e-08 3.35212934407453e-30 7.22892784613267e-08)
(4.61308705011066e-08 3.76805257044626e-11 -1.77654133563094e-27 4.59660146031526e-08 -2.1392181367175e-27 4.60478914538214e-08)
(2.95146665234233e-08 1.93283832738496e-11 -3.74519236137239e-28 2.9420678490222e-08 -1.71613625138592e-27 2.94674171394651e-08)
(2.20009478302202e-08 1.28533973716811e-11 2.84080951257407e-29 2.1936757870494e-08 -2.37010180869705e-30 2.19686973229379e-08)
(1.84118837450714e-08 1.03517960904677e-11 -6.59195915155206e-28 1.83623847190548e-08 -1.29873125435217e-27 1.83870394211782e-08)
(1.67950227015744e-08 9.48545745264021e-12 2.32502307535682e-27 1.67520676183585e-08 3.82460964426143e-27 1.67734848277136e-08)
(1.68639214840975e-08 9.7445509297112e-12 2.38167949125936e-27 1.6821726644392e-08 4.34764468173264e-27 1.68427815985435e-08)
(1.82231611279933e-08 1.09462633725727e-11 -5.3550318298215e-27 1.81772912668369e-08 -8.47092987888208e-27 1.82002035197493e-08)
(2.10603014313354e-08 1.35607992313309e-11 4.85477749177373e-28 2.1004673160694e-08 -1.19771472542725e-28 2.10324824786888e-08)
(2.57771406213733e-08 1.84465199244801e-11 7.06344926747542e-28 2.57023807742383e-08 -1.64078024926755e-28 2.57397787913329e-08)
(3.28802024761082e-08 2.68872824706522e-11 -2.56272357450008e-27 3.27722110097354e-08 -3.78538369001607e-27 3.28262402120716e-08)
(4.28428290150867e-08 4.11080767513219e-11 -1.72768100911736e-26 4.26824231742723e-08 -2.69653436104693e-26 4.27626776325757e-08)
(5.63492393967524e-08 6.52715435915665e-11 1.61333168503542e-26 5.61093926447644e-08 2.25995517884033e-26 5.62293852626226e-08)
(7.41656535512424e-08 1.05520963820857e-10 1.27942719576263e-26 7.38116030845064e-08 2.25943359213804e-26 7.39887077684796e-08)
(9.67611775316197e-08 1.69802232289093e-10 -5.79209727321535e-27 9.62564371346264e-08 4.22723550665379e-28 9.65089123601334e-08)
(1.24237710762317e-07 2.67040669058014e-10 -5.85066785413473e-26 1.23555168467096e-07 -1.11492235685128e-25 1.2389661123945e-07)
(1.56581087616579e-07 4.0933579318281e-10 -6.72297089480188e-26 1.55707010408162e-07 -1.54763460884271e-25 1.56144504726998e-07)
(1.94387716146834e-07 6.09052718713056e-10 -8.73105592369108e-26 1.93320602567046e-07 -2.09868448612724e-25 1.93854980501796e-07)
(2.36753567052212e-07 8.66554025556958e-10 8.0204202042513e-25 2.35532749350887e-07 -1.24362815190305e-25 2.36144494684801e-07)
(2.8147783207765e-07 1.16909275488491e-09 5.3913717088785e-25 2.80195547549271e-07 -4.92689162929929e-24 2.80838637539996e-07)
(3.26377468149417e-07 1.50014622762559e-09 -1.4431765348562e-24 3.25164983498939e-07 -5.46204743028788e-24 3.25774050315661e-07)
(3.71259233190627e-07 1.84444856910326e-09 -1.4679759647215e-24 3.70272141784082e-07 7.85747843698546e-26 3.70769943157521e-07)
(4.20936505700851e-07 2.23384366051567e-09 -5.35161266364363e-27 4.20296121159198e-07 -6.21050787765993e-26 4.20617151671257e-07)
(4.98124222129438e-07 3.21746832968449e-09 2.33763179537107e-24 4.97847386589898e-07 -1.20819991087233e-25 4.97995325866844e-07)
(6.53310102979788e-07 5.3629103189594e-09 6.16630361852624e-24 6.53093940935372e-07 -1.21113764821522e-23 6.53207320274132e-07)
(8.24056099083441e-07 7.82696466683308e-09 6.38495451286591e-25 8.23838450018149e-07 -1.31680602504173e-23 8.2395582078989e-07)
(9.92663601114644e-07 1.04743713314408e-08 -4.71921462566038e-24 9.92448678998944e-07 2.69126986492266e-25 9.92565174118828e-07)
(1.15681972187468e-06 1.31700541968829e-08 -1.69255024152784e-29 1.15661184959385e-06 -1.80639398200128e-28 1.15672671694269e-06)
(1.31752161848469e-06 1.58978239454568e-08 -1.17941629915862e-28 1.31732259662538e-06 -1.7998980594279e-27 1.31743423218171e-06)
(1.47429911071792e-06 1.86058612606716e-08 -5.84124982172099e-30 1.47411033818994e-06 2.30983274515638e-27 1.47421839448914e-06)
(1.6277787611065e-06 2.12806446425904e-08 -8.34272389465958e-24 1.62760128141562e-06 3.84256861984328e-25 1.62770498994198e-06)
(1.77788711104572e-06 2.38955614023228e-08 -2.25816052585579e-23 1.77772220495949e-06 2.9641698921302e-23 1.77782092920065e-06)
(1.92476606030397e-06 2.64335841298443e-08 -4.72388187226709e-24 1.92461516498199e-06 2.95880719145141e-23 1.92470802171875e-06)
(2.06830410126494e-06 2.88737942517721e-08 1.09933138423005e-23 2.06816883555752e-06 -4.64904781165733e-25 2.06825489726481e-06)
(2.20848149047075e-06 3.11990006127915e-08 -2.42096081485801e-42 2.20836353497575e-06 1.93241438855174e-27 2.20844179298681e-06)
(2.34538500547174e-06 3.33945140340205e-08 0 2.34528602753329e-06 2.18083866236912e-27 2.34535549129628e-06)
(2.4793539333791e-06 3.54509937612675e-08 1.71218430396455e-28 2.47927557316484e-06 -2.30877911546574e-27 2.47933523514493e-06)
(2.61092923481245e-06 3.73634693823732e-08 -5.63177334890257e-29 2.61087304786061e-06 -5.27794479644672e-28 2.61092193335403e-06)
(2.73869930046184e-06 3.91007037515353e-08 1.8642877221621e-23 2.73866676045884e-06 -5.49174619785599e-25 2.73870391842833e-06)
(2.86026013596714e-06 4.06189704119476e-08 4.33962123625878e-23 2.86025250830307e-06 -5.92662929994946e-23 2.86027708505618e-06)
(2.97443559261e-06 4.18951620477523e-08 3.76477866238346e-24 2.97445380940973e-06 -5.97526696615659e-23 2.9744651147674e-06)
(3.08075340437179e-06 4.29192186579284e-08 -2.17328722173607e-23 3.08079802975656e-06 5.49295419424128e-25 3.08079556539815e-06)
(3.17880636211144e-06 4.36851286420686e-08 -3.77522294392271e-39 3.17887756983399e-06 7.95152097162888e-41 3.17886104094134e-06)
(3.2682645175906e-06 4.41911209977047e-08 -3.90208711438587e-39 3.268362055889e-06 1.15727479978967e-38 3.26833139731219e-06)
(3.3489128176784e-06 4.44401141863162e-08 2.62284128346822e-23 3.34903602227375e-06 -4.39898514629446e-25 3.34899139523593e-06)
(3.42065803538971e-06 4.44393716221286e-08 5.20681202304492e-23 3.42080589068855e-06 -8.26638344049677e-23 3.42074765401651e-06)
(3.48350573964099e-06 4.41996649573267e-08 -2.92349800326177e-24 3.48367694524995e-06 -8.46326806448816e-23 3.48360562303208e-06)
(3.53753564473225e-06 4.37344644762221e-08 -2.85567010856459e-23 3.53772867107656e-06 3.61811662502252e-25 3.53764492466671e-06)
(3.5828836675248e-06 4.30593026518547e-08 -1.19915819434911e-28 3.58309679871315e-06 -9.39987686118668e-28 3.58300140648379e-06)
(3.61973547920082e-06 4.21913108187998e-08 8.37176966657088e-29 3.61996685815666e-06 -7.0531785363603e-31 3.61986069023799e-06)
(3.64831159129088e-06 4.1148699759018e-08 -2.32616614638047e-29 3.64855925303215e-06 -6.62425309724564e-28 3.64844325744575e-06)
(3.66886802810063e-06 3.99504225542215e-08 1.50089384492114e-29 3.66912994895822e-06 4.03667976037201e-28 3.66900511972616e-06)
(3.68166550493977e-06 3.86155733280434e-08 3.19173930812652e-29 3.68193961542881e-06 2.66826913093753e-28 3.68180699251813e-06)
(3.68698641791937e-06 3.71633539759043e-08 -2.35383092101912e-29 3.68727064538002e-06 0 3.68713128146646e-06)
(3.68510385997341e-06 3.56126269825342e-08 0 3.68539609880461e-06 0 3.6852510811959e-06)
(3.67634669618353e-06 3.39825805565391e-08 6.01759648176737e-39 3.6766448339707e-06 -7.59732286571612e-28 3.67649526886211e-06)
(3.66111562287202e-06 3.22923742070637e-08 1.05967021309622e-28 3.66141761325994e-06 -7.88471289716898e-28 3.6612645841595e-06)
(3.63984129533538e-06 3.05603837053841e-08 -7.94882499593449e-29 3.64014519543876e-06 2.74490839588118e-27 3.63998974539541e-06)
(3.61297431957106e-06 2.88038770413771e-08 -1.30393617846907e-28 3.61327833153557e-06 -1.19017329606397e-27 3.61312143718288e-06)
(3.58095331931906e-06 2.70385770287348e-08 1.03793358511062e-28 3.58125580209731e-06 3.24990359939301e-27 3.58109836652733e-06)
(3.54419576016059e-06 2.52786244359516e-08 4.05156252184225e-42 3.54449523414817e-06 -3.23396300562767e-27 3.54433808535437e-06)
(3.50309280292412e-06 2.35364824260059e-08 -6.39198021934291e-39 3.50338796392421e-06 -1.21167329632253e-40 3.50323183958321e-06)
(3.45795697370894e-06 2.18227579805886e-08 -1.92709137045831e-39 3.45824666047514e-06 2.49460351048287e-38 3.4580922339778e-06)
(3.40903657115887e-06 2.01464301503145e-08 6.22035110473469e-39 3.40931976629062e-06 1.31015447278106e-40 3.4091676281401e-06)
(3.356438832237e-06 1.85148787811941e-08 -4.00953521099257e-23 3.35671454927135e-06 -1.01340462659079e-24 3.35656528483249e-06)
(3.30031035654684e-06 1.69352790945501e-08 -8.91363009616401e-23 3.30057765529834e-06 1.58706451467574e-22 3.30043181374326e-06)
(3.24084056373103e-06 1.54145603619108e-08 -1.7879833203029e-23 3.24109856211417e-06 3.30855868959167e-22 3.2409566856031e-06)
(3.17833102456735e-06 1.39589196804628e-08 6.91713497656288e-23 3.17857901589477e-06 1.72388732699939e-22 3.17844151484148e-06)
(3.11293014182303e-06 1.257341370353e-08 3.80509365271143e-23 3.1131674674106e-06 1.20697201541663e-24 3.11303479557195e-06)
(3.04499445890435e-06 1.12618774838935e-08 -4.14207219973096e-28 3.04522073370657e-06 -1.39587089613214e-29 3.04509308561913e-06)
(2.9743199695243e-06 1.00271039279653e-08 0 2.97453463967702e-06 0 2.97441248494454e-06)
(2.90118763943139e-06 8.87013855535875e-09 -3.79769232808005e-23 2.90139050283364e-06 -1.51318854543626e-24 2.90127381360623e-06)
(2.82470621791107e-06 7.79422964792644e-09 -4.14136802749102e-23 2.82489644919185e-06 1.6481010516541e-22 2.82478603026138e-06)
(2.74559278184398e-06 6.79757572036243e-09 3.22054830634822e-23 2.74577040377942e-06 1.74920143951089e-22 2.74566579278499e-06)
(2.66179279291231e-06 5.88862072366574e-09 3.49696200451368e-23 2.66195634199569e-06 1.54680196964195e-24 2.66185916642961e-06)
(2.57530731825078e-06 5.05707874387583e-09 -2.37149251661538e-29 2.57545730910034e-06 -1.05070963663427e-26 2.57536607487648e-06)
(2.48077750261072e-06 4.32675157219488e-09 3.68346431002243e-28 2.48091091206569e-06 -2.08480813153424e-29 2.48082925228949e-06)
(2.38295111686644e-06 3.66296506078175e-09 7.3309606853599e-28 2.38306941507443e-06 2.18277809518909e-30 2.38299349605729e-06)
(2.26891921847541e-06 3.13341256589836e-09 3.44572476402266e-29 2.26901566852453e-06 2.19188799064773e-27 2.26895386447851e-06)
(2.15211345401505e-06 2.64379854124756e-09 -6.55771614030479e-28 2.15219201890072e-06 1.08582064935704e-26 2.15213498649254e-06)
(1.99956522806501e-06 2.35964470860748e-09 -6.30496381629412e-28 1.99961194336258e-06 -5.09308538702838e-27 1.99957821971654e-06)
(1.84363703906307e-06 2.04167787002051e-09 -9.64290219859893e-27 1.84366057869004e-06 2.39376562804449e-27 1.84362915486707e-06)
(1.66105022732957e-06 2.13206583012705e-09 -6.79699075970962e-26 1.66108878225761e-06 2.67189147306189e-26 1.66106453247028e-06)
(1.73935714147917e-06 2.39709220881424e-09 1.34367321551599e-25 1.74001379637225e-06 -7.99543320458023e-25 1.73967760076397e-06)
(1.89123822530686e-06 2.24919025751671e-09 -1.94142159865123e-25 1.89247138003294e-06 8.67357569645464e-25 1.89186524914145e-06)
(2.09121827906031e-06 1.92708264044169e-09 4.44831775912857e-25 2.09284547739844e-06 -1.87288586611827e-24 2.09205074673176e-06)
(2.28992128245948e-06 1.18848707725851e-09 4.00685964098235e-25 2.29134360774337e-06 -8.66614995955642e-25 2.2906670931892e-06)
(2.49635079200333e-06 1.93546236961318e-10 -2.03247664253167e-24 2.49681438352765e-06 5.86720815268548e-24 2.49662867498505e-06)
(2.70441247828185e-06 -1.07423974633046e-09 1.59637175551566e-27 2.70283615260591e-06 -8.2085474365886e-27 2.70367993448176e-06)
(2.92507297876909e-06 -2.51520903801324e-09 4.21122146970034e-28 2.92019536508969e-06 -5.61809093777939e-29 2.92269497273215e-06)
(3.17633935839417e-06 -4.20615319298674e-09 3.51265053446345e-25 3.16640138557523e-06 3.25035361170307e-26 3.1714237659406e-06)
(3.40924067064756e-06 -6.06146697855665e-09 7.67817949405695e-25 3.39247795194364e-06 -1.62429412540018e-24 3.40089376570499e-06)
(3.60586737131567e-06 -7.96209432687085e-09 -6.86011523202758e-25 3.58096080024772e-06 -4.84751204186009e-26 3.59341564411549e-06)
(3.7525396559437e-06 -9.84673871124688e-09 2.49648178841701e-24 3.71874246485216e-06 -3.6772783862785e-24 3.73559938314078e-06)
(3.83525363517472e-06 -1.16419028156011e-08 -1.51774166589009e-24 3.79265893828669e-06 3.51260382398901e-24 3.81386706692527e-06)
(3.82764076499643e-06 -1.32031438120827e-08 -4.95406560469731e-24 3.77757367556808e-06 7.58446201896426e-24 3.80247459454151e-06)
(3.71955540625884e-06 -1.41766112894771e-08 2.40353700557686e-24 3.66476158006694e-06 -3.9426263201062e-24 3.69200441416398e-06)
(3.6011457987209e-06 -1.46721783578398e-08 5.92797379982391e-25 3.54311664142675e-06 -1.03672460919851e-24 3.5719581064064e-06)
(3.49706513581369e-06 -1.49261333840218e-08 -1.61387877018343e-24 3.43618029928348e-06 2.24265570217593e-24 3.46643107820639e-06)
(3.42137377791005e-06 -1.50686472746656e-08 -1.5762054620006e-25 3.35742180339021e-06 -9.23304699876771e-27 3.38918483937588e-06)
(3.40237727321087e-06 -1.53416476111973e-08 -2.20479236987387e-28 3.33405403770002e-06 4.3526062614484e-28 3.36796855671474e-06)
(3.48795853547233e-06 -1.60912161582884e-08 -9.68734825187648e-26 3.41216539346253e-06 -2.09176639585874e-27 3.44975886187362e-06)
(3.75116856300297e-06 -1.83943526490321e-08 2.33240019011771e-24 3.66088072171554e-06 -3.28281462017852e-24 3.70559273905246e-06)
(4.06897578718969e-06 -2.28947676016434e-08 -1.76896261760633e-24 3.95935591190671e-06 2.94850294675477e-24 4.01358199314752e-06)
(4.50237815178272e-06 -3.11341274767544e-08 -9.69317538710119e-25 4.36745854291186e-06 4.95629002405657e-25 4.43414364134505e-06)
(5.07684780831186e-06 -4.58802493957065e-08 -1.85491424014994e-25 4.90926718236447e-06 -2.06274483440763e-29 4.99203556606147e-06)
(5.72489056995906e-06 -7.06791541682165e-08 1.03786888637773e-24 5.52276154341227e-06 -3.14115164917203e-25 5.62255045277168e-06)
(5.90354694245114e-06 -1.00721369970908e-07 8.43776367130133e-27 5.69726413488898e-06 1.02321821225148e-29 5.79905959170101e-06)
(4.88019795794502e-06 -1.03477851405278e-07 -6.92149559608117e-25 4.7474224080623e-06 -4.01704529365557e-25 4.81306467737435e-06)
(3.71738392839217e-06 -7.43804446474039e-08 -2.31770796976322e-25 3.66515786815571e-06 1.74062025361092e-26 3.69107610224494e-06)
(2.77780154348035e-06 -4.17678412594959e-08 7.43325081384263e-27 2.76447809764595e-06 -1.27203392379098e-28 2.77107435299241e-06)
(2.11530528384937e-06 -2.04190989081058e-08 3.94687974632199e-27 2.1136834370013e-06 3.03473033181838e-27 2.11451682056799e-06)
(2.03724241226345e-06 -1.47093490134183e-08 -3.89132522766178e-28 2.03715574476099e-06 4.44751073536694e-30 2.03717376447616e-06)
(6.97903022127672e-05 -3.56808650950239e-06 1.44557035528989e-26 6.98478489151084e-05 6.08943268592146e-29 6.9823354158254e-05)
(6.9842879620942e-05 -3.75002369987954e-06 -7.74203130732037e-25 7.00000921947458e-05 2.35290755934037e-25 6.99160068817e-05)
(5.03999110966485e-05 -2.45968199344387e-06 7.14153034205395e-24 5.08708460487721e-05 3.68132713771444e-24 5.0639352826019e-05)
(2.81100484033059e-05 -8.03304712881536e-07 -2.63326211798247e-25 2.84413330916872e-05 -6.9526335696489e-24 2.8277499621246e-05)
(1.19941713453174e-05 -4.18646869108293e-08 -5.39883503535152e-25 1.19720386028474e-05 1.91402320249136e-24 1.19846344281992e-05)
(4.26324651405168e-06 3.4707767918561e-08 1.62426656306684e-25 4.18073303572959e-06 3.2498332717246e-24 4.22256128054921e-06)
(2.86284563194253e-06 2.18594175008216e-08 9.71217701993916e-25 2.79986978558192e-06 1.42934310040297e-24 2.83166632318258e-06)
(2.38277376634756e-06 1.34752996168631e-08 1.2619218067474e-24 2.33423304505396e-06 1.88496708230163e-24 2.35869804276747e-06)
(1.5275874752369e-06 6.60364013190335e-09 1.16035916942991e-24 1.49942194103883e-06 1.73193150699392e-24 1.51359597977877e-06)
(9.77262633898372e-07 3.46467065982447e-09 -5.42524424973253e-25 9.60846996054497e-07 -6.07261044064184e-25 9.69102280804687e-07)
(7.25360064203279e-07 2.32833761409013e-09 5.08184471439142e-25 7.1402253096208e-07 7.60279254165655e-25 7.1971788606096e-07)
(6.0483076953589e-07 1.89868351705767e-09 -3.03802037906538e-25 5.95967804725697e-07 -4.81830644339991e-25 6.00415652867637e-07)
(5.49917918270674e-07 1.7510807382731e-09 -3.0127362221533e-25 5.42132977401099e-07 -7.36996135986246e-25 5.46036556199076e-07)
(5.5048269730734e-07 1.8114532489941e-09 4.32435042320768e-25 5.42741735599794e-07 8.29765139474743e-25 5.46619203509508e-07)
(5.93380628625619e-07 2.0497140039445e-09 8.54445740821623e-25 5.84843771244592e-07 1.59046294169247e-24 5.89116177325333e-07)
(6.84350870941688e-07 2.54654743820649e-09 -1.35773751617819e-24 6.73864541006577e-07 -2.41799536008592e-24 6.79107802269391e-07)
(8.3651067165287e-07 3.45413640612454e-09 -9.92096928363507e-26 8.2231756920919e-07 -1.78362279045055e-26 8.29411630298751e-07)
(1.06669235668307e-06 5.00785795182668e-09 1.20004545406724e-25 1.04617013644023e-06 6.74667898300541e-25 1.0564258053168e-06)
(1.3907028208314e-06 7.62867305516524e-09 1.51440500803407e-24 1.3602491099152e-06 1.98378872203045e-24 1.37546832524278e-06)
(1.83124777742454e-06 1.20732914986965e-08 -1.72450847575679e-24 1.7858398857678e-06 -4.24936342499734e-24 1.80853651174973e-06)
(2.4140707613116e-06 1.94870820333772e-08 4.81408177329191e-25 2.34729110667217e-06 1.89145643899002e-24 2.38067788688976e-06)
(3.15530236156095e-06 3.14148422829467e-08 3.61293147057399e-24 3.06032241225535e-06 8.56921369971956e-24 3.10781988456412e-06)
(4.05850938421199e-06 4.97617401719324e-08 7.49730953766711e-24 3.92968385839792e-06 2.04973041728793e-23 3.99409457469748e-06)
(5.12189811265078e-06 7.69333361417592e-08 1.74575667605264e-23 4.95583843327068e-06 4.45890735482053e-23 5.03886061965041e-06)
(6.36388964148024e-06 1.15326222075034e-07 8.25007838793138e-24 6.15991812856913e-06 1.56180103809323e-23 6.26187766766039e-06)
(7.75349305231557e-06 1.65685302857435e-07 -2.02525796284624e-22 7.51834418257547e-06 8.79967873581998e-23 7.63586509039484e-06)
(9.21556438176449e-06 2.26565506199456e-07 -9.7646579340305e-22 8.96560601510247e-06 -2.17724652527353e-21 9.09046526656242e-06)
(1.06745706644978e-05 2.95259350507485e-07 -3.38149297179322e-22 1.04342901223425e-05 -2.75339059944899e-21 1.05543042206124e-05)
(1.21218254504341e-05 3.7102832818362e-07 3.98523197073202e-22 1.19187410617543e-05 -3.72651408342586e-23 1.20202902813895e-05)
(1.37188302081504e-05 4.69540901306717e-07 3.13389757920297e-24 1.35672760545432e-05 1.11651235669746e-23 1.36417126205472e-05)
(1.61871720369752e-05 6.48553658989209e-07 -6.16515221497372e-22 1.60914982742895e-05 3.20244732368262e-23 1.61398255759495e-05)
(2.11925301896404e-05 9.97822447774046e-07 -1.3625662755254e-21 2.10977214725961e-05 -6.61219930915723e-21 2.11438125813522e-05)
(2.67017444511135e-05 1.39675137255455e-06 2.0440578786757e-22 2.66095331877855e-05 -8.58774428736533e-21 2.66545737774321e-05)
(3.21422750232961e-05 1.81212353599469e-06 1.20828884867392e-21 3.20544639045188e-05 -6.87075675762824e-23 3.20967701419742e-05)
(3.74360856672025e-05 2.22709245373961e-06 -5.19406245121087e-26 3.73548046494256e-05 -1.29474448160344e-25 3.73936878797774e-05)
(4.26171168554318e-05 2.63920963881711e-06 2.60376861462947e-26 4.25428786748399e-05 1.33039943331005e-25 4.25779233354167e-05)
(4.766988137629e-05 3.04212047595803e-06 6.11143340180501e-26 4.76033232938414e-05 -1.70436582475521e-25 4.763433342541e-05)
(5.26151307186143e-05 3.43402504758655e-06 2.10632678687225e-21 5.25566093405086e-05 -9.72192017261487e-23 5.25833887071219e-05)
(5.74504398169981e-05 3.8115283170875e-06 4.76781187848212e-21 5.74004615186991e-05 1.9734357194372e-20 5.74228131729089e-05)
(6.21805902805462e-05 4.17239993595604e-06 1.6058938502703e-22 6.21396644166809e-05 2.23676043625905e-20 6.21573576860969e-05)
(6.68020565464684e-05 4.51396568163865e-06 -2.72470735818689e-21 6.67707519316646e-05 1.14490223494521e-22 6.67835464347533e-05)
(7.13143436708014e-05 4.83407756007593e-06 1.20156123047022e-25 7.12932190994146e-05 1.02016279615545e-26 7.13008726677821e-05)
(7.57203607312315e-05 5.13100873960014e-06 -1.86087516014332e-26 7.5709960397916e-05 1.72939160974789e-26 7.57122406850485e-05)
(8.00311716366569e-05 5.40381601324849e-06 -1.40524992328072e-25 8.00319994747857e-05 -1.25444287828373e-26 8.00286877456957e-05)
(8.42645364072063e-05 5.65222191205815e-06 2.58595053202744e-26 8.42770126634326e-05 -3.95641429580285e-25 8.4267941645031e-05)
(8.83593550752591e-05 5.87106998261566e-06 -4.65245159767483e-21 8.83838109523685e-05 1.3760229008415e-22 8.83688636550079e-05)
(9.22280719181035e-05 6.05383064956918e-06 -9.26689046045201e-21 9.22647039229143e-05 -4.22909368993629e-20 9.22438284954015e-05)
(9.58581707248687e-05 6.19941983889332e-06 6.69535781970756e-22 9.59070132754042e-05 -4.5839412747951e-20 9.58802341669371e-05)
(9.92352321450202e-05 6.30704830552307e-06 5.36961182692484e-21 9.92961556529304e-05 -1.3571621603093e-22 9.92635769041771e-05)
(0.000102346923453762 6.37648839265405e-06 9.39872483698554e-37 0.000102419628457537 -1.97959587431569e-38 0.000102381434632319)
(0.000105183430952457 6.40808372691988e-06 3.47093735685526e-26 0.000105267445995514 -6.57956049615084e-28 0.000105223903396301)
(0.000107738571811708 6.4027820482334e-06 -6.57162871726781e-21 0.000107833269881335 1.10745736800167e-22 0.000107784717521872)
(0.000110009939692381 6.36207558567776e-06 -1.13977985609259e-20 0.000110114569963437 -5.83101726589042e-20 0.000110061403369089)
(0.000111998162009207 6.28788443339886e-06 2.37906719236555e-21 0.000112111880484687 -6.14158595767424e-20 0.000112054536361687)
(0.000113706131135176 6.18244855317849e-06 7.13572612631688e-21 0.000113828025329297 -9.01756525892651e-23 0.000113766969270118)
(0.000115138457169228 6.04824280029614e-06 -1.26577011209455e-36 0.000115267565715199 1.72745454383403e-25 0.000115203282851772)
(0.000116301254563171 5.88791658265656e-06 -1.14283229255602e-26 0.00011643658595735 7.22123197963192e-29 0.000116369571453391)
(0.000117201698658849 5.70422528301317e-06 3.39467445675648e-27 0.000117342246514656 -4.5160844633428e-27 0.000117272999030074)
(0.000117848005854026 5.49998961673464e-06 1.98171222160277e-26 0.00011799276580205 5.32665781396445e-26 0.00011792177827841)
(0.000118248536928056 5.27801953714346e-06 -1.16862208261925e-26 0.000118396513171248 -4.90218727272112e-26 0.000118324271629289)
(0.000118412257336597 5.04111485126228e-06 0 0.000118562472722209 0 0.000118489449532426)
(0.00011834790310173 4.79201299881196e-06 -1.32569590424033e-26 0.00011849939131639 -5.58446425118887e-29 0.000118426051207433)
(0.00011806595109899 4.53345603905865e-06 -2.0491426618852e-26 0.000118217769815243 -5.21621454312914e-27 0.000118144563274167)
(0.000117579062462496 4.2681478893053e-06 3.43065172409495e-26 0.000117730320543282 -5.01782833302872e-27 0.000117657670296915)
(0.000116900814244809 3.99866162096265e-06 2.62868797910566e-26 0.000117050686046726 2.87289912027564e-26 0.000116978981250048)
(0.000116045359028555 3.72740044977036e-06 3.03088264693455e-26 0.000116193097170984 2.23453194482454e-25 0.00011612268695343)
(0.000115026459110918 3.4565498029101e-06 -3.58695042747309e-26 0.000115171396984062 -7.14718354592738e-25 0.000115102589841847)
(0.000113857205888027 3.18807148236714e-06 -7.69286850248273e-26 0.000113998757859872 4.6986328090653e-25 0.000113931822434)
(0.000112549822108014 2.92369936878241e-06 5.57412641597021e-26 0.000112687483689039 9.39235298222378e-28 0.000112622647567499)
(0.000111114095993222 2.66492067633982e-06 3.55110514590519e-37 0.000111247430543206 1.38511327770711e-35 0.000111184889519546)
(0.000109557725496015 2.41301560697833e-06 -1.66133728950183e-36 0.000109686353382256 -3.49917302757262e-38 0.000109626273096832)
(0.000107884111873707 2.16906935229978e-06 1.07999006393414e-20 0.000108007671421307 2.72966034688393e-22 0.000107950211323233)
(0.000106097834848206 1.93412461808485e-06 2.3410248281256e-20 0.000106215985742072 8.72258368685138e-20 0.000106161292044125)
(0.00010420491439037 1.70915896377808e-06 3.5799750490615e-21 0.000104317354133415 1.72328401263696e-19 0.000104265560335182)
(0.000102214642348568 1.49504309575494e-06 -1.94782726882754e-20 0.000102321132421875 8.48630203820724e-20 0.000102272331550033)
(0.000100131860299018 1.29248121624701e-06 -1.04546376190641e-20 0.000100232207307563 -3.31186272974011e-22 0.000100186487727157)
(9.79673119652636e-05 1.10202764111024e-06 0 9.80613948676164e-05 -1.05775955346687e-24 9.80187820177322e-05)
(9.57151892408189e-05 9.24119923687239e-07 1.18057369899723e-25 9.5802874799083e-05 -7.1293170696763e-27 9.57634475818172e-05)
(9.33832110128526e-05 7.59003296573665e-07 1.05191859741491e-20 9.34643980589208e-05 4.20995316340128e-22 9.34281424391135e-05)
(9.09449887489213e-05 6.07239541245328e-07 1.12687876609098e-20 9.10194901313134e-05 8.1891555878204e-20 9.09865626298356e-05)
(8.84201673795264e-05 4.68702720811524e-07 -9.26279091056211e-21 8.84878498693582e-05 7.91229632609392e-20 8.8458172436133e-05)
(8.57483595203007e-05 3.44745182222766e-07 -9.87914588816557e-21 8.58089342186531e-05 -4.359397647844e-22 8.57828404684717e-05)
(8.29855596988496e-05 2.340729237227e-07 -9.06275338624967e-27 8.30387897290888e-05 -2.37975748912776e-25 8.30160518635683e-05)
(7.99733926273224e-05 1.40473081366342e-07 1.03526178263347e-25 8.00187398766905e-05 1.21437114736995e-26 8.00001250476951e-05)
(7.68444708401974e-05 5.93335869118209e-08 -1.04386725535792e-25 7.68813737990824e-05 1.21536878223156e-27 7.6866324917912e-05)
(7.32167145721532e-05 1.1989276365187e-09 1.96194560357555e-25 7.3244028281099e-05 -1.48260577488324e-24 7.32343491011977e-05)
(6.94746539370162e-05 -4.70820762690097e-08 6.073659521554e-27 6.94912385244391e-05 6.73152533769827e-26 6.94855247594682e-05)
(6.46326012756321e-05 -5.93449126269476e-08 1.32975988025766e-27 6.4636303565641e-05 -3.92062519780467e-26 6.46385403282015e-05)
(5.96319740563974e-05 -6.86351081769348e-08 2.60304924847351e-24 5.96201404275099e-05 1.43820825560585e-24 5.96270896744352e-05)
(5.37993042134843e-05 -1.68312317004669e-08 -2.51174940353351e-25 5.37691409200376e-05 1.90701316084285e-23 5.37877748527874e-05)
(5.63588498710856e-05 -6.59704662273485e-09 -1.22473546490275e-23 5.63636242453344e-05 1.4879364137215e-22 5.6360755663425e-05)
(6.1268230643342e-05 -6.47797671048019e-08 -6.86329835869932e-24 6.12727105636403e-05 5.31219471531617e-23 6.12703867986645e-05)
(6.77031218247933e-05 -1.60134051219408e-07 -1.13709275718674e-22 6.76519629817824e-05 3.42263368013328e-22 6.76744225134154e-05)
(7.4160080798873e-05 -3.02608268108493e-07 7.75263638355826e-23 7.39539710930527e-05 9.41444968285234e-23 7.40527778984195e-05)
(8.09040713855735e-05 -4.7526358994755e-07 4.01792616899304e-23 8.04196167862522e-05 3.86487749158217e-23 8.06556480174408e-05)
(8.77656120221985e-05 -6.73970605090144e-07 2.46022455110686e-22 8.68464613085095e-05 -9.60214494940703e-22 8.72989374681414e-05)
(9.50990573509881e-05 -8.89541569596495e-07 -5.78884665199372e-25 9.35645255356738e-05 1.84721674537696e-24 9.43248659239088e-05)
(0.000103438855578317 -1.13191079719875e-06 -9.79674859801448e-23 0.000101051427524902 -8.0119590663313e-24 0.000102239478432147)
(0.000111256573957307 -1.38375324422893e-06 4.22063184036594e-22 0.000107799610132353 -7.70910896869749e-22 0.000109526708151717)
(0.000117970365198867 -1.63270942565388e-06 9.94541984151787e-23 0.000113289065382119 6.16160272245975e-24 0.000115634470359038)
(0.000123120343883383 -1.87196484632505e-06 -4.01927191486515e-22 0.00011714071154553 6.83890446340568e-22 0.000120143101778368)
(0.000126224733430023 -2.09428488312115e-06 4.64732149082618e-22 0.000118982467702539 -6.36848039119611e-22 0.000122624597225841)
(0.00012641741934581 -2.28196812930381e-06 6.54044676918319e-22 0.000118108475649266 -1.30688214291702e-21 0.000122291172206254)
(0.000123368113019409 -2.39635589975179e-06 -5.26328703886245e-23 0.000114358223325762 2.23551852466663e-24 0.000118896531117009)
(0.000119876563490572 -2.45346807516008e-06 3.97930483791078e-22 0.000110363209096639 -4.71214263616704e-22 0.000115155139979355)
(0.000116785819067743 -2.4746263615417e-06 3.11655115740441e-22 0.00010683967187913 -4.12421187619401e-22 0.000111851035738848)
(0.000114601282695106 -2.47964873549282e-06 -1.03191353241035e-25 0.000104198903156812 1.79803746419966e-25 0.000109442376125942)
(0.000114284544469957 -2.5027594498149e-06 7.21168521666584e-26 0.000103247935576857 -8.13562565000838e-26 0.000108814283592172)
(0.000117438709023592 -2.59494519605912e-06 -2.57832562376744e-23 0.000105340053256099 -7.27720733438585e-25 0.000111448318487533)