/*--------------------------------*- C++ -*----------------------------------*\
  =========                 |
  \\      /  F ield         | OpenFOAM: The Open Source CFD Toolbox
   \\    /   O peration     | Website:  https://openfoam.org
    \\  /    A nd           | Version:  7
     \\/     M anipulation  |
\*---------------------------------------------------------------------------*/
FoamFile
{
    version     2.0;
    format      ascii;
    class       volVectorField;
    location    "20000";
    object      U;
}
// * * * * * * * * * * * * * * * * * * * * * * * * * * * * * * * * * * * * * //

dimensions      [0 1 -1 0 0 0 0];

internalField   nonuniform List<vector> 
15600
(
(0.0341369124189466 -4.33446689921605e-05 0)
(0.0413154373852038 -0.0004794673654987 1.04391962028582e-20)
(0.035694575454587 -0.0024541193266546 7.51651556735041e-20)
(0.0115505881921991 -0.0021622578601001 -7.94824640654695e-19)
(-0.00934150638674956 0.0021858851278502 -1.40197567584432e-18)
(-0.016216542673711 0.00641460335140722 2.55670655258749e-21)
(-0.0134853646176444 0.00679018139622431 1.97280420260183e-18)
(-0.0107008169171173 0.00616925201887504 0)
(-0.00861407131293129 0.00538990340651072 4.59852392690259e-18)
(-0.00713445557066104 0.00467557625034789 -2.4563174792973e-18)
(-0.00617817019838141 0.00410257913641618 3.16666216814824e-22)
(-0.00543735091742951 0.0035686543827318 -2.80632585173731e-18)
(-0.00497154081859818 0.00320574096605651 0)
(-0.00468265336529979 0.00297478313601869 -2.29008421730319e-22)
(-0.00453255432343142 0.00284966833914331 3.30852873004265e-18)
(-0.00458067496733803 0.0028595263525729 1.69389096484774e-21)
(-0.00485953925287977 0.00301894937328112 -5.87066970022056e-23)
(-0.00534139608937755 0.00330239941745863 -3.74344966086612e-18)
(-0.00595066093275551 0.00362839717041334 3.89145060509678e-18)
(-0.00668129267429272 0.00395690398690094 0)
(-0.00749161117189813 0.00423791870831111 -4.23505042581139e-18)
(-0.00830300933415328 0.00440232501857032 4.29819803230805e-21)
(-0.00902451853031036 0.00438484857490759 4.61862294339952e-18)
(-0.00970451204420915 0.00420314639577 4.82074626056221e-18)
(-0.0104031570914831 0.00391582533255155 5.02409417724344e-18)
(-0.011023869865344 0.00350604830956497 1.03712616291197e-17)
(-0.0115022201720335 0.00296995173154846 -4.15532552706271e-16)
(-0.0118843133841892 0.00234031389614709 -4.33553055814228e-16)
(-0.0121615067971309 0.00162761539939049 -1.39108157921495e-18)
(-0.0122674379133446 0.000848027432577418 1.40210844996094e-18)
(-0.0150849898882603 0.000230253757710134 -1.73453549526792e-19)
(-0.0200206097402067 9.1264858001938e-05 -5.08306639230197e-16)
(-0.0236345625452063 9.24985627103716e-05 -5.16621959127629e-16)
(-0.0266325727725991 9.04744279535665e-05 0)
(-0.0290220045074786 9.06270536231388e-05 -5.6651462058748e-21)
(-0.0310007738429273 8.97264124175922e-05 5.6521212745917e-21)
(-0.0326256480866158 8.90521338771639e-05 4.25479271983433e-32)
(-0.0339753592624319 8.78843567898532e-05 6.08264923188191e-21)
(-0.0350879332725714 8.64307028365515e-05 5.5691117753517e-16)
(-0.0359978114530107 8.45172493542088e-05 5.77539867525667e-16)
(-0.0367261802257818 8.21831293484453e-05 0)
(-0.0372902912331596 7.94057388402008e-05 0)
(-0.0377027525952616 7.62261788574454e-05 0)
(-0.037973965736224 7.26548507096677e-05 0)
(-0.0381124778652289 6.87111699216568e-05 -7.50365162469603e-21)
(-0.0381258955962505 6.44166242897147e-05 7.50340365912713e-21)
(-0.0380208699285125 5.98229448357438e-05 -7.39660957320252e-16)
(-0.037803962473248 5.49791420825929e-05 -7.66499100726876e-16)
(-0.0374816491492229 4.99313693407835e-05 0)
(-0.0370604714962258 4.47230061177196e-05 0)
(-0.0365471582496167 3.94029983291835e-05 1.29041220963251e-31)
(-0.0359487505753857 3.40200945987635e-05 0)
(-0.0352724467564278 2.86182343835311e-05 -8.50972220074102e-16)
(-0.034525423682174 2.32357196176861e-05 -8.77102829948939e-16)
(-0.0337147184795812 1.79057504938416e-05 -2.51033206448442e-21)
(-0.0328471855160817 1.26585124821716e-05 2.51294404025852e-21)
(-0.0319294619879324 7.51926568164758e-06 -1.51935238351771e-31)
(-0.0309679631880556 2.51220802451487e-06 0)
(-0.0299688395681186 -2.34582349117973e-06 6.92772338075174e-22)
(-0.0289379913346814 -7.03600846234043e-06 -6.93655870669903e-22)
(-0.0278810597108074 -1.15491422447787e-05 0)
(-0.0268034826708395 -1.58706356904064e-05 0)
(-0.0257107048647153 -1.99878026655042e-05 0)
(-0.0246079881897114 -2.38949951094633e-05 -1.77903670153485e-31)
(-0.0235003107752884 -2.75886179893349e-05 -3.14482885507094e-21)
(-0.022392305190634 -3.10706963095615e-05 3.14927596068747e-21)
(-0.0212881865293804 -3.43451570441506e-05 0)
(-0.0201918094521781 -3.74164369549277e-05 0)
(-0.0191065919273813 -4.0294768009144e-05 0)
(-0.0180356153576749 -4.29846997854616e-05 1.98254907600814e-31)
(-0.0169815814202426 -4.55016398916908e-05 0)
(-0.0159470925985463 -4.78438997809912e-05 0)
(-0.0149348537673859 -5.0021488198954e-05 1.29794514053995e-15)
(-0.0139477837163857 -5.20276526513925e-05 2.62703940844836e-15)
(-0.0129882919068203 -5.38970428151215e-05 1.32812277648616e-15)
(-0.0120591956790449 -5.56000272053416e-05 -1.47800020822153e-20)
(-0.011161882129973 -5.72218279452872e-05 0)
(-0.0102995654994383 -5.86547356398367e-05 0)
(-0.00947206254796733 -6.01028965967768e-05 0)
(-0.0086858914184676 -6.1241134799246e-05 1.42229100270419e-15)
(-0.00793704992474561 -6.2616023481644e-05 1.42747388760461e-15)
(-0.00724122465665481 -6.33457995646581e-05 0)
(-0.00658236852907988 -6.48665316958815e-05 1.62022894176529e-20)
(-0.00600172821458248 -6.48575631195043e-05 1.48885551778212e-22)
(-0.00544908600393661 -6.70244113332188e-05 1.45918651824265e-22)
(-0.00503555006533616 -6.537541746363e-05 -3.32125741679527e-20)
(-0.00461951248074286 -6.93908518757525e-05 -1.41172783017185e-22)
(-0.00449198454299736 -6.3870506875171e-05 -1.40785074422181e-22)
(-0.00426652981920391 -7.28505047797586e-05 3.40960618583211e-20)
(-0.00472440614869455 -9.09769579935547e-05 5.67079136864831e-19)
(-0.00506180126657354 -0.000357684774591636 4.43594368957736e-18)
(-0.00468141568289331 -0.000574865489437834 -4.48077063459564e-18)
(-0.0041355409530569 -0.000718838018108918 8.86464700923482e-18)
(-0.00312658238781755 -0.000670898292597101 -8.75539564220594e-18)
(-0.00185303153871862 -0.000421926647154367 -6.6806331750027e-20)
(-0.000198477485922203 0.000110468215240341 3.30935047073638e-20)
(0.00179612562593642 0.00096281167595198 0)
(0.00433047586010575 0.00225207058820552 1.57156758738929e-20)
(0.00741398660632612 0.00399709056483401 -1.55198017944347e-17)
(0.0109278221772866 0.00611623023902613 -1.460754589443e-20)
(0.0148099534509254 0.00853032042972843 1.44101543198529e-17)
(0.0189405017020626 0.0111118808771158 -1.38209640821707e-17)
(0.0231332998496192 0.0136817999623475 -1.3297147408868e-17)
(0.0269377605279578 0.0159966148381963 1.24644941155418e-20)
(0.030381382661512 0.0181821606979821 -1.20792561208949e-17)
(0.0338607012601685 0.020494683838277 -1.14259494340962e-17)
(0.037526041769442 0.0230517641803265 5.15017289102554e-21)
(0.0417199756830737 0.0260744808008885 -2.55522183162405e-21)
(0.0469261139560755 0.0298877896591898 -2.26492162287202e-21)
(0.0546326774068361 0.0351327620511236 8.11979136678119e-18)
(0.064999184280078 0.0411582599669134 -7.02357134949699e-18)
(0.0775753705583623 0.0470130736260009 -1.15642059611101e-17)
(0.0931721021271995 0.0521454904248601 3.82239459366729e-23)
(0.11161867012052 0.0548262921950831 2.70363802847967e-18)
(0.13052169783389 0.051712993264979 -1.40972839991817e-23)
(0.133886903834369 0.0368855590134832 2.25441092384976e-18)
(0.106729066440008 0.0170696565020503 1.06968140402912e-18)
(0.0713842127429318 0.00510678218977647 9.71809325151873e-23)
(0.0414596878613467 0.0005573116721725 -8.33224355162093e-20)
(0.0301517610254717 -5.98258467123891e-05 -2.62352494544292e-23)
(0.114387640953259 -0.000365753143891818 0)
(0.129453735876148 -0.0014929160910441 -1.52372086779672e-20)
(0.115314016939504 -0.00661259293819945 1.09929739297536e-19)
(0.0527654367533904 -0.00662164400155815 5.84708859690661e-19)
(-0.0121591882032925 0.00488449963285552 2.09703433276266e-18)
(-0.0403307755450624 0.0174405274837104 5.38074465703227e-18)
(-0.0364812162996803 0.0190629046439994 0)
(-0.0295490731764524 0.0175437533052138 -2.54467203588109e-23)
(-0.0241399200164424 0.0154924302558779 -3.50909722088759e-18)
(-0.0202442843037873 0.0135610082536609 3.75561045549103e-18)
(-0.0176894657069182 0.0119723595030397 0)
(-0.0157472769068247 0.0104842326753563 4.29573701638346e-18)
(-0.0145344733060363 0.00947181306486636 -4.56240485029167e-18)
(-0.0138215021867071 0.00884030565286441 -4.82402874461459e-18)
(-0.0135184580053281 0.00852729513989135 5.05971154436296e-18)
(-0.0137776382275245 0.00861320499577093 3.13492537711029e-23)
(-0.0146744998224201 0.00913142958327909 -1.87400448993041e-22)
(-0.0161274294776224 0.0100012552049046 5.68212339253684e-18)
(-0.0179465335098454 0.0109920933691547 5.89756502558877e-18)
(-0.0201011778148658 0.011979176027591 -6.10335226564117e-18)
(-0.0224754706734019 0.0128113166303606 4.74177103502545e-23)
(-0.0248695614003024 0.0132909158241018 -6.41125536639005e-21)
(-0.0270911248429067 0.0132502581209673 6.86755562090132e-18)
(-0.0292564486110176 0.0127350915227348 7.10086976391561e-18)
(-0.0314786578628357 0.0118886745215416 7.35954040888417e-18)
(-0.0335278104080027 0.0106674936201043 -7.59513583356803e-18)
(-0.0352684453289581 0.00907127329359709 6.08099666890203e-16)
(-0.036799967197278 0.00718496934188274 6.19812366695369e-16)
(-0.0381984911764415 0.00505943766139382 1.98960680283708e-18)
(-0.0402144237604828 0.00290606574384681 1.5596244503906e-20)
(-0.0484282747844348 0.0012301630366534 -2.57676875171134e-19)
(-0.0607302599186504 0.000765643247865463 7.07676449600646e-16)
(-0.0697733790592076 0.000610724075046463 6.96504191802883e-16)
(-0.0771099823018197 0.000488401388290563 -7.52151300458198e-21)
(-0.0828888178873762 0.000398639130705941 7.44882630274522e-21)
(-0.087595250933344 0.000327307866192894 7.7232896394737e-21)
(-0.0913989728358124 0.000271256794846024 -1.55442858349728e-20)
(-0.0944927957620152 0.000224927191909006 7.82877042731495e-21)
(-0.0969770130796573 0.000185835759026718 -7.40319491350532e-16)
(-0.0989374005161802 0.000151671013661452 -7.53406548689747e-16)
(-0.100429091484298 0.000121180523813718 8.70131151251676e-21)
(-0.101496523547634 9.34263798294739e-05 -8.68138880284636e-21)
(-0.102172991094029 6.7859101215116e-05 -9.22549675142888e-21)
(-0.102486128961112 4.40099922042465e-05 9.21584793963826e-21)
(-0.102459275985233 2.16072370850977e-05 9.80590706856973e-21)
(-0.102113541343083 4.84044803775299e-07 -9.79887580479989e-21)
(-0.10146757010278 -1.94332508621449e-05 9.7048641474219e-16)
(-0.100539896226356 -3.81797117002375e-05 9.95820383756048e-16)
(-0.0993485437551715 -5.57671869535917e-05 0)
(-0.0979115601518904 -7.21907273539904e-05 0)
(-0.0962472695644157 -8.74125771750711e-05 -1.68919312416654e-31)
(-0.0943744414288109 -0.000101398985197969 -6.06690199317462e-21)
(-0.0923119227499018 -0.000114145304871116 1.12087466652517e-15)
(-0.0900782698480233 -0.00012567192775584 1.15158276375645e-15)
(-0.087691528582829 -0.000136013397884999 0)
(-0.0851691585439473 -0.000145207309980915 0)
(-0.0825279837556725 -0.000153298378244745 2.01644177375318e-31)
(-0.0797841790867253 -0.000160326891277468 1.80164184824007e-21)
(-0.0769532157754065 -0.000166347120145354 -1.8099430553959e-21)
(-0.0740498937639595 -0.000171395807934891 0)
(-0.0710883815150798 -0.000175525589792266 0)
(-0.0680823804358137 -0.000178748939440881 0)
(-0.065045473015034 -0.000181079092075921 2.05022475622324e-21)
(-0.06199070864234 -0.000182559217046723 2.13905097542545e-21)
(-0.0589303914107609 -0.000183239237630836 -4.22424850003874e-21)
(-0.0558759515945373 -0.00018318596404454 0)
(-0.0528378252118398 -0.000182465710680964 -9.00023419925564e-21)
(-0.0498255586305018 -0.000181140825570557 9.0526307813256e-21)
(-0.0468476918815316 -0.000179285779974737 0)
(-0.0439119683472746 -0.000176946250428212 -2.77133536960897e-31)
(-0.0410253439278939 -0.000174185341724447 0)
(-0.0381946347315667 -0.000170978565313301 0)
(-0.0354269347549421 -0.000167327630193993 -1.82943317196435e-15)
(-0.0327296629807367 -0.000163200991726923 -3.737015515458e-15)
(-0.0301092144058117 -0.000158704908731081 -1.90809581797912e-15)
(-0.0275726286952788 -0.000153752476072333 0)
(-0.0251241364444056 -0.000148603952511372 0)
(-0.0227716628527301 -0.000142897749912894 0)
(-0.0205165207401043 -0.000137187299106756 -2.25437916142483e-20)
(-0.0183742092347279 -0.000130397685622774 -2.05902991418619e-15)
(-0.0163381585537153 -0.000124067561731031 -2.10665194776592e-15)
(-0.0144450239297705 -0.000115403479062215 -2.27503969780734e-22)
(-0.0126617181920955 -0.00010846738905428 2.36786365089366e-20)
(-0.0110851636816094 -9.60246480549171e-05 0)
(-0.00960458194101952 -8.85389285467511e-05 0)
(-0.00848369232963312 -6.73218751211813e-05 2.48520280338224e-20)
(-0.00740070801107272 -5.95147190389437e-05 -5.00758368433548e-20)
(-0.00705160295737463 -1.74141785239565e-05 2.52323532878826e-20)
(-0.00655924183432705 -8.86141426030259e-06 -5.13961872979512e-20)
(-0.00780226588322966 2.35771925149947e-05 -7.72882823881788e-19)
(-0.00846878999658233 -0.000586833198935934 0)
(-0.00729382105819376 -0.00101403156889652 1.00780714459552e-22)
(-0.00557063595189776 -0.00120889238769624 5.21290938203355e-20)
(-0.00271087246599511 -0.000874576582033075 1.31553202354819e-17)
(0.000840963119195847 2.13108942062792e-05 -2.59534712192469e-17)
(0.00532205766659551 0.00168244140845324 3.94857485684438e-22)
(0.0106518853111221 0.00420634565279005 3.51411290215949e-22)
(0.0172662566742023 0.00787347045471595 -4.5688815876948e-20)
(0.0251595752323323 0.0127214457818711 2.24827119630663e-17)
(0.0340793998378816 0.018542340896331 2.10115651818523e-20)
(0.0438826234073486 0.0251286726262997 -2.01065198116809e-20)
(0.0543179013214152 0.0321608078686242 9.39311679080948e-23)
(0.0649879463133789 0.0391972905461017 -1.88214375640448e-17)
(0.0749368893014091 0.0456608853262479 1.79944739581336e-17)
(0.0841323461736686 0.0518370719107226 1.71262686599108e-17)
(0.0933365835823029 0.058338133052062 -7.80604806792215e-21)
(0.102961937358399 0.0655002549259216 7.49697641238735e-21)
(0.113786774400766 0.0738847829714255 0)
(0.126923745720007 0.0843027330573694 0)
(0.145625010044783 0.0982533764066176 1.13680294100329e-17)
(0.170736332578954 0.114146445388427 -9.75466556238945e-18)
(0.201775641031269 0.129565146081363 8.00618188582602e-18)
(0.240288048886077 0.142812999885578 2.44046240232912e-22)
(0.286238898207139 0.149465446472724 -5.14018736205845e-20)
(0.335194800149291 0.141460411897655 2.26179244261446e-23)
(0.355231457373279 0.104602887753029 -1.51347553911308e-18)
(0.308330338478414 0.0530014992901997 -1.4283434340569e-18)
(0.227974009468501 0.0183542708169266 1.67853947118845e-22)
(0.148832674541771 0.00332948265679939 5.8675358198638e-20)
(0.112034299644995 0.000149677411507561 0)
(0.209295868368346 -0.000642366330740854 0)
(0.225231951233479 -0.00253464167299416 0)
(0.204247259098078 -0.0103287568248403 -2.08596432663589e-19)
(0.112338154462609 -0.0123161804139394 1.4116238036507e-22)
(0.00189916504307278 0.00400303554864792 -2.06326253303127e-18)
(-0.056236315916043 0.0252549092115291 -2.72897383198004e-18)
(-0.0560529236974707 0.0291302597158934 -3.53423666843414e-22)
(-0.046440496223995 0.0272635277744179 -3.31438365736845e-18)
(-0.0384677383191657 0.0244218035850789 -4.45050769144691e-22)
(-0.0326052558358552 0.0216388088894882 4.61993219006257e-22)
(-0.028697730602074 0.0192663203164482 -4.12211635751241e-18)
(-0.0257599530690316 0.0170306484471139 1.06641443662984e-21)
(-0.0239379521522458 0.0155166253528172 4.68983800846547e-18)
(-0.0229204651502955 0.0146050784856338 -4.94908613051511e-18)
(-0.0225832830296777 0.0142224853307056 -5.19153614526964e-18)
(-0.0231505760539419 0.0144892031672465 1.08104163075701e-17)
(-0.0247219615709278 0.0154409702630853 -1.99613965957373e-22)
(-0.0271622293598131 0.0169345995566801 -5.78150516754973e-18)
(-0.0301936136767931 0.0186096155371382 -5.58563022254521e-21)
(-0.0337513635967172 0.0202510041668553 6.15882653697509e-18)
(-0.03765262788092 0.0216086306412663 -6.35250257501963e-18)
(-0.0416088557365863 0.0223787454537095 -6.55046570457368e-18)
(-0.045388268226418 0.0223317401582142 -6.79543448117759e-18)
(-0.0491549798416857 0.0215270643366172 -1.39774540145464e-17)
(-0.0530297514408356 0.0201514280562405 -1.49553237347456e-20)
(-0.0567039390674728 0.0181474803879731 -7.3340212697854e-18)
(-0.0600186207907005 0.0155250597436596 3.74780592792884e-18)
(-0.0631217986715038 0.0124093191494105 0)
(-0.0663478502946053 0.00894156827030888 0)
(-0.0714562315229846 0.00552107259493847 3.23858457005162e-22)
(-0.0842758414455267 0.00280654629098086 4.42212836520953e-19)
(-0.101357138845893 0.0019745703109484 0)
(-0.113837359165977 0.00155261555466608 0)
(-0.123719923221337 0.00122911925081071 0)
(-0.131366937371909 0.000988867345363858 0)
(-0.137455587287484 0.000800764416653234 0)
(-0.14225430251389 0.000651525322577443 6.82242176092998e-21)
(-0.146030779120485 0.000527989061918722 -6.74422741568921e-21)
(-0.148932294531429 0.000422902076074485 0)
(-0.151080260171358 0.000330679534455012 -7.21362428603111e-21)
(-0.152555737349829 0.000247990795326181 7.15752820592018e-21)
(-0.153423823660157 0.000172495397603918 0)
(-0.153734277306355 0.000102671163235966 0)
(-0.153528339274844 3.74191144684463e-05 0)
(-0.152841398106658 -2.36561071382533e-05 0)
(-0.151708652067938 -8.09414691151547e-05 0)
(-0.150160857090044 -0.000134749035518181 0)
(-0.148226792241793 -0.000185179105750092 0)
(-0.145934318382289 -0.000232262700340947 0)
(-0.143310925592477 -0.000275982692473904 0)
(-0.140384032633924 -0.000316262553102359 0)
(-0.137181091237314 -0.000353048897050691 0)
(-0.133729135401084 -0.000386359947428209 -5.09455483142591e-21)
(-0.130054398175161 -0.000416269905322044 7.72468217395017e-21)
(-0.126182120824938 -0.000442882476792775 -2.62716989795274e-21)
(-0.122136514489173 -0.000466308537698647 0)
(-0.117940743298476 -0.000486672574234126 0)
(-0.113616939322046 -0.000504092246124856 0)
(-0.109186179013204 -0.00051870850767778 0)
(-0.104668569132792 -0.000530626567812317 0)
(-0.100083342249998 -0.000539970281854259 0)
(-0.0954491129583026 -0.000546783685960955 0)
(-0.090784182026267 -0.000551123909023777 0)
(-0.0861060264788557 -0.000553117357922933 0)
(-0.0814310817893313 -0.000552909681803368 -3.52924435071645e-21)
(-0.0767746044125206 -0.000550680881480959 -6.19282131039569e-23)
(-0.0721505739545847 -0.000546608834671206 1.10727421953607e-20)
(-0.0675718199692343 -0.000540863292524796 -7.48689515283495e-21)
(-0.0630499180518051 -0.000533630501078504 0)
(-0.0585954862360377 -0.000525032599795799 0)
(-0.05421826351486 -0.000515199745669823 0)
(-0.0499279903553299 -0.000504076739255844 0)
(-0.0457347902198733 -0.000491662563619372 1.71138243068135e-20)
(-0.0416491166487364 -0.000477923699889458 -1.72806385683933e-20)
(-0.0376801583203761 -0.000463080351186539 0)
(-0.0338379122966484 -0.000447016331405839 0)
(-0.0301289439079146 -0.000430204034655659 1.86817678183979e-20)
(-0.0265647820101654 -0.000411988334250612 2.0980284679037e-22)
(-0.0231487604051055 -0.000393248434550373 2.07030526025291e-22)
(-0.0199030157276643 -0.000372057212057192 -1.96738615144383e-20)
(-0.0168208246636687 -0.00035089690963367 0)
(-0.0139534900766211 -0.000324896055802763 -2.0686329569745e-20)
(-0.0112593420137001 -0.000300548157432923 2.08947764079957e-20)
(-0.00887279406252875 -0.000265345109545023 0)
(-0.00664903382839096 -0.000235971808214189 0)
(-0.00495108924150661 -0.000179971972137473 0)
(-0.00335506050914373 -0.000141282973654011 0)
(-0.00281523394631626 -3.58499235001793e-05 0)
(-0.00218503048124148 2.56406386691365e-05 0)
(-0.00399903857021524 0.000209185419751018 0)
(-0.0046403228788609 -0.00038724075549715 0)
(-0.00268670320855718 -0.00058822646667953 -6.17270532121835e-18)
(0.000188766621798013 -0.00040319309827216 -4.0788368466768e-22)
(0.00459310882114775 0.000566527711955515 -1.17445114844173e-17)
(0.00999884023089531 0.00236819773707501 4.48427086287503e-20)
(0.0166703870039093 0.00526219869320927 2.20876607249914e-17)
(0.0245439319798444 0.00938655715491362 -4.1322961680586e-20)
(0.0341654152626844 0.0150787365896697 3.98154660436652e-20)
(0.045535492506612 0.0223704780144054 -3.78968017077022e-20)
(0.0583669511725431 0.030991211063206 0)
(0.0724776049051413 0.0406625703741498 -1.74092844476677e-20)
(0.08756201375558 0.0509708250487952 1.67535426797985e-20)
(0.103130981823041 0.0613552766414883 1.64902812144588e-17)
(0.11801218355893 0.0711283849532065 -1.13290482783186e-20)
(0.132052218708185 0.0806229077257234 -1.49560504573047e-20)
(0.146095043373525 0.0905830398403743 0)
(0.160728632418759 0.101492169074632 0)
(0.176989141133801 0.114090073739858 0)
(0.19636608009886 0.129417589243396 0)
(0.223020899309464 0.149200190292181 -3.07600114471814e-20)
(0.258512463930878 0.171362735632853 1.76478403649401e-17)
(0.302611048385483 0.192669767600145 7.13305542626017e-18)
(0.356955833712005 0.210376462622355 0)
(0.421526799447967 0.218391381707676 -3.20381138755374e-18)
(0.491342783070256 0.206438807187997 2.52177903586396e-22)
(0.53081370381037 0.157526412918714 0)
(0.489156578637258 0.0869104961874139 0)
(0.391015599824969 0.0343756731906121 0)
(0.278462598427964 0.00819742675489337 5.29137801129962e-20)
(0.216598957001724 0.00110363271624255 0)
(0.314951935462769 -0.000553327699130216 -6.34803768514085e-24)
(0.325195873496754 -0.00339017123759237 6.332901536645e-24)
(0.298919539103228 -0.0134844604259268 -1.99893725840525e-21)
(0.187635692040019 -0.0185420703351555 1.68620425412996e-22)
(0.0344514631238643 -9.63711104738481e-05 -1.93160549146335e-18)
(-0.0622151202305042 0.0298822438466221 -2.71154505661386e-18)
(-0.071500532168906 0.0370131689293408 3.59173790348821e-22)
(-0.0610089248338341 0.0353345809276107 3.36195052998859e-18)
(-0.0513477525008461 0.0321742537449956 -5.4279338574099e-23)
(-0.0440409820671148 0.0289003555406804 -3.92482618814085e-18)
(-0.0390775191545946 0.025981581794179 8.42961668316321e-18)
(-0.035380659306335 0.0232016241932052 -4.51222060549092e-18)
(-0.0331109978844658 0.0213332185679072 0)
(-0.031924086302777 0.0202616161477334 5.06787374935032e-18)
(-0.0316799669122523 0.0199232668859201 5.29134610614998e-18)
(-0.0326528244781195 0.0204677085484136 -5.49280963231883e-18)
(-0.0349473991853808 0.0219171742066475 5.67547311769401e-18)
(-0.038375026601945 0.0240612548184595 1.16365020452232e-17)
(-0.0425927144731253 0.0264242226475688 2.1421283285288e-22)
(-0.0474936682016003 0.0286972709110794 0)
(-0.0528374550071415 0.0305373241475331 6.24544623759464e-18)
(-0.0582821151742761 0.0315598784205175 1.32971470750118e-20)
(-0.0635990821762224 0.031502192336386 -1.26765630525125e-20)
(-0.068973141890095 0.0304210469200067 6.62331831982903e-18)
(-0.0744990402202838 0.0285223475872965 -6.69725760065978e-18)
(-0.0798396578281022 0.0257514105109561 6.7417222752666e-18)
(-0.0848550386197493 0.0221387561701399 3.37813778484768e-18)
(-0.089773966927574 0.0178583837370314 -3.3685893567137e-18)
(-0.0952362025529412 0.0131649801516003 0)
(-0.103454332428909 0.008560702415984 7.42566112781137e-22)
(-0.119034731730522 0.00479879293394791 -1.75881445968081e-19)
(-0.137692054060182 0.00353973072250115 -1.11289545528939e-20)
(-0.150934078140048 0.00274136583927 0)
(-0.161062987196172 0.00214302233858479 -1.06807770864332e-20)
(-0.168633684635805 0.00169757627553808 1.03389524498007e-20)
(-0.174422464700015 0.00135170034186527 1.04953616335726e-20)
(-0.178759783777746 0.00107595517238148 -1.54693832909526e-20)
(-0.181946769029361 0.000847441532034161 5.12230354122995e-21)
(-0.184155866488752 0.000652318560104648 0)
(-0.185525645989612 0.000480880034417634 0)
(-0.186151438201739 0.000327045223461414 0)
(-0.186109483951336 0.000186643302044446 0)
(-0.185458649824975 5.69863395306339e-05 5.59707230119956e-21)
(-0.184248704146296 -6.34070602835213e-05 -1.12014714129085e-20)
(-0.182529901127627 -0.000175415491002603 5.60775375363448e-21)
(-0.180340918964616 -0.000280033745452689 0)
(-0.17771752519813 -0.000377783203797772 0)
(-0.174693253749413 -0.000468936078223024 6.13304356647423e-21)
(-0.171300150362996 -0.000553602449561378 -6.08126620477664e-21)
(-0.167569347203967 -0.000631810624955088 0)
(-0.163531391285562 -0.00070350577644702 -3.27543949980016e-21)
(-0.159216311722363 -0.00076867932935567 -8.10774530526086e-16)
(-0.154653222290595 -0.000827435696734219 -8.33220799650829e-16)
(-0.149870049767953 -0.000879959894885598 0)
(-0.144893446571116 -0.000926474513964301 0)
(-0.139748824386764 -0.000967207621752584 0)
(-0.134460381555254 -0.00100240186197949 0)
(-0.129051160624063 -0.00103228674290433 9.69259849838984e-22)
(-0.123543050532243 -0.00105711718084797 -4.7484574472378e-22)
(-0.117956928836827 -0.00107708976517681 -4.98481854126266e-22)
(-0.112312764785829 -0.00109241281033587 -5.22239164198531e-22)
(-0.106629924800869 -0.00110317642015246 -5.46102668685495e-22)
(-0.100927381212851 -0.00110950157668019 1.07704077691124e-21)
(-0.0952231899381857 -0.00111161974782829 0)
(-0.0895343257677421 -0.00110979356809924 0)
(-0.0838765666673565 -0.00110433450932206 4.73442740540224e-21)
(-0.0782644363420761 -0.00109554786502005 -4.77396518623166e-21)
(-0.0727113411387774 -0.00108372524897974 1.21487480998317e-15)
(-0.0672294796725611 -0.0010691720756863 1.24154698021635e-15)
(-0.0618301945102989 -0.00105209049840985 -5.15182681126678e-21)
(-0.0565240585867625 -0.00103266243021964 0)
(-0.0513218479677772 -0.0010107866308925 0)
(-0.046234781501132 -0.000986442840149895 0)
(-0.0412744545442758 -0.000959607565003039 0)
(-0.0364511681034436 -0.000930593632583633 0)
(-0.0317762716302765 -0.000899294789540523 1.21181359854052e-20)
(-0.0272575247179457 -0.000866306631848989 -2.46952772292272e-20)
(-0.0229084598536909 -0.000830763432476035 1.25862132400817e-20)
(-0.0187338214820872 -0.000793578853861474 1.30418797459593e-20)
(-0.0147592960207534 -0.000752287245858759 -1.32297348267294e-20)
(-0.0109790692926448 -0.000709558969979647 0)
(-0.00745109804201238 -0.000659404706537017 0)
(-0.00413310748512749 -0.000608759715919031 1.44092933828652e-20)
(-0.00117237230513153 -0.000542336432749917 -4.42258640303612e-20)
(0.00157853115366008 -0.000477960406454181 6.02489305847046e-20)
(0.0037338969601197 -0.000375633485965072 -3.06738841183397e-20)
(0.0057151524010772 -0.000283690869327994 0)
(0.00653280587534813 -9.69844582116398e-05 3.26811246209052e-20)
(0.00730118904668782 6.23561805434836e-05 -3.35084414844629e-20)
(0.00542326146874046 0.000448876215621191 5.58136653637891e-19)
(0.00500010560164657 0.000142542957872281 -3.49746129174059e-20)
(0.00745749148015676 0.00043734493032398 -2.90782886464989e-22)
(0.0111301743689886 0.00124065947072406 3.27081405217715e-20)
(0.0164697853911127 0.00296796563031075 -1.31338496323645e-23)
(0.0230037233801547 0.00568258988051927 0)
(0.0309625561747699 0.00965273396994849 -3.02453708176922e-17)
(0.0403259171525514 0.0150369693703996 0)
(0.0516369525258844 0.0221535318382165 1.39228276839047e-17)
(0.0649411090612551 0.0310290658818585 -1.33790378931727e-17)
(0.0799899041859848 0.0413918813037813 0)
(0.0966090826194429 0.0529533513805339 0)
(0.114507536483149 0.0652896283610574 1.18075901473602e-20)
(0.133221581101704 0.0778457571302 -2.30954814356262e-20)
(0.151616901283992 0.0899985462930333 -1.15960393136495e-17)
(0.169408845695212 0.102066519687838 -1.13250514678338e-17)
(0.187338603830998 0.114772390623378 -5.29915748979302e-21)
(0.206027990097702 0.128642885477602 1.02811086755529e-20)
(0.226577634051247 0.144452973970583 9.9578352102411e-18)
(0.250571114898735 0.163239347774861 0)
(0.282322933280421 0.186484633699597 -1.64107620660269e-17)
(0.324012399144297 0.211904274307579 -7.05289247629675e-18)
(0.375717870772938 0.235869979934998 -5.71386449178422e-18)
(0.438859943446126 0.25487504232215 0)
(0.513279599441041 0.261919122525937 0)
(0.594330306313209 0.246245421761829 -7.5556679427325e-19)
(0.651005827562431 0.192182063653634 1.0355827498936e-18)
(0.629844480300978 0.11364891358315 -1.89723314319696e-22)
(0.539684811505859 0.0504051009066217 0)
(0.415967343032784 0.0146388963999239 -5.35251804431586e-22)
(0.336012247669111 0.00306952909480102 0)
(0.418214211690977 0.000152130922146616 0)
(0.418865589943694 -0.0038264542430277 -1.07491516756468e-20)
(0.390132655522104 -0.0158195790762879 1.59027837081658e-19)
(0.271551649506182 -0.0244230601717887 0)
(0.084799401841821 -0.00676199534720528 2.87842288888851e-21)
(-0.0560028034983638 0.0310046443271151 5.16776479626592e-18)
(-0.0818860301856312 0.0425836246065485 3.09755554476043e-18)
(-0.0728334383207327 0.0416711994322375 -5.23131299148046e-23)
(-0.0625162358655565 0.0386834765744832 -3.65438259567449e-18)
(-0.0543730323493935 0.0352954560300489 3.0378738657385e-21)
(-0.0487055719724519 0.0320846459905657 -2.49498190814565e-21)
(-0.0445102460469276 0.0289671644538387 -4.35349361914412e-22)
(-0.0419701580242535 0.0268934378323337 4.76233715746401e-21)
(-0.0407544516029512 0.0257807508343224 5.1380318596193e-18)
(-0.0407242668335232 0.0255921586812461 -3.60057422096375e-22)
(-0.0421812506687692 0.0264942659091279 0)
(-0.0452151259695592 0.0284805679747953 5.6544444241991e-18)
(-0.049581964352527 0.0312695210077565 -1.1496612805509e-17)
(-0.054886744639288 0.0342793584060807 -1.16510102153001e-17)
(-0.0609700407161807 0.0371048149916984 -5.7221493684412e-21)
(-0.0675388876132426 0.0393193081511741 0)
(-0.07422251682297 0.0404839326139163 1.18580788593498e-17)
(-0.0808086953213164 0.0403230067340663 0)
(-0.0874697000910107 0.038885069313051 -1.15113170218918e-20)
(-0.0942546723747422 0.0363950389829843 1.12666124941368e-20)
(-0.100846556067423 0.032832263877532 -5.69792719261529e-18)
(-0.107174970102874 0.0282743519169998 -1.93403879566307e-21)