/*--------------------------------*- C++ -*----------------------------------*\
  =========                 |
  \\      /  F ield         | OpenFOAM: The Open Source CFD Toolbox
   \\    /   O peration     | Website:  https://openfoam.org
    \\  /    A nd           | Version:  7
     \\/     M anipulation  |
\*---------------------------------------------------------------------------*/
FoamFile
{
    version     2.0;
    format      ascii;
    class       volScalarField;
    location    "20000";
    object      walldist;
}
// * * * * * * * * * * * * * * * * * * * * * * * * * * * * * * * * * * * * * //

dimensions      [0 1 0 0 0 0 0];

internalField   nonuniform List<scalar> 
15600
(
0.00195550328778782
0.00195611167297442
0.00195686811448818
0.00195217208498457
0.00193015882391988
0.00189917654228185
0.00189066559963839
0.00191026157699489
0.00195509795196708
0.00202154342536047
0.002107831278182
0.00221096663992809
0.0023166333516863
0.00241873118458411
0.00251728050300001
0.00261235768937435
0.00270406720123856
0.00279332188553644
0.00288732642867995
0.00298958582083599
0.00309956702639838
0.00321640520577194
0.00333862114294828
0.00346258735699905
0.00357891772825378
0.00368257182748775
0.00377063054666168
0.00384006314243775
0.00388797021538664
0.00391187423732293
0.00391226675568502
0.0039110065755786
0.00391100657557843
0.00391100657557865
0.00391100657557854
0.00391100657557859
0.0039110065755785
0.00391100657557855
0.00391100657557861
0.00391100657557853
0.00391100657557856
0.00391100657557863
0.00391100657557859
0.00391100657557874
0.00391100657557853
0.00391100657557866
0.00391100657557853
0.00391100657557843
0.00391100657557863
0.00391100657557853
0.00391100657557851
0.00391100657557861
0.00391100657557856
0.00391100657557868
0.00391100657557854
0.00391100657557868
0.00391100657557848
0.00391100657557858
0.00391100657557848
0.00391100657557851
0.00391100657557847
0.00391100657557853
0.00391100657557851
0.00391100657557855
0.00391100657557867
0.00391100657557866
0.00391100657557856
0.00391100657557872
0.00391100657557859
0.00391100657557863
0.00391100657557843
0.00391100657557863
0.00391100657557855
0.00391100657557848
0.0039110065755785
0.00391100657557856
0.00391100657557866
0.00391100657557866
0.00391100657557864
0.00391100657557858
0.00391100657557861
0.00391100657557861
0.00391100657557843
0.00391100657557858
0.00391100657557855
0.00391100657557858
0.00391100657557858
0.00391100657557856
0.00391100657557861
0.0039122770294542
0.00391184519679267
0.00388787844359516
0.00383991400660185
0.00377043088083986
0.0036823289749033
0.00357863922498388
0.00346228041177451
0.00333830729938775
0.00321610142428849
0.00309927812697778
0.00298931465908353
0.00288707479088089
0.00279309013321268
0.00270383534174505
0.00261211763360162
0.00251703193264695
0.0024184738245435
0.0023163670850578
0.00221069215685133
0.0021075845814677
0.00202134417026305
0.00195494949088682
0.00191016980100504
0.00189064245649306
0.0018992231208575
0.00193023276740968
0.00195219701383035
0.00195686661766744
0.00195610692587539
0.00195550328778804
0.00593827959940845
0.00594077288323269
0.0059584622755404
0.00600577995764952
0.00608891307416779
0.00621767811589068
0.00640211541831555
0.00663231281318644
0.00689586103482519
0.00718209022335548
0.00748253648415667
0.00778894708035083
0.00809135398593137
0.00838722617225537
0.00867754080066387
0.00896329069515366
0.0092454920995745
0.00952527165296135
0.00980417020675434
0.0100807301628923
0.0103516246214274
0.0106131565639802
0.0108610726654686
0.0110903347955238
0.011295668401115
0.0114741084432381
0.0116235804087245
0.0117420677659416
0.0118277636491134
0.0118791774877897
0.0118972503183276
0.0118979111917729
0.0118964385105624
0.0118950182524332
0.0118936504361653
0.011892335079853
0.0118910722009066
0.0118898618160466
0.011888703941307
0.0118875985920307
0.0118865457828717
0.0118855455277917
0.01188459784006
0.0118837027322527
0.0118828602162525
0.0118820703032463
0.011881333003726
0.0118806483274867
0.011880016283627
0.0118794368805481
0.0118789101259524
0.0118784360268441
0.0118780145895284
0.0118776458196109
0.011877329721997
0.0118770663008925
0.0118768555598024
0.0118766975015306
0.0118765921281811
0.0118765394411555
0.0118765394411555
0.011876592128181
0.0118766975015307
0.0118768555598022
0.0118770663008927
0.011877329721997
0.0118776458196109
0.0118780145895286
0.0118784360268442
0.0118789101259522
0.011879436880548
0.0118800162836271
0.0118806483274865
0.0118813330037259
0.0118820703032463
0.0118828602162525
0.0118837027322531
0.01188459784006
0.0118855455277917
0.0118865457828717
0.0118875985920309
0.0118887039413071
0.0118898618160471
0.0118910722009066
0.011892335079853
0.0118936504361651
0.011895018252433
0.0118964385105621
0.011897911191773
0.0118972296792515
0.0118790901219982
0.0118275903419685
0.0117418117124163
0.0116232458220072
0.0114736996481989
0.0112951909690006
0.0110897935037049
0.0108604792422264
0.0106125238087886
0.0103509637800437
0.010080051051517
0.00980348146351277
0.00952458083477145
0.00924479744904339
0.00896258876177479
0.00867682910465407
0.0083865016133418
0.00809061476109705
0.00778819131673584
0.00748178311034919
0.00718136194558168
0.00689517996789181
0.00663169973946715
0.00640159730977775
0.00621728975689341
0.00608865904807328
0.00600562174824642
0.0059583850561222
0.00594075155317984
0.00593827959940801
0.0100669519978753
0.0100712391887143
0.010103363328153
0.010192553586982
0.010355427701334
0.0106054092398892
0.0109450419813226
0.0113530771105731
0.0118087762688727
0.0122955575016393
0.0128002733294137
0.0133105678637511
0.013814088033149
0.0143080687530154
0.014793947882515
0.015273232166248
0.015747497691137
0.0162183765163356
0.0166870578215566
0.0171504894384234
0.0176031908149358
0.0180390552484459
0.0184510546663252
0.0188310415063278
0.0191711413812746
0.0194667193645911
0.0197143380989405
0.0199106903479391
0.0200528324017795
0.0201383557414958
0.0201688811266756
0.0201701012620663
0.0201676046785344
0.0201651969659685
0.020162878156205
0.02016064827992
0.0201585073666265
0.020156455444672
0.0201544925412367
0.0201526186823322
0.0201508338928002
0.0201491381963097
0.0201475316153556
0.0201460141712581
0.0201445858841606
0.020143246773029
0.0201419968556488
0.0201408361486259
0.020139764667385
0.0201387824261673
0.0201378894380314
0.020137085714851
0.0201363712673152
0.0201357461049267
0.0201352102360017
0.0201347636676698
0.0201344064058733
0.0201341384553658
0.0201339598197128
0.020133870501292
0.020133870501292
0.0201339598197128
0.0201341384553657
0.0201344064058734
0.0201347636676699
0.0201352102360017
0.0201357461049268
0.0201363712673153
0.020137085714851
0.0201378894380313
0.0201387824261671
0.0201397646673848
0.020140836148626
0.0201419968556487
0.0201432467730289
0.0201445858841609
0.0201460141712583
0.0201475316153556
0.0201491381963097
0.0201508338928004
0.0201526186823326
0.0201544925412369
0.0201564554446721
0.0201585073666265
0.0201606482799201
0.020162878156205
0.0201651969659682
0.0201676046785342
0.020170101262066
0.0201688453629101
0.0201382098007021
0.0200525446536891
0.0199102659297127
0.0197137838477747
0.0194660424344543
0.0191703507544633
0.0188301453945073
0.0184500702375925
0.0180380028553846
0.0176020887096973
0.0171493538646804
0.0166859030405378
0.0162172150860032
0.0157463303317578
0.0152720548383254
0.0147927567252971
0.014306859145811
0.0138128569997286
0.0133093128332174
0.0127990162647302
0.0122943295275076
0.0118076109765651
0.0113520080089631
0.010944111321378
0.0106046766336161
0.0103549263840823
0.0101922503566973
0.0101032216689695
0.010071202158723
0.0100669519978749
0.0143468695672595
0.0143530170798194
0.014400141222947
0.0145328958333965
0.0147787975608717
0.0151548964192934
0.0156557113968214
0.0162482179725972
0.0169030948287775
0.0175976828534661
0.01831401253443
0.0190355002790305
0.0197473604859656
0.0204465935589144
0.0211351091516171
0.0218149424281592
0.0224882464477432
0.0231571736545617
0.0238225393800936
0.0244796353893628
0.0251207496524817
0.0257372781896007
0.0263193170247873
0.0268554965744423
0.0273352519644899
0.0277522185056032
0.0281015458053363
0.0283785887252953
0.0285792252789662
0.0287000956778825
0.0287435256883014
0.0287453254993532
0.0287417675050069
0.0287383361647016
0.02873503152381
0.0287318536260491
0.0287288025134796
0.0287258782265005
0.0287230808038483
0.0287204102825929
0.0287178666981369
0.0287154500842125
0.028713160472878
0.0287109978945181
0.0287089623778398
0.0287070539498717
0.0287052726359619
0.0287036184597758
0.0287020914432952
0.028700691606817
0.0286994189689506
0.0286982735466184
0.0286972553550534
0.0286963644077984
0.0286956007167057
0.028694964291936
0.0286944551419571
0.028694073273544
0.0286938186917785
0.0286936914000488
0.0286936914000488
0.0286938186917785
0.028694073273544
0.028694455141957
0.0286949642919361
0.0286956007167059
0.0286963644077984
0.0286972553550533
0.0286982735466184
0.0286994189689504
0.0287006916068168
0.0287020914432952
0.0287036184597758
0.0287052726359619
0.0287070539498717
0.02870896237784
0.0287109978945183
0.028713160472878
0.0287154500842125
0.0287178666981372
0.0287204102825931
0.0287230808038484
0.0287258782265008
0.0287288025134796
0.0287318536260493
0.0287350315238099
0.0287383361647014
0.0287417675050064
0.0287453254993529
0.0287434742472017
0.0286998890362937
0.0285788189364147
0.0283779898314515
0.0281007639167433
0.0277512637097627
0.0273341367772662
0.0268542327719062
0.0263179273988745
0.0257357909218509
0.025119190253334
0.024478026764199
0.0238209016173176
0.0231555244941063
0.0224865892000821
0.0218132724577997
0.0211334211734845
0.0204448813897268
0.0197456199378892
0.0190337280748883
0.0183122337069472
0.0175959371778601
0.0169014276996883
0.01624667602885
0.0156543526027357
0.0151538059619918
0.0147780387539222
0.0145324416480084
0.0143999325691046
0.0143529637620694
0.0143468695672593
0.0187835728468107
0.0187916490679893
0.0188543351058469
0.0190323035133787
0.0193643977268093
0.0198713877992727
0.0205393891748137
0.0213231636307114
0.0221845101522757
0.0230944869865115
0.0240301367684991
0.0249705016564963
0.0258982874512687
0.0268102541801257
0.0277087987205117
0.0285965026160499
0.0294761159356806
0.0303503294048707
0.0312195677142339
0.032077404857556
0.0329138159282529
0.0337176084052702
0.0344758972141711
0.0351739731595389
0.035798483882829
0.036341272021909
0.036796022313082
0.0371567027469709
0.0374179699810088
0.0375754782227261
0.0376322842046051
0.0376346849039923
0.0376300266162955
0.037625534149818
0.0376212075639641
0.03761704691597
0.0376130522609029
0.0376092236516554
0.037605561138943
0.0376020647712997
0.0375987345950759
0.0375955706544349
0.0375925729913497
0.0375897416456007
0.0375870766547726
0.0375845780542527
0.0375822458772275
0.0375800801546807
0.0375780809153928
0.0375762481859363
0.0375745819906763
0.0375730823517677
0.0375717492891545
0.0375705828205682
0.0375695829615255
0.0375687497253294
0.0375680831230664
0.0375675831636069
0.0375672498536041
0.0375670831974936
0.0375670831974936
0.0375672498536041
0.0375675831636068
0.0375680831230664
0.0375687497253295
0.0375695829615255
0.0375705828205681
0.0375717492891547
0.0375730823517677
0.037574581990676
0.0375762481859361
0.0375780809153927
0.0375800801546808
0.0375822458772272
0.0375845780542527
0.0375870766547729
0.0375897416456007
0.0375925729913496
0.0375955706544349
0.0375987345950758
0.0376020647712997
0.0376055611389433
0.0376092236516555
0.0376130522609029
0.03761704691597
0.0376212075639642
0.037625534149818
0.0376300266162951
0.037634684903992
0.0376322165123249
0.0375752086634916
0.0374174407127782
0.0371559230053507
0.0367950044732848
0.0363400292126427
0.0357970322821643
0.0351723282398845
0.0344740875921653
0.0337156703778633
0.0329117825284937
0.0320753058961871
0.0312174293196789
0.0303481746881206
0.0294739508996014
0.0285943220121533
0.0277065957895453
0.0268080211234153
0.0258960188263817
0.0249681934596425
0.0240278171896944
0.0230922047436034
0.0221823228451511
0.0213211314885711
0.0205375864087877
0.0198699260518883
0.0193633716144913
0.0190316926323782
0.0188540569371302
0.0187915788614986
0.0187835728468103
0.0233828053408834
0.0233928810354337
0.0234717047908329
0.0236965680995848
0.0241180692003317
0.0247608160285613
0.0256021737002526
0.02658424017928
0.0276596177484803
0.0287928597307258
0.029955843102123
0.0311230792714703
0.0322746794280359
0.0334071556640564
0.0345234091002508
0.0356265870482673
0.0367200579620889
0.0378070700381675
0.0388876415980743
0.0399535654572238
0.0409924192581212
0.0419903272074913
0.0429313139938784
0.0437972086723726
0.0445717700169765
0.0452449825415028
0.0458090124244652
0.0462563900068701
0.0465805058940144
0.0467759922270281
0.0468466635445053
0.0468496871363321
0.0468438882483714
0.046838295783615
0.0468329098160123
0.0468277304168144
0.0468227576545716
0.0468179915951277
0.0468134323016155
0.0468090798344535
0.0468049342513407
0.046800995607254
0.0467972639544438
0.0467937393424308
0.0467904218180027
0.0467873114252112
0.0467844082053687
0.0467817121970458
0.0467792234360692
0.0467769419555183
0.0467748677857242
0.0467730009542665
0.0467713414859723
0.0467698894029147
0.0467686447244101
0.0467676074670182
0.0467667776445409
0.04676615526802
0.0467657403457376
0.0467655328832159
0.0467655328832159
0.0467657403457376
0.04676615526802
0.0467667776445409
0.0467676074670184
0.0467686447244101
0.0467698894029147
0.0467713414859724
0.0467730009542664
0.046774867785724
0.0467769419555182
0.046779223436069
0.0467817121970455
0.0467844082053684
0.0467873114252112
0.046790421818003
0.0467937393424307
0.0467972639544437
0.046800995607254
0.0468049342513405
0.0468090798344535
0.0468134323016155
0.0468179915951277
0.0468227576545718
0.0468277304168144
0.0468329098160123
0.0468382957836151
0.0468438882483709
0.046849687136332
0.0468465790059103
0.0467756574484435
0.0465798492031667
0.0462554228015676
0.0458077500016973
0.0452434411826419
0.0445699696961161
0.0437951686942229
0.0429290690107944
0.0419879219289163
0.0409898945145967
0.0399509582176489
0.0388849842518678
0.0378043912638346
0.0367173665568663
0.035623877130375
0.0345206723833592
0.0334043826769268
0.0322718634282259
0.0311202155044827
0.0299529630195788
0.0287900213096277
0.0276568912272418
0.0265816998659827
0.0255999106284943
0.0247589692387713
0.0241167658140704
0.0236957946853566
0.023471354530131
0.0233927933195164
0.023382805340883
0.0281505209540502
0.028162669429487
0.0282582252302085
0.0285317149428853
0.029045929334447
0.0298294445820267
0.0308505336693085
0.0320381655227548
0.033335413428294
0.0347000917959878
0.0360987253702466
0.0375011308339417
0.0388847328604254
0.0402457871970281
0.0415877172387062
0.0429142564565097
0.0442294140780403
0.0455370159077306
0.0468366582415419
0.04811828720227
0.049366995234554
0.0505661250239138
0.0516964978506819
0.0527363543156262
0.0536664589057055
0.0544748700692988
0.0551521797922568
0.0556894281206152
0.0560786932588316
0.0563135478764395
0.0563985921134692
0.0564022614136903
0.056395280141997
0.05638854738286
0.0563820632253068
0.0563758277551173
0.0563698410548187
0.0563641032036802
0.0563586142777078
0.0563533743496382
0.0563483834889363
0.0563436417617877
0.0563391492310969
0.0563349059564823
0.056330911994271
0.0563271673974965
0.0563236722158953
0.0563204264959023
0.0563174302806491
0.0563146836099606
0.0563121865203511
0.0563099390450245
0.0563079412138706
0.0563061930534617
0.0563046945870536
0.056303445834583
0.0563024468126652
0.0563016975345935
0.0563011980103392
0.05630094824655
0.0563009482465501
0.0563011980103392
0.0563016975345935
0.0563024468126651
0.056303445834583
0.0563046945870539
0.0563061930534619
0.0563079412138706
0.0563099390450246
0.056312186520351
0.0563146836099603
0.0563174302806492
0.0563204264959021
0.0563236722158953
0.0563271673974967
0.0563309119942709
0.0563349059564822
0.0563391492310971
0.0563436417617877
0.0563483834889362
0.0563533743496385
0.056358614277708
0.0563641032036808
0.0563698410548191
0.0563758277551176
0.056382063225307
0.05638854738286
0.0563952801419969
0.0564022614136906
0.0563984901115175
0.0563131454910645
0.0560779044809515
0.0556882665893591
0.0551506638333309
0.0544730192322193
0.0536642970994963
0.0527339048179242
0.0516938015693973
0.050563235388992
0.0493639611593133
0.0481151530759036
0.0468334629437239
0.0455337938882232
0.0442261770326589
0.0429109978481888
0.0415844271986365
0.0402424545212146
0.0388813494591111
0.0374976911757188
0.0360952642817824
0.034696676846743
0.033332127950673
0.0320350984144306
0.0308477933918843
0.029827198562594
0.0290443384204469
0.0285307729879653
0.0282578002197928
0.0281625635616207
0.0281505209540502
0.0330928916985875
0.0331071889245336
0.033220091648584
0.0335439974228543
0.0341543405074732
0.0350838043500948
0.0362912237754241
0.0376919570148927
0.0392192021531676
0.0408237904600751
0.0424666999913445
0.0441128819086118
0.0457369778155607
0.0473349781255443
0.0489108473794985
0.0504689264825376
0.0520138887519816
0.0535501585893766
0.0550768943391035
0.0565821276182838
0.0580483746772283
0.0594560948094332
0.0607827885534973
0.0620029766657356
0.0630943199131106
0.0640428802049006
0.0648376176703025
0.0654680274835447
0.0659248273946782
0.0662004918161389
0.0663004352897513
0.0663047739530462
0.0662965669835037
0.0662886521577245
0.0662810295803659
0.0662736993522676
0.066266661570447
0.0662599163280901
0.0662534637145471
0.0662473038153256
0.0662414367120854
0.0662358624826338
0.0662305812009179
0.0662255929370239
0.0662208977571684
0.0662164957236958
0.0662123868950747
0.0662085713258925
0.0662050490668537
0.0662018201647748
0.0661988846625812
0.0661962425993066
0.0661938940100877
0.0661918389261634
0.0661900773748716
0.0661886093796491
0.0661874349600286
0.0661865541316377
0.066185966906198
0.0661856732915243
0.0661856732915242
0.0661859669061981
0.0661865541316378
0.0661874349600287
0.0661886093796492
0.0661900773748717
0.0661918389261634
0.0661938940100879
0.0661962425993066
0.0661988846625812
0.0662018201647747
0.0662050490668538
0.0662085713258925
0.0662123868950747
0.066216495723696
0.0662208977571684
0.0662255929370239
0.0662305812009181
0.0662358624826336
0.0662414367120857
0.0662473038153258
0.0662534637145474
0.0662599163280906
0.0662666615704472
0.0662736993522678
0.0662810295803658
0.0662886521577246
0.0662965669835037
0.0663047739530463
0.066300315184746
0.066200019348404
0.0659239016931897
0.0654666645107962
0.0648358388916013
0.0640407085575812
0.0630917833852219
0.0620001026534555
0.0607796244487113
0.0594527030818747
0.0580448126189201
0.0565784473105049
0.0550731413894297
0.0535463734302029
0.0520100860849509
0.0504650990920313
0.0489069837565992
0.0473310652706616
0.0457330062424176
0.0441088452812207
0.0424626366314821
0.040819777877555
0.0392153372495585
0.037688343808845
0.036287988788353
0.035081144426357
0.0341524514739218
0.0335428807204284
0.0332195891398736
0.0331070642390832
0.0330928916985875
0.0382163156843227
0.0382328404009059
0.0383637267976175
0.0387399010309332
0.0394499068501824
0.0405306811852193
0.0419312664225631
0.043552911110614
0.045318578318182
0.0471718621147948
0.0490679917301576
0.0509668753208268
0.0528402706450426
0.0546838933181862
0.0565022686859539
0.0583003672139991
0.0600835505368408
0.0618568634721598
0.0636190100657057
0.0653560371856345
0.0670477905388498
0.0686717404118405
0.0702019449606235
0.0716090688701822
0.0728675556652946
0.0739613976379841
0.074877863289648
0.0756048463453062
0.076131654283316
0.0764496230475982
0.0765650114301044
0.0765700439794235
0.0765605664111985
0.0765514262162789
0.0765426235155264
0.076534158425392
0.0765260310579131
0.0765182415207029
0.0765107899169448
0.0765036763453844
0.0764969009003245
0.0764904636716178
0.0764843647446608
0.0764786042003898
0.0764731821152726
0.0764680985613069
0.076463353606012
0.0764589473124278
0.076454879739108
0.0764511509401172
0.0764477609650273
0.0764447098589141
0.0764419976623549
0.0764396244114244
0.0764375901376937
0.0764358948682275
0.0764345386255826
0.0764335214278063
0.0764328432884344
0.0764325042164923
0.0764325042164923
0.0764328432884345
0.0764335214278062
0.0764345386255826
0.0764358948682276
0.0764375901376937
0.0764396244114244
0.0764419976623548
0.0764447098589143
0.0764477609650272
0.0764511509401174
0.0764548797391079
0.0764589473124278
0.0764633536060122
0.0764680985613069
0.0764731821152727
0.0764786042003899
0.0764843647446609
0.0764904636716178
0.0764969009003245
0.0765036763453844
0.0765107899169451
0.076518241520703
0.076526031057913
0.0765341584253919
0.0765426235155262
0.0765514262162788
0.076560566411198
0.0765700439794235
0.0765648725588854
0.0764490779308892
0.0761305866437791
0.0756032745538637
0.0748758120661662
0.0739588934316583
0.0728646306926167
0.0716057547967441
0.0701982958993352
0.0686678282032457
0.0670436811604933
0.0653517906926507
0.0636146790400086
0.0618524945478663
0.0600791615322964
0.0582959502105959
0.0564978104748149
0.054679379038771
0.0528356893634815
0.0509622198675762
0.0490633040478511
0.0471672300155742
0.0453141127669053
0.0435487317988315
0.0419275185886767
0.0405275921621413
0.0394477087373508
0.0387386031578863
0.0383631439448195
0.0382326962080786
0.0382163156843228
0.0435274254011258
0.0435462592256842
0.0436957889885822
0.0441261502891876
0.0449394785645756
0.0461771170164908
0.0477779509152936
0.0496286020403898
0.0516414249094958
0.0537525125101386
0.0559111353799986
0.0580719744325052
0.0602037987107809
0.0623020391357023
0.0643718022926134
0.0664187111871627
0.068448840919499
0.0704678793774901
0.0724740594573345
0.0744513704929509
0.0763768898310876
0.0782249892596745
0.0799661584496395
0.0815670647835516
0.0829988168167451
0.0842432614558691
0.0852859136173529
0.0861130069266477
0.0867123869465779
0.0870742094654152
0.0872056084628731
0.0872113603206988
0.0872005656081128
0.0871901551552634
0.0871801290998079
0.0871704875743827
0.0871612307065945
0.0871523586190124
0.087143871429159
0.0871357692495042
0.0871280521874555
0.0871207203453533
0.0871137738204625
0.0871072127049664
0.0871010370859611
0.0870952470454492
0.087089842660335
0.0870848240024174
0.0870801911383886
0.0870759441298271
0.0870720830331932
0.087068607899828
0.0870655187759476
0.0870628157026401
0.0870604987158644
0.0870585678464463
0.0870570231200778
0.0870558645573135
0.0870550921735715
0.0870547059791306
0.0870547059791307
0.0870550921735713
0.0870558645573137
0.0870570231200778
0.0870585678464465
0.0870604987158644
0.0870628157026402
0.0870655187759476
0.087068607899828
0.0870720830331933
0.0870759441298268
0.0870801911383885
0.0870848240024173
0.0870898426603348
0.0870952470454494
0.0871010370859613
0.0871072127049664
0.0871137738204625
0.0871207203453533
0.0871280521874554
0.0871357692495042
0.0871438714291591
0.0871523586190124
0.0871612307065945
0.087170487574383
0.0871801290998081
0.0871901551552634
0.0872005656081126
0.0872113603206987
0.0872054501379691
0.0870735890388869
0.0867111721704621
0.0861112186684843
0.0852835799707458
0.0842404125104413
0.0829954891723608
0.0815632945315538
0.0799620066698715
0.0782205375066135
0.0763722130859476
0.0744465370768082
0.0724691291819203
0.0704629053058114
0.0684438441012554
0.0664136829753574
0.0643667277162562
0.0622969014053982
0.0601985853921036
0.0580666774921516
0.055905800512588
0.053747238206147
0.0516363367101916
0.0496238358829891
0.0477736714376676
0.0461735831524583
0.0449369600229551
0.0441246645936048
0.0436951228436856
0.0435460948105508
0.0435274254011254
0.0490330963048328
0.0490543238400729
0.0492231805909919
0.0497097168231127
0.0506301589822205
0.0520304156898512
0.053838838671014
0.0559268870226507
0.0581959191586986
0.0605742531169383
0.0630049829874716
0.065437371294696
0.0678370894011961
0.0701992732200208
0.0725296317947496
0.0748344645189375
0.0771205860491696
0.0793943508498651
0.081653503258887
0.0838798996437246
0.0860477475833965
0.0881282068596925
0.0900880679326634
0.0918898544689084
0.0935012179859678
0.0949017814537858
0.0960752419797444
0.0970061122909817
0.097680722498487
0.0980880050192943
0.0982360010892817
0.0982424986103045
0.0982303385025809
0.0982186112586092
0.0982073170334587
0.0981964559765423
0.0981860282316079
0.0981760339367274
0.0981664732242894
0.0981573462209886
0.0981486530478195
0.0981403938200667
0.0981325686472977
0.0981251776333562
0.0981182208763541
0.0981116984686672
0.0981056104969264
0.0980999570420136
0.0980947381790555
0.0980899539774194
0.0980856045007084
0.0980816898067563
0.0980782099476253
0.0980751649696009
0.0980725549131899
0.0980703798131181
0.098068639698326
0.0980673345919692
0.098066464511415
0.0980660294682433
0.0980660294682434
0.0980664645114155
0.098067334591969
0.0980686396983261
0.0980703798131182
0.09807255491319
0.0980751649696009
0.0980782099476251
0.0980816898067563
0.0980856045007081
0.0980899539774193
0.0980947381790555
0.0980999570420135
0.0981056104969267
0.0981116984686677
0.0981182208763542
0.0981251776333559
0.0981325686472976
0.0981403938200665
0.0981486530478195
0.0981573462209887
0.0981664732242893
0.0981760339367274
0.098186028231608
0.0981964559765425
0.0982073170334589
0.0982186112586093
0.0982303385025805
0.0982424986103045
0.098235822598024
0.0980873065244961
0.0976793551965815
0.0970040996375484
0.096072615565671
0.0948985751423907
0.0934974729211139
0.0918856113297191
0.0900833950209306
0.0881231957995263
0.086042482689493
0.0838744578059306
0.0816479517835805
0.0793887494644392
0.0771149591534371
0.0748288027110252
0.0725239182771217
0.0701934892039527
0.0678312208967651
0.0654314093734058
0.0629989772323819
0.0605683130870801
0.0581901855042835
0.0559215125206599
0.053834008067094
0.0520264206728549
0.0506273082538612
0.049708036413426
0.0492224280992719
0.0490541384615986
0.0490330963048326
0.0547404557176872
0.0547641646626141
0.0549530569102062
0.0554978280844946
0.0565293128961047
0.0580981508610949
0.0601217709958761
0.0624559142478922
0.0649905409615288
0.0676459101163754
0.0703587134900995
0.073072596964158
0.0757500210932461
0.0783858160549504
0.0809863153704982
0.0835585195606387
0.0861100098990286
0.0886478318090383
0.0911692230629944
0.0936538288790073
0.0960728819407003
0.0983942123543674
0.100580775851749
0.102590800600488
0.104388354522159
0.105950755216588
0.107259815407659
0.108298263898714
0.109050859851422
0.109505267512332
0.10967046861498
0.109677739120107
0.109664163598907
0.109651071325979
0.109638462474442
0.1096263372111
0.109614695696432
0.109603538084583
0.10959286452335
0.109582675154176
0.109572970112138
0.109563749525939
0.109555013517901
0.109546762203954
0.109538995693632
0.109531714090061
0.109524917489956
0.109518605983613
0.109512779654905
0.109507438581273
0.109502582833721
0.109498212476818
0.109494327568684
0.109490928160993
0.109488014298966
0.109485586021371
0.109483643360518
0.109482186342256
0.109481214985976
0.109480729304604
0.109480729304604
0.109481214985976
0.109482186342256
0.109483643360518
0.109485586021371
0.109488014298967
0.109490928160993
0.109494327568684
0.109498212476818
0.109502582833722
0.109507438581273
0.109512779654905
0.109518605983613
0.109524917489956
0.109531714090061
0.109538995693632
0.109546762203955
0.109555013517901
0.109563749525939
0.109572970112137
0.109582675154176
0.10959286452335
0.109603538084583
0.109614695696432
0.1096263372111
0.109638462474442
0.109651071325979
0.109664163598907
0.109677739120107
0.109670269218582
0.109504488089679
0.109049334436938
0.108296018630792
0.107256885502543
0.10594717844943
0.104384176747352
0.102586067252865
0.100575562719483
0.0983886214999206
0.0960670073541895
0.0936477563329402
0.0911630276329718
0.0886415801309746
0.0861037298458367
0.0835522009480914
0.0809799395076372
0.0783793620806617
0.0757434734050999
0.0730659457058463
0.0703520122748625
0.067639279976681
0.0649841382089058
0.0624499091152346
0.0601163690713449
0.0580936777857041
0.0565261177971296
0.0554959458193332
0.0549522149058604
0.0547639575526714
0.054740455717687
0.0606568920548164
0.0606831733191179
0.0608928354201769
0.0614979765507009
0.0626445756462768
0.064388174990249
0.0666348781925457
0.0692241322934596
0.0720340827326795
0.0749766347745241
0.0779818436546793
0.0809875330211536
0.0839528352291479
0.0863278308377583
0.0888252087045437
0.0912241523770817
0.0935164003573434
0.0957175257966859
0.0980305010172098
0.100737758353091
0.103941020511065
0.107653645307562
0.111457864950495
0.113683755614785
0.115674319995513
0.117404485903198
0.118854112667121
0.120004079833274
0.120837518083902
0.121340777054662
0.121523813434851
0.121531885246529
0.121516842461203
0.121502335154398
0.121488363517944
0.121474927736673
0.121462027988411
0.12144966444396
0.121437837267093
0.12142654661454
0.121415792635977
0.121405575474019
0.121395895264206
0.121386752135002
0.121378146207775
0.121370077596799
0.121362546409244
0.121355552745163
0.121349096697494
0.121343178352048
0.121337797787506
0.121332955075412
0.12132865028017
0.121324883459038
0.121321654662126
0.121318963932389
0.121316811305632
0.121315196810497
0.121314120468471
0.121313582293877
0.121313582293877
0.121314120468471
0.121315196810498
0.121316811305632
0.12131896393239
0.121321654662126
0.121324883459038
0.12132865028017
0.121332955075412
0.121337797787506
0.121343178352048
0.121349096697494
0.121355552745163
0.121362546409243
0.121370077596799
0.121378146207775
0.121386752135002
0.121395895264207
0.121405575474018
0.121415792635977
0.12142654661454
0.121437837267093
0.12144966444396
0.121462027988411
0.121474927736674
0.121488363517944
0.121502335154398
0.121516842461203
0.121531885246529
0.121523592367455
0.121339913739756
0.120835828765287
0.120001593430402
0.118850868154362
0.117400525110721
0.115669693660891
0.113678514102614
0.111452091809498
0.107643422558623
0.103932045861304
0.100729997364744
0.0980239216531073
0.0957115799376167
0.0935103652701596
0.0912178338191047
0.0888186749075883
0.0863210685580074
0.0839455834793003
0.0809801671763703
0.0779744215055787
0.0749692892469021
0.0720269863722952