/*--------------------------------*- C++ -*----------------------------------*\
  =========                 |
  \\      /  F ield         | OpenFOAM: The Open Source CFD Toolbox
   \\    /   O peration     | Website:  https://openfoam.org
    \\  /    A nd           | Version:  7
     \\/     M anipulation  |
\*---------------------------------------------------------------------------*/
FoamFile
{
    version     2.0;
    format      ascii;
    class       volVectorField;
    location    "0";
    object      C;
}
// * * * * * * * * * * * * * * * * * * * * * * * * * * * * * * * * * * * * * //

dimensions      [0 1 0 0 0 0 0];

internalField   nonuniform List<vector> 
15600
(
(0.0473279108943568 1.00078220660841 0)
(0.141988535824134 1.00062080226748 0)
(0.236664901149957 0.998373716999994 -4.84373120263679e-18)
(0.331096869428095 0.9912298740387 -4.69835268537217e-18)
(0.424706931645726 0.97705089277624 9.33168401511651e-18)
(0.516551071023692 0.954180137532122 -4.69691709145213e-18)
(0.60590188475745 0.922964147706479 -2.35741878439658e-18)
(0.692787099626319 0.885435632082582 -3.93386361104635e-18)
(0.777663840608423 0.843604864653265 9.75667514269908e-18)
(0.861095272640194 0.798995010382346 1.08071625858198e-17)
(0.943640351830811 0.752783324718371 8.45679503625631e-18)
(1.02584155948949 0.705984696245107 3.19545533710299e-18)
(1.10820330932839 0.659481776262303 -4.31864678088305e-18)
(1.19098597161709 0.613722182640499 9.37224756980522e-20)
(1.2741820407402 0.5687016792703 -1.87846542512989e-19)
(1.35772100568557 0.52430508892961 0)
(1.44153106526324 0.480411151554311 -6.67118818996893e-18)
(1.52554198961625 0.436892305921439 -6.43528611458617e-18)
(1.60968646515508 0.393623847708707 -8.18789361476619e-18)
(1.6939690791527 0.350623156206016 0)
(1.77852924087984 0.308175142903793 0)
(1.86357254972948 0.266713293166975 -9.47849506102659e-20)
(1.94930678196449 0.226706507559659 0)
(2.03593096410636 0.18867173568581 1.55131622737384e-18)
(2.12362451093877 0.153189874315502 -3.16681785099284e-18)
(2.21251085196457 0.120828095412995 1.52785650524831e-18)
(2.30259502856003 0.0919678239688023 1.48094928126083e-18)
(2.39379018287805 0.0668356150479084 0)
(2.48597847886057 0.0456348354943141 -1.91572567937809e-19)
(2.57901790404949 0.0285545294734767 -7.22750080871043e-18)
(2.67274394725638 0.0157626175592415 9.60580307297625e-20)
(2.76696835798393 0.00739949238379331 -2.91836989036196e-18)
(2.86148467227373 0.00353937189224309 0)
(2.9561207225991 0.00273772312941814 0)
(3.05077654438781 0.00273772312941812 0)
(3.14543236617652 0.00273772312941826 0)
(3.24008818796523 0.00273772312941822 -9.63735265019932e-20)
(3.33474400975394 0.00273772312941816 0)
(3.42939983154266 0.00273772312941817 -3.48014518190919e-16)
(3.52405565333137 0.00273772312941831 -3.55979309808664e-16)
(3.61871147512009 0.00273772312941833 9.63735265019888e-20)
(3.7133672969088 0.0027377231294183 2.82015004924665e-18)
(3.80802311869751 0.00273772312941833 -2.91652357574832e-18)
(3.90267894048623 0.00273772312941833 5.64030009849323e-18)
(3.99733476227494 0.00273772312941823 -5.64030009849309e-18)
(4.09199058406366 0.00273772312941822 -3.50738294713683e-16)
(4.18664640585238 0.00273772312941814 -3.48136354463741e-16)
(4.28130222764109 0.00273772312941825 0)
(4.3759580494298 0.00273772312941827 0)
(4.47061387121851 0.00273772312941809 0)
(4.56526969300723 0.00273772312941813 -9.63735265019898e-20)
(4.65992551479594 0.00273772312941822 -9.63735265019898e-20)
(4.75458133658465 0.00273772312941813 5.64030009849358e-18)
(4.84923715837337 0.00273772312941809 -9.63735265019876e-20)
(4.94389298016208 0.00273772312941827 0)
(5.0385488019508 0.00273772312941833 9.63735265019875e-20)
(5.13320462373951 0.00273772312941817 -2.82015004924659e-18)
(5.22786044552823 0.00273772312941816 9.63735265019887e-20)
(5.32251626731693 0.00273772312941817 2.91652357574887e-18)
(5.41717208910565 0.00273772312941822 0)
(5.51182791089437 0.00273772312941822 -3.45194368141693e-16)
(5.60648373268308 0.00273772312941822 -3.48291747089876e-16)
(5.70113955447179 0.00273772312941816 9.637352650199e-20)
(5.7957953762605 0.00273772312941817 9.63735265019879e-20)
(5.89045119804922 0.00273772312941828 0)
(5.98510701983793 0.00273772312941832 -2.62740299624256e-18)
(6.07976284162665 0.00273772312941814 -9.63735265019883e-20)
(6.17441866341536 0.0027377231294182 0)
(6.26907448520407 0.00273772312941827 0)
(6.36373030699278 0.00273772312941817 0)
(6.4583861287815 0.00273772312941811 0)
(6.55304195057021 0.00273772312941827 0)
(6.64769777235892 0.00273772312941822 3.50738294713656e-16)
(6.74235359414764 0.00273772312941819 3.48240893110149e-16)
(6.83700941593635 0.00273772312941813 0)
(6.93166523772506 0.00273772312941822 2.82015004924674e-18)
(7.02632105951378 0.00273772312941829 2.82015004924647e-18)
(7.12097688130249 0.00273772312941833 0)
(7.2156327030912 0.00273772312941831 -2.91652357574863e-18)
(7.31028852487992 0.00273772312941819 3.45097994615168e-16)
(7.40494434666863 0.00273772312941827 3.42259017959843e-16)
(7.49960016845734 0.00273772312941828 0)
(7.59425599024606 0.00273772312941811 -2.91652357574864e-18)
(7.68891181203477 0.00273772312941822 -2.82015004924675e-18)
(7.78356763382348 0.00273772312941833 5.64030009849321e-18)
(7.8782234556122 0.0027377231294182 0)
(7.97287927740091 0.00273772312941819 0)
(8.06751504968815 0.00354808766322092 2.91555961060888e-18)
(8.16203053136999 0.00742720426853221 -9.65547645601332e-20)
(8.25625324877721 0.0158106616348717 -2.74373415068821e-18)
(8.34997648427948 0.0286223113522748 5.74582446344232e-18)
(8.44301227006086 0.0457216468343013 3.16497119371352e-16)
(8.53519645448357 0.0669406804221898 3.08593826231645e-16)
(8.62638688575764 0.0920902501502901 1.57838846590195e-18)
(8.71646580899858 0.120966926101459 -7.83525301997723e-18)
(8.80534657567534 0.153343831880447 0)
(8.89303479930482 0.188838578648595 0)
(8.97965471853457 0.226883613041055 1.77307179683036e-15)
(9.06538551653377 0.26689817985753 1.80086257603479e-15)
(9.1504259870852 0.308365442591677 -1.77321340418439e-18)
(9.23498442536069 0.350816895961776 4.01190791309106e-18)
(9.31926623386386 0.393819258965754 6.24052479759437e-18)
(9.40341013910767 0.437088667957834 1.10230693585105e-17)
(9.48742033429564 0.480608929906102 4.41287307712602e-18)
(9.57122932630573 0.524504858388599 0)
(9.65476693401259 0.568904024332456 7.76621612320055e-18)
(9.73796129812136 0.613927623341363 2.78660791768075e-18)
(9.82074195409878 0.659690810701823 -1.00802458807e-17)
(9.90310217848841 0.706196494023348 0)
(9.98530353313728 0.752994540754664 3.34672236137297e-18)
(10.067851440158 0.799201353501744 1.44144535864594e-17)
(10.1512884500659 0.843801623330085 -2.0334052648394e-18)
(10.2361727858548 0.885616553696006 0)
(10.3230679700918 0.923121296894774 8.68694246299177e-18)
(10.4124306960529 0.954303463170543 -4.60923093043725e-18)
(10.5042848804545 0.977133938870678 -7.12490520767284e-18)
(10.5979007912642 0.99127643554808 -2.25192886391734e-18)
(10.6923349679495 0.998393652775292 -9.67993218499294e-20)
(10.7870115969765 1.00062547658985 9.6405869852327e-20)
(10.8816720891056 1.00078220660841 0)
(0.0473207661383768 1.00237531226122 0)
(0.141967106865913 1.00221455201498 0)
(0.236629390280987 0.999976433479325 0)
(0.33104839596446 0.992861096967439 2.45814749754049e-18)
(0.424648896271955 0.978738697746414 -1.37485877488852e-17)
(0.516490526199629 0.955959223521636 -6.33478589266866e-18)
(0.60584857194337 0.924867837158272 0)
(0.69275065161204 0.887489120567587 0)
(0.777652138469194 0.845825310640525 -5.59153452993678e-18)
(0.861114006802246 0.801393487920773 8.68445003322512e-18)
(0.94369301295266 0.755366210788775 1.23435791227208e-18)
(1.02592949029681 0.70875432073707 -2.90343085784257e-15)
(1.10832585420238 0.662436952815191 -2.73988022583898e-15)
(1.19114146656945 0.616859948752596 0)
(1.2743688570717 0.572019090208036 4.86488998344385e-18)
(1.35793779254114 0.527799658317603 0)
(1.44177675565324 0.484080875984441 -2.17502763420606e-18)
(1.52581579463617 0.4407356904127 6.20677318399399e-18)
(1.60998786231534 0.397639894439262 2.16513599389998e-18)
(1.69429751845396 0.354810796403973 5.66108315795167e-18)
(1.77888360863057 0.312532169867198 0)
(1.86395091187304 0.271235770804937 -1.72710020550797e-18)
(1.94970637525358 0.23138862907334 0)
(2.03634823032631 0.193505631944255 6.54398026318542e-18)
(2.12405517489996 0.158165358553139 6.30143925443833e-18)
(2.21295014860949 0.125932718062841 -3.13960206525394e-18)
(2.30303817899246 0.0971876135338594 -2.6655817867729e-18)
(2.39423275482745 0.0721556955762393 5.94987119656791e-18)
(2.48641650968696 0.051039519119874 -5.83103097182457e-18)
(2.5794479973595 0.0340273736231674 -1.12897039236044e-17)
(2.67316336281017 0.0212865093048936 -2.83952625284126e-18)
(2.76737510652539 0.0129567583757599 -2.6300750084355e-18)
(2.86187758972162 0.00911204249040112 -1.92706509874208e-19)
(2.95649939466604 0.00831359291425462 2.94538866372325e-16)
(3.05114092694279 0.00831359291425473 2.93568647664347e-16)
(3.14578245921954 0.0083135929142548 5.6413460551713e-18)
(3.24042399149629 0.00831359291425469 0)
(3.33506552377305 0.00831359291425463 0)
(3.4297070560498 0.00831359291425471 6.29653045431432e-16)
(3.52434858832655 0.00831359291425469 6.31463354130147e-16)
(3.6189901206033 0.00831359291425474 0)
(3.71363165288006 0.00831359291425477 1.92753636335608e-19)
(3.80827318515681 0.00831359291425475 2.82067302758552e-18)
(3.90291471743357 0.0083135929142548 2.62791939125004e-18)
(3.99755624971033 0.00831359291425479 -2.82067302758545e-18)
(4.09219778198708 0.00831359291425474 9.24384665440097e-16)
(4.18683931426384 0.00831359291425471 9.28478977113494e-16)
(4.28148084654059 0.00831359291425466 0)
(4.37612237881734 0.00831359291425474 -2.82067302758559e-18)
(4.47076391109409 0.00831359291425462 0)
(4.56540544337085 0.00831359291425463 0)
(4.6600469756476 0.00831359291425468 0)
(4.75468850792436 0.0083135929142546 -2.82067302758546e-18)
(4.84933004020111 0.0083135929142546 0)
(4.94397157247786 0.00831359291425468 0)
(5.03861310475462 0.00831359291425474 0)
(5.13325463703137 0.00831359291425468 -2.82067302758556e-18)
(5.22789616930813 0.00831359291425463 0)
(5.32253770158488 0.00831359291425474 0)
(5.41717923386163 0.00831359291425463 -2.82067302758539e-18)
(5.51182076613838 0.00831359291425468 3.37742098450364e-16)
(5.60646229841514 0.00831359291425478 3.35173137781209e-16)
(5.70110383069189 0.00831359291425458 -1.92753636335607e-19)
(5.79574536296864 0.00831359291425468 0)
(5.8903868952454 0.00831359291425485 0)
(5.98502842752215 0.00831359291425469 0)
(6.07966995979891 0.00831359291425465 -2.8206730275855e-18)
(6.17431149207566 0.00831359291425477 -1.92753636335606e-19)
(6.26895302435241 0.00831359291425474 0)
(6.36359455662917 0.00831359291425458 -2.82067302758535e-18)
(6.45823608890592 0.00831359291425467 0)
(6.55287762118267 0.00831359291425474 0)
(6.64751915345942 0.00831359291425474 -3.37934852086692e-16)
(6.74216068573618 0.0083135929142547 -3.41122628539981e-16)
(6.83680221801293 0.0083135929142546 1.92753636335614e-19)
(6.93144375028968 0.00831359291425468 1.9275363633561e-19)
(7.02608528256644 0.00831359291425485 0)
(7.12072681484319 0.00831359291425475 0)
(7.21536834711994 0.00831359291425477 1.92753636335607e-19)
(7.3100098793967 0.00831359291425472 -3.38320359359362e-16)
(7.40465141167345 0.00831359291425474 -3.40858801469582e-16)
(7.4992929439502 0.00831359291425474 -2.82067302758557e-18)
(7.59393447622696 0.00831359291425463 2.62791939124992e-18)
(7.68857600850371 0.00831359291425469 -1.08971848376709e-17)
(7.78321754078047 0.00831359291425485 0)
(7.87785907305722 0.00831359291425479 -2.97359539399923e-16)
(7.97250060533397 0.00831359291425468 -2.96665055018416e-16)
(8.06712213297148 0.0091207234787678 -2.81970850676535e-18)
(8.16162378681067 0.0129843596716543 -5.64611188449844e-18)
(8.25583384396501 0.0213343616544315 0)
(8.3495464129188 0.0340948850123988 0)
(8.44257427570605 0.0511259840326347 -5.90630291689325e-16)
(8.53475393541163 0.0722603416822867 -5.98702268929942e-16)
(8.62594380704661 0.0973095511723213 -1.93619341655363e-19)
(8.71602660503253 0.126070994751714 -1.07066810628688e-17)
(8.80491602664236 0.158318701761786 1.72165084496387e-18)
(8.89261766929316 0.193671809136349 1.58843772963607e-18)
(8.97925527849078 0.231565027829853 -1.68111657349483e-15)
(9.06500732137657 0.271419919724977 -1.77085665738383e-15)
(9.15007179767402 0.312721710181632 -3.99874160908059e-18)
(9.23465617130105 0.355003763052495 0)
(9.31896502518367 0.397834525915732 0)
(9.40313652480809 0.440931268878983 5.81867733467873e-18)
(9.48717483748067 0.484277865121012 -6.52666384304878e-18)
(9.57101273722677 0.52799863062831 1.18687956063376e-17)
(9.65458032079641 0.572220627855495 -5.06144150581329e-18)
(9.73780601300832 0.617064569708826 1.9537641471449e-19)
(9.82061962696037 0.662645153192244 -3.91227433084085e-19)
(9.90301447150934 0.708965273430738 -1.95881358403473e-19)
(9.98525109537184 0.755576584019249 0)
(10.0678329182172 0.801599007610239 0)
(10.1513003424328 0.846021284059452 5.59331208267275e-18)
(10.2362093942791 0.887669320069945 -9.93469406832202e-18)
(10.323121404262 0.925024359064986 6.08778016531783e-18)
(10.4124913158142 0.956082056913201 -8.70106528330903e-18)
(10.5043429511627 0.978821412425216 0)
(10.5979492763466 0.992907472678509 0)
(10.6923704809173 0.999996289703801 0)
(10.7870330261133 1.00221920768424 -2.49147734162988e-18)
(10.8816792338616 1.00237531226122 4.59885893470433e-18)
(0.04731335964931 1.00402677798416 2.41127929444867e-18)
(0.141944892902767 1.0038666854278 0)
(0.236592578546052 1.00163786210814 -2.01739728686288e-18)
(0.330998146776611 0.994552076344846 2.37831788236124e-18)
(0.424588734892236 0.980488331962721 4.68617528097767e-15)
(0.516427763443162 0.957803482587951 4.48284123433728e-15)
(0.605793306132825 0.926841264042444 2.20920534503358e-18)
(0.692712868410629 0.889617833765593 6.12512468031938e-18)
(0.77764000765059 0.848127097259618 1.6082436015134e-18)
(0.861133427244525 0.803879827820349 1.29652102251898e-18)
(0.943747603188249 0.758043714687851 0)
(1.02602064224463 0.711625403976541 2.83909676730849e-15)
(1.10845288823231 0.665500385616724 2.6083483642679e-15)
(1.19130265773858 0.620112660048962 -5.1877964613538e-18)
(1.27456251701703 0.575458027348581 -9.57391795470805e-18)
(1.35816252092154 0.531422243814048 0)
(1.44203144639172 0.487885033017461 1.9071405223173e-18)
(1.52609962992785 0.444719869221397 -1.99544530911477e-18)
(1.61030030052993 0.401803060638813 0)
(1.69463798944418 0.359151842068492 -1.90925604690094e-19)
(1.77925095790731 0.317048807457586 -1.91036558682103e-19)
(1.86434313452936 0.275923920035797 -5.18882393193288e-18)
(1.9501206068157 0.236242270417175 0)
(2.03678078223068 0.19851660798817 0)
(2.12450161534292 0.163323109345249 -2.75541724346342e-18)
(2.21340553797427 0.131224337957687 4.4574860728184e-18)
(2.30349756331728 0.102598619209478 -2.56483810086181e-18)
(2.39469153947465 0.0776706661283752 2.68487472769665e-18)
(2.48687058685375 0.0566421919920041 1.92166197277662e-19)
(2.5798938462334 0.0397007039085817 -5.36021697198963e-18)
(2.67359814276925 0.0270127571880585 0)
(2.76779675544224 0.0187176030927228 -5.46025746687565e-18)
(2.86228490087232 0.0148888561340005 0)
(2.95689193858657 0.0140937229445716 -2.8388143137337e-16)
(3.05151865788519 0.0140937229445716 -2.83233372904071e-16)
(3.14614537718381 0.0140937229445716 0)
(3.24077209648243 0.0140937229445716 2.72820369608822e-18)
(3.33539881578105 0.0140937229445716 0)
(3.43002553507967 0.0140937229445716 -2.86995142826609e-16)
(3.52465225437829 0.0140937229445716 -2.77983588738293e-16)
(3.61927897367691 0.0140937229445715 -2.5354498175133e-18)
(3.71390569297553 0.0140937229445715 0)
(3.80853241227415 0.0140937229445716 0)
(3.90315913157277 0.0140937229445716 0)
(3.9977858508714 0.0140937229445715 0)
(4.09241257017002 0.0140937229445716 -5.65612920686383e-16)
(4.18703928946864 0.0140937229445716 -5.64663012076978e-16)
(4.28166600876726 0.0140937229445716 0)
(4.37629272806587 0.0140937229445715 0)
(4.47091944736449 0.0140937229445716 0)
(4.56554616666311 0.0140937229445716 3.85507757149944e-19)
(4.66017288596173 0.0140937229445716 0)
(4.75479960526036 0.0140937229445716 0)
(4.84942632455898 0.0140937229445716 3.85507757149939e-19)
(4.9440530438576 0.0140937229445715 -2.72820369608836e-18)
(5.03867976315621 0.0140937229445717 0)
(5.13330648245484 0.0140937229445717 5.45640739217619e-18)
(5.22793320175346 0.0140937229445717 0)
(5.32255992105208 0.0140937229445717 -2.72820369608809e-18)
(5.4171866403507 0.0140937229445717 5.45640739217619e-18)
(5.51181335964931 0.0140937229445718 1.92753878574971e-19)
(5.60644007894793 0.0140937229445717 2.53544981751304e-18)
(5.70106679824656 0.0140937229445718 1.92753878574965e-19)
(5.79569351754517 0.0140937229445717 -1.92753878574976e-19)
(5.89032023684379 0.0140937229445716 0)
(5.98494695614241 0.0140937229445716 0)
(6.07957367544103 0.0140937229445715 0)
(6.17420039473965 0.0140937229445716 0)
(6.26882711403827 0.0140937229445716 -1.92753878574971e-19)
(6.36345383333689 0.0140937229445716 -2.72820369608822e-18)
(6.45808055263552 0.0140937229445716 -1.92753878574967e-19)
(6.55270727193414 0.0140937229445715 5.45640739217669e-18)
(6.64733399123275 0.0140937229445716 0)
(6.74196071053137 0.0140937229445716 0)
(6.83658742982999 0.0140937229445717 2.92095757466335e-18)
(6.93121414912861 0.0140937229445716 0)
(7.02584086842724 0.0140937229445715 -2.7282036960881e-18)
(7.12046758772585 0.0140937229445716 2.92095757466346e-18)
(7.21509430702447 0.0140937229445716 0)
(7.30972102632309 0.0140937229445716 0)
(7.40434774562171 0.0140937229445716 0)
(7.49897446492033 0.0140937229445716 0)
(7.59360118421895 0.0140937229445716 -1.9275387857497e-19)
(7.68822790351758 0.0140937229445716 0)
(7.78285462281619 0.0140937229445716 -2.53544981751343e-18)
(7.87748134211481 0.0140937229445717 2.81538735434436e-16)
(7.97210806141344 0.0140937229445716 2.83306609380988e-16)
(8.06671482257881 0.0148975010655273 -2.72728459376962e-18)
(8.16120214202183 0.0187450897485897 0)
(8.25539907514102 0.0270604107880839 0)
(8.3491005867983 0.0397679348995674 -2.77734298427314e-18)
(8.44212023634686 0.056728297787051 2.82702705857034e-16)
(8.53429520557897 0.0777748776073512 2.89931211064704e-16)
(8.62548449707053 0.102720050408335 0)
(8.71557131174169 0.131362040352499 2.45674758342253e-18)
(8.80446970533777 0.163475815692044 6.08894723456412e-18)
(8.89218525858677 0.198682095020473 -1.94062858336177e-19)
(8.97884120578778 0.236417936559355 0)
(9.06461527182383 0.276107304158542 0)
(9.14970463326992 0.317237560580359 5.61160808195492e-18)
(9.23431589233845 0.359344007288477 -2.0149945011864e-18)
(9.31865278235374 0.401996883768915 -1.90462431734829e-18)
(9.40285288722339 0.444914635412917 1.80114557346214e-18)
(9.48692034740849 0.488081204027323 6.29476209554006e-18)
(9.57078821386808 0.531620389774255 -1.9501151888917e-19)
(9.65438687140716 0.575658728002958 6.84452420789043e-18)
(9.73764503936554 0.620316431230265 2.89037896553209e-18)
(9.82049281864233 0.665707721376292 0)
(9.90292355158922 0.711835480626741 8.85336005553893e-18)
(9.98519673667454 0.75825321423727 -3.3080967811325e-18)
(10.0678137177701 0.804084493914996 5.02628739458115e-18)
(10.1513126704478 0.848322256655052 -6.99524856519994e-18)
(10.2362473437671 0.889797284704975 -1.91615985577524e-18)
(10.3231767958742 0.926997135689586 0)
(10.4125541562533 0.957925805700928 6.29476907684938e-18)
(10.5044031491712 0.980570703085091 0)
(10.5979995375788 0.994598259451106 2.18673117360948e-18)
(10.6924072948281 1.00165763586756 -1.93179709219505e-19)
(10.7870552402615 1.00387132176063 0)
(10.8816866403507 1.00402677798416 0)
(0.0473056818391256 1.00573874167337 0)
(0.141921865177982 1.00557934126643 0)
(0.236554418290553 1.00336015368075 -2.32428771762552e-18)
(0.330946056814674 0.996305001222811 -2.30130938492061e-18)
(0.424526369624726 0.982302060412065 -4.53837742790702e-15)
(0.516362701505053 0.959715302207789 -4.31251076348728e-15)
(0.60573601578243 0.928886983024125 -9.73989118734678e-18)
(0.692673701111031 0.891824527335131 0)
(0.777627432449143 0.850513204196807 0)
(0.861153559106972 0.80645724867102 5.22340233018913e-18)
(0.943804193205389 0.760819302481259 5.99945463703014e-18)
(1.02611513333107 0.714601662642559 5.56360168817728e-18)
(1.10858457586751 0.668676040371859 0)
(1.19146975379221 0.623484527280492 0)
(1.27476327127668 0.579022942532338 0)
(1.35839548174718 0.535177535008964 4.26968203531221e-18)
(1.44229546718702 0.491828547302244 8.09278235939465e-18)
(1.52639386292893 0.44885000004742 7.31680232300111e-18)
(1.61062418426453 0.406118735718148 0)
(1.69499093287899 0.363651912886844 -1.56452861222635e-18)
(1.77963176426119 0.321730902677401 0)
(1.86474972544957 0.280783809894662 -3.21368073619121e-18)
(1.9505500128937 0.241273714865403 6.35002585236768e-18)
(2.03722917977892 0.203711150769393 -1.91428893338613e-19)
(2.12496441020635 0.168669803649214 4.2643150250286e-18)
(2.21387760958217 0.136709805351894 -2.93521151624745e-18)
(2.30397377622908 0.108207845796736 -5.51095720974344e-18)
(2.39516713073756 0.0833876660887053 0)
(2.48734129818454 0.0624501070259503 1.92166335251143e-19)
(2.58035602784264 0.0455818647110365 -2.68534900777553e-18)
(2.67404884997565 0.0329487740921005 2.75903220972988e-16)
(2.76823385057776 0.0246894842043369 2.76762892325895e-16)
(2.86270713300826 0.0208772911657571 0)
(2.95729886252635 0.0200855958568032 -1.92754129768344e-19)
(3.0519102262046 0.0200855958568033 -2.74158453444314e-16)
(3.14652158988285 0.0200855958568032 -2.7932262493017e-16)
(3.2411329535611 0.0200855958568032 1.92754129768343e-19)
(3.33574431723935 0.0200855958568032 0)
(3.4303556809176 0.0200855958568032 -5.08525032028807e-18)
(3.52496704459585 0.0200855958568032 4.89249619052023e-18)
(3.6195784082741 0.0200855958568031 0)
(3.71418977195235 0.0200855958568031 0)
(3.8088011356306 0.0200855958568032 -1.92754129768342e-19)
(3.90341249930886 0.0200855958568032 -5.27800445005662e-18)
(3.99802386298711 0.0200855958568032 -1.92754129768338e-19)
(4.09263522666537 0.0200855958568032 1.92754129768343e-19)
(4.18724659034362 0.0200855958568032 0)
(4.28185795402187 0.0200855958568032 0)
(4.37646931770012 0.0200855958568032 0)
(4.47108068137837 0.0200855958568031 0)
(4.56569204505662 0.0200855958568031 2.63900222502825e-18)
(4.66030340873487 0.0200855958568031 4.89249619052004e-18)
(4.75491477241312 0.0200855958568032 0)
(4.84952613609138 0.0200855958568032 5.27800445005662e-18)
(4.94413749976963 0.0200855958568032 0)
(5.03874886344787 0.0200855958568032 0)
(5.13336022712612 0.0200855958568033 5.4707585798252e-18)
(5.22797159080438 0.0200855958568033 5.08525032028852e-18)
(5.32258295448263 0.0200855958568033 5.08525032028853e-18)
(5.41719431816088 0.0200855958568033 2.44624809526e-18)
(5.51180568183913 0.0200855958568033 1.92754129768337e-19)
(5.60641704551738 0.0200855958568033 5.08525032028853e-18)
(5.70102840919563 0.0200855958568033 5.47075857982519e-18)
(5.79563977287389 0.0200855958568033 1.92754129768339e-19)
(5.89025113655214 0.0200855958568032 0)
(5.98486250023039 0.0200855958568032 -2.63900222502833e-18)
(6.07947386390864 0.0200855958568032 0)
(6.17408522758688 0.0200855958568032 0)
(6.26869659126513 0.0200855958568032 5.27800445005663e-18)
(6.36330795494339 0.0200855958568032 0)
(6.45791931862164 0.0200855958568032 5.27800445005662e-18)
(6.55253068229989 0.0200855958568032 0)
(6.64714204597814 0.0200855958568032 5.27800445005663e-18)
(6.74175340965639 0.0200855958568032 0)
(6.83636477333464 0.0200855958568032 0)
(6.9309761370129 0.0200855958568032 0)
(7.02558750069115 0.0200855958568032 2.44624809525999e-18)
(7.1201988643694 0.0200855958568032 0)
(7.21481022804765 0.0200855958568031 0)
(7.3094215917259 0.0200855958568032 2.63900222502832e-18)
(7.40403295540415 0.0200855958568032 0)
(7.49864431908241 0.0200855958568032 0)
(7.59325568276065 0.0200855958568032 2.63900222502832e-18)
(7.68786704643891 0.0200855958568032 5.27800445005664e-18)
(7.78247841011716 0.0200855958568032 0)
(7.87708977379541 0.0200855958568032 -1.92754129768336e-19)
(7.97170113747366 0.0200855958568032 0)
(8.06629259122866 0.0208858987195336 -5.08345176577046e-18)
(8.16076505116554 0.0247168520205877 -1.9293596254045e-19)
(8.25494837947761 0.032996221661911 0)
(8.34863842877596 0.0456488050321223 -1.93205269872198e-19)
(8.44164956420867 0.0625358405479255 -1.93340922921269e-19)
(8.53381967113858 0.0834914270191409 0)
(8.62500836123106 0.108328752003817 2.85351149944817e-18)
(8.71509933972717 0.13684691241474 0)
(8.80400703397709 0.168821849804157 1.22777197672557e-18)
(8.89173700740902 0.203875922359367 1.67211455148673e-18)
(8.97841196438837 0.241448621555403 1.73417633102336e-18)
(9.06420886034848 0.280966401203242 0)
(9.14932401856112 0.321918839771246 8.59018908820931e-18)
(9.23396314796577 0.363843247319456 3.90075368161364e-18)
(9.31832910116129 0.406311720889639 3.86863598690825e-18)
(9.40255885917189 0.449043924207993 -2.11975396093861e-18)
(9.48665653463045 0.492023870214764 0)
(9.57055546557473 0.535374824346687 4.66082616508958e-18)
(9.65418633541688 0.579222775531653 -4.72130097686643e-18)
(9.73747816880692 0.623687417556453 7.03640833535835e-18)
(9.82036136498749 0.668882479839528 5.16582074268406e-18)
(9.90282930103033 0.714810831156223 -1.13270547802703e-17)
(9.98514038667777 0.761027896343542 -1.30428270910499e-18)
(10.0677938139622 0.806661029901298 -8.27414228172074e-18)
(10.1513254500692 0.850707519749158 1.07950914770018e-17)
(10.2362866834446 0.892003202290485 0)
(10.3232342166351 0.929042180592231 -1.18864516986873e-17)
(10.4126192987195 0.959837096349828 2.21938436197472e-18)
(10.5044655524092 0.982384075392446 -4.53621410682128e-18)
(10.5980516400266 0.996350984668441 1.93776344189781e-19)
(10.6924454573388 1.00337984195411 1.93180012920283e-19)
(10.7870782681782 1.00558395755448 -2.33256524174125e-18)
(10.8816943181609 1.00573874167337 -2.33322121312163e-18)
(0.0472977227685564 1.00751341954205 -9.63808637280447e-20)
(0.1418979938811 1.00735473664012 -8.64340058711071e-18)
(0.236514860114413 1.0051455377811 2.24927581003838e-18)
(0.330892058645629 0.998122140844493 0)
(0.424461719734537 0.984182231054499 6.19146086315837e-18)
(0.516295256159714 0.961697157317837 -1.90068131054977e-19)
(0.605676626728001 0.931007642351745 3.37857337430783e-18)
(0.692633099010485 0.894112057879435 0)
(0.777614396586148 0.852986720288665 -1.89091686552698e-19)
(0.861174428450441 0.809129086964336 0)
(0.943862856260566 0.763696567202248 0)
(1.02621308587681 0.717686949563183 0)
(1.10872108758144 0.671968028058153 -1.8985593564525e-19)
(1.19164297104207 0.626979915448198 1.18100165096108e-17)
(1.2749713797349 0.582718450682206 -1.10997657013589e-17)
(1.35863697659561 0.539070393284702 -4.11782047477322e-18)
(1.4425691598257 0.495916523891129 0)
(1.5266988745373 0.453131429531725 -9.09020350322123e-18)
(1.6109599328016 0.4105925065175 -2.15302021566462e-18)
(1.69535680566023 0.368316834411543 -3.57719361764955e-18)
(1.78002652066419 0.326584516721751 0)
(1.8651712109852 0.285821731743131 1.74103655315186e-18)
(1.9509951493746 0.246489475867051 -2.97031567068463e-18)
(2.03769400344343 0.209095984875855 1.91428885126829e-19)
(2.12544415860053 0.174212363018907 0)
(2.21436697455241 0.14239622144452 5.48506812341831e-18)
(2.30446743420782 0.114022554702704 1.91882751706963e-19)
(2.39566014429102 0.0893140963775824 5.19017950125247e-18)
(2.48782925303653 0.0684707828316866 0)
(2.58083514050203 0.0516784694570681 2.40534698954921e-18)
(2.67451606788991 0.0391022444549131 -2.66795802826449e-16)
(2.76868695777098 0.0308801325753887 -2.66745090338632e-16)
(2.8631448327277 0.0270850998808596 -2.74473867196671e-18)
(2.95772069326651 0.0262969683971739 4.91315188747394e-18)
(3.05231613880362 0.026296968397174 2.69499482315675e-16)
(3.14691158434073 0.026296968397174 2.61902247783889e-16)
(3.24150702987785 0.026296968397174 0)
(3.33610247541496 0.0262969683971739 -1.92754390249749e-19)
(3.43069792095207 0.0262969683971738 5.10590627772336e-18)
(3.52529336648919 0.0262969683971738 0)
(3.6198888120263 0.0262969683971739 2.36019874861208e-18)
(3.71448425756341 0.0262969683971739 -7.4661050263357e-18)
(3.80907970310052 0.026296968397174 1.92754390249747e-19)
(3.90367514863764 0.026296968397174 -7.27335063608576e-18)
(3.99827059417475 0.026296968397174 5.10590627772328e-18)
(4.09286603971187 0.0262969683971739 0)
(4.18746148524898 0.0262969683971739 0)
(4.28205693078609 0.0262969683971739 2.36019874861206e-18)
(4.37665237632321 0.0262969683971739 2.36019874861209e-18)
(4.47124782186032 0.0262969683971739 0)
(4.56584326739744 0.0262969683971738 -1.92754390249754e-19)
(4.66043871293455 0.0262969683971738 0)
(4.75503415847166 0.0262969683971738 2.74570752911163e-18)
(4.84962960400877 0.0262969683971739 0)
(4.94422504954589 0.026296968397174 0)
(5.038820495083 0.0262969683971739 -5.10590627772356e-18)
(5.13341594062011 0.0262969683971739 -7.65885941658549e-18)
(5.22801138615722 0.0262969683971739 -7.46610502633567e-18)
(5.32260683169434 0.0262969683971739 -2.55295313886183e-18)
(5.41720227723145 0.0262969683971737 0)
(5.51179772276856 0.0262969683971737 -7.46610502633618e-18)
(5.60639316830567 0.0262969683971739 0)
(5.70098861384279 0.0262969683971739 -2.55295313886183e-18)
(5.7955840593799 0.0262969683971739 -5.10590627772364e-18)
(5.89017950491701 0.026296968397174 -2.55295313886178e-18)
(5.98477495045413 0.026296968397174 0)
(6.07937039599124 0.0262969683971739 -2.16744435836235e-18)
(6.17396584152835 0.0262969683971738 0)
(6.26856128706546 0.0262969683971739 -2.55295313886184e-18)
(6.36315673260258 0.0262969683971738 -1.9275439024976e-19)
(6.45775217813969 0.0262969683971739 -5.10590627772364e-18)
(6.5523476236768 0.0262969683971739 0)
(6.64694306921391 0.0262969683971738 0)
(6.74153851475103 0.0262969683971738 -1.92754390249746e-19)
(6.83613396028814 0.0262969683971739 0)
(6.93072940582525 0.026296968397174 0)