/*--------------------------------*- C++ -*----------------------------------*\
  =========                 |
  \\      /  F ield         | OpenFOAM: The Open Source CFD Toolbox
   \\    /   O peration     | Website:  https://openfoam.org
    \\  /    A nd           | Version:  7
     \\/     M anipulation  |
\*---------------------------------------------------------------------------*/
FoamFile
{
    version     2.0;
    format      ascii;
    class       volScalarField;
    location    "0";
    object      Cx;
}
// * * * * * * * * * * * * * * * * * * * * * * * * * * * * * * * * * * * * * //

dimensions      [0 1 0 0 0 0 0];

internalField   nonuniform List<scalar> 
15600
(
0.0473279108943568
0.141988535824134
0.236664901149957
0.331096869428095
0.424706931645726
0.516551071023692
0.60590188475745
0.692787099626319
0.777663840608423
0.861095272640194
0.943640351830811
1.02584155948949
1.10820330932839
1.19098597161709
1.2741820407402
1.35772100568557
1.44153106526324
1.52554198961625
1.60968646515508
1.6939690791527
1.77852924087984
1.86357254972948
1.94930678196449
2.03593096410636
2.12362451093877
2.21251085196457
2.30259502856003
2.39379018287805
2.48597847886057
2.57901790404949
2.67274394725638
2.76696835798393
2.86148467227373
2.9561207225991
3.05077654438781
3.14543236617652
3.24008818796523
3.33474400975394
3.42939983154266
3.52405565333137
3.61871147512009
3.7133672969088
3.80802311869751
3.90267894048623
3.99733476227494
4.09199058406366
4.18664640585238
4.28130222764109
4.3759580494298
4.47061387121851
4.56526969300723
4.65992551479594
4.75458133658465
4.84923715837337
4.94389298016208
5.0385488019508
5.13320462373951
5.22786044552823
5.32251626731693
5.41717208910565
5.51182791089437
5.60648373268308
5.70113955447179
5.7957953762605
5.89045119804922
5.98510701983793
6.07976284162665
6.17441866341536
6.26907448520407
6.36373030699278
6.4583861287815
6.55304195057021
6.64769777235892
6.74235359414764
6.83700941593635
6.93166523772506
7.02632105951378
7.12097688130249
7.2156327030912
7.31028852487992
7.40494434666863
7.49960016845734
7.59425599024606
7.68891181203477
7.78356763382348
7.8782234556122
7.97287927740091
8.06751504968815
8.16203053136999
8.25625324877721
8.34997648427948
8.44301227006086
8.53519645448357
8.62638688575764
8.71646580899858
8.80534657567534
8.89303479930482
8.97965471853457
9.06538551653377
9.1504259870852
9.23498442536069
9.31926623386386
9.40341013910767
9.48742033429564
9.57122932630573
9.65476693401259
9.73796129812136
9.82074195409878
9.90310217848841
9.98530353313728
10.067851440158
10.1512884500659
10.2361727858548
10.3230679700918
10.4124306960529
10.5042848804545
10.5979007912642
10.6923349679495
10.7870115969765
10.8816720891056
0.0473207661383768
0.141967106865913
0.236629390280987
0.33104839596446
0.424648896271955
0.516490526199629
0.60584857194337
0.69275065161204
0.777652138469194
0.861114006802246
0.94369301295266
1.02592949029681
1.10832585420238
1.19114146656945
1.2743688570717
1.35793779254114
1.44177675565324
1.52581579463617
1.60998786231534
1.69429751845396
1.77888360863057
1.86395091187304
1.94970637525358
2.03634823032631
2.12405517489996
2.21295014860949
2.30303817899246
2.39423275482745
2.48641650968696
2.5794479973595
2.67316336281017
2.76737510652539
2.86187758972162
2.95649939466604
3.05114092694279
3.14578245921954
3.24042399149629
3.33506552377305
3.4297070560498
3.52434858832655
3.6189901206033
3.71363165288006
3.80827318515681
3.90291471743357
3.99755624971033
4.09219778198708
4.18683931426384
4.28148084654059
4.37612237881734
4.47076391109409
4.56540544337085
4.6600469756476
4.75468850792436
4.84933004020111
4.94397157247786
5.03861310475462
5.13325463703137
5.22789616930813
5.32253770158488
5.41717923386163
5.51182076613838
5.60646229841514
5.70110383069189
5.79574536296864
5.8903868952454
5.98502842752215
6.07966995979891
6.17431149207566
6.26895302435241
6.36359455662917
6.45823608890592
6.55287762118267
6.64751915345942
6.74216068573618
6.83680221801293
6.93144375028968
7.02608528256644
7.12072681484319
7.21536834711994
7.3100098793967
7.40465141167345
7.4992929439502
7.59393447622696
7.68857600850371
7.78321754078047
7.87785907305722
7.97250060533397
8.06712213297148
8.16162378681067
8.25583384396501
8.3495464129188
8.44257427570605
8.53475393541163
8.62594380704661
8.71602660503253
8.80491602664236
8.89261766929316
8.97925527849078
9.06500732137657
9.15007179767402
9.23465617130105
9.31896502518367
9.40313652480809
9.48717483748067
9.57101273722677
9.65458032079641
9.73780601300832
9.82061962696037
9.90301447150934
9.98525109537184
10.0678329182172
10.1513003424328
10.2362093942791
10.323121404262
10.4124913158142
10.5043429511627
10.5979492763466
10.6923704809173
10.7870330261133
10.8816792338616
0.04731335964931
0.141944892902767
0.236592578546052
0.330998146776611
0.424588734892236
0.516427763443162
0.605793306132825
0.692712868410629
0.77764000765059
0.861133427244525
0.943747603188249
1.02602064224463
1.10845288823231
1.19130265773858
1.27456251701703
1.35816252092154
1.44203144639172
1.52609962992785
1.61030030052993
1.69463798944418
1.77925095790731
1.86434313452936
1.9501206068157
2.03678078223068
2.12450161534292
2.21340553797427
2.30349756331728
2.39469153947465
2.48687058685375
2.5798938462334
2.67359814276925
2.76779675544224
2.86228490087232
2.95689193858657
3.05151865788519
3.14614537718381
3.24077209648243
3.33539881578105
3.43002553507967
3.52465225437829
3.61927897367691
3.71390569297553
3.80853241227415
3.90315913157277
3.9977858508714
4.09241257017002
4.18703928946864
4.28166600876726
4.37629272806587
4.47091944736449
4.56554616666311
4.66017288596173
4.75479960526036
4.84942632455898
4.9440530438576
5.03867976315621
5.13330648245484
5.22793320175346
5.32255992105208
5.4171866403507
5.51181335964931
5.60644007894793
5.70106679824656
5.79569351754517
5.89032023684379
5.98494695614241
6.07957367544103
6.17420039473965
6.26882711403827
6.36345383333689
6.45808055263552
6.55270727193414
6.64733399123275
6.74196071053137
6.83658742982999
6.93121414912861
7.02584086842724
7.12046758772585
7.21509430702447
7.30972102632309
7.40434774562171
7.49897446492033
7.59360118421895
7.68822790351758
7.78285462281619
7.87748134211481
7.97210806141344
8.06671482257881
8.16120214202183
8.25539907514102
8.3491005867983
8.44212023634686
8.53429520557897
8.62548449707053
8.71557131174169
8.80446970533777
8.89218525858677
8.97884120578778
9.06461527182383
9.14970463326992
9.23431589233845
9.31865278235374
9.40285288722339
9.48692034740849
9.57078821386808
9.65438687140716
9.73764503936554
9.82049281864233
9.90292355158922
9.98519673667454
10.0678137177701
10.1513126704478
10.2362473437671
10.3231767958742
10.4125541562533
10.5044031491712
10.5979995375788
10.6924072948281
10.7870552402615
10.8816866403507
0.0473056818391256
0.141921865177982
0.236554418290553
0.330946056814674
0.424526369624726
0.516362701505053
0.60573601578243
0.692673701111031
0.777627432449143
0.861153559106972
0.943804193205389
1.02611513333107
1.10858457586751
1.19146975379221
1.27476327127668
1.35839548174718
1.44229546718702
1.52639386292893
1.61062418426453
1.69499093287899
1.77963176426119
1.86474972544957
1.9505500128937
2.03722917977892
2.12496441020635
2.21387760958217
2.30397377622908
2.39516713073756
2.48734129818454
2.58035602784264
2.67404884997565
2.76823385057776
2.86270713300826
2.95729886252635
3.0519102262046
3.14652158988285
3.2411329535611
3.33574431723935
3.4303556809176
3.52496704459585
3.6195784082741
3.71418977195235
3.8088011356306
3.90341249930886
3.99802386298711
4.09263522666537
4.18724659034362
4.28185795402187
4.37646931770012
4.47108068137837
4.56569204505662
4.66030340873487
4.75491477241312
4.84952613609138
4.94413749976963
5.03874886344787
5.13336022712612
5.22797159080438
5.32258295448263
5.41719431816088
5.51180568183913
5.60641704551738
5.70102840919563
5.79563977287389
5.89025113655214
5.98486250023039
6.07947386390864
6.17408522758688
6.26869659126513
6.36330795494339
6.45791931862164
6.55253068229989
6.64714204597814
6.74175340965639
6.83636477333464
6.9309761370129
7.02558750069115
7.1201988643694
7.21481022804765
7.3094215917259
7.40403295540415
7.49864431908241
7.59325568276065
7.68786704643891
7.78247841011716
7.87708977379541
7.97170113747366
8.06629259122866
8.16076505116554
8.25494837947761
8.34863842877596
8.44164956420867
8.53381967113858
8.62500836123106
8.71509933972717
8.80400703397709
8.89173700740902
8.97841196438837
9.06420886034848
9.14932401856112
9.23396314796577
9.31832910116129
9.40255885917189
9.48665653463045
9.57055546557473
9.65418633541688
9.73747816880692
9.82036136498749
9.90282930103033
9.98514038667777
10.0677938139622
10.1513254500692
10.2362866834446
10.3232342166351
10.4126192987195
10.5044655524092
10.5980516400266
10.6924454573388
10.7870782681782
10.8816943181609
0.0472977227685564
0.1418979938811
0.236514860114413
0.330892058645629
0.424461719734537
0.516295256159714
0.605676626728001
0.692633099010485
0.777614396586148
0.861174428450441
0.943862856260566
1.02621308587681
1.10872108758144
1.19164297104207
1.2749713797349
1.35863697659561
1.4425691598257
1.5266988745373
1.6109599328016
1.69535680566023
1.78002652066419
1.8651712109852
1.9509951493746
2.03769400344343
2.12544415860053
2.21436697455241
2.30446743420782
2.39566014429102
2.48782925303653
2.58083514050203
2.67451606788991
2.76868695777098
2.8631448327277
2.95772069326651
3.05231613880362
3.14691158434073
3.24150702987785
3.33610247541496
3.43069792095207
3.52529336648919
3.6198888120263
3.71448425756341
3.80907970310052
3.90367514863764
3.99827059417475
4.09286603971187
4.18746148524898
4.28205693078609
4.37665237632321
4.47124782186032
4.56584326739744
4.66043871293455
4.75503415847166
4.84962960400877
4.94422504954589
5.038820495083
5.13341594062011
5.22801138615722
5.32260683169434
5.41720227723145
5.51179772276856
5.60639316830567
5.70098861384279
5.7955840593799
5.89017950491701
5.98477495045413
6.07937039599124
6.17396584152835
6.26856128706546
6.36315673260258
6.45775217813969
6.5523476236768
6.64694306921391
6.74153851475103
6.83613396028814
6.93072940582525
7.02532485136236
7.11992029689948
7.21451574243659
7.30911118797371
7.40370663351082
7.49830207904793
7.59289752458504
7.68749297012216
7.78208841565927
7.87668386119639
7.9712793067335
8.06585489232381
8.16031194840831
8.25448117352919
8.34815934056752
8.44116164998501
8.53332671648918
8.62451478314802
8.71461007799872
8.80352741360991
8.89127233547697
8.97796699861873
9.06378756083131
9.14892946082376
9.2335974815389
9.31799356258611
9.40225406002101
9.48638305762937
9.57031419104426
9.65397845322387
9.73730518531261
9.82022509582532
9.9027315978233
9.98508197243542
10.0677731810271
10.151338697841
10.2363274642379
10.3232937408771
10.4126868275429
10.504530241661
10.5981056511386
10.6924850178532
10.7871021396739
10.8817022772314
0.0472894721342326
0.141873248109621
0.236473852807726
0.330836082366522
0.42439470152923
0.516225340096094
0.605615062088554
0.692591009548919
0.777600883186569
0.861196062290438
0.943923668293771
1.02631462668336
1.10886260009242
1.1918225337239
1.27518711179625
1.35888731809206
1.44285287861481
1.52701505960423
1.61130798078303
1.69573608142733
1.7804357381472
1.86560813676961
1.95145659250917
2.03817585496101
2.12594148158293
2.21487426639124
2.3049791763169
2.39617121836382
2.48833508308939
2.58133180444435
2.67500040134632
2.76915666358917
2.86359856665231
2.95815797688567
3.05273692115414
3.1473158654226
3.24189480969107
3.33647375395954
3.431052698228
3.52563164249646
3.62021058676493
3.71478953103339
3.80936847530186
3.90394741957033
3.99852636383879
4.09310530810726
4.18768425237573
4.28226319664419
4.37684214091266
4.47142108518112
4.56600002944959
4.66057897371805
4.75515791798651
4.84973686225498
4.94431580652344
5.03889475079191
5.13347369506038
5.22805263932884
5.32263158359731
5.41721052786578
5.51178947213424
5.6063684164027
5.70094736067117
5.79552630493963
5.8901052492081
5.98468419347657
6.07926313774503
6.17384208201349
6.26842102628196
6.36299997055042
6.45757891481889
6.55215785908735
6.64673680335582
6.74131574762428
6.83589469189275
6.93047363616122
7.02505258042968
7.11963152469814
7.21421046896661
7.30878941323507
7.40336835750354
7.497947301772
7.59252624604047
7.68710519030893
7.7816841345774
7.87626307884587
7.97084202311434
8.06540115924362
8.15984224718862
8.25399685247695
8.34766270197184
8.44065586204878
8.53281570347827
8.62400312386143
8.7141028931837
8.80303022334451
8.89079064125025
8.97750573244908
9.06335082787978
9.14852044928406
9.23321841968556
9.3176457322581
9.40193809519452
9.48609956237727
9.57006407793671
9.6537629557165
9.7371258649495
9.82008383475147
9.90263031548951
9.98502141832982
10.0677517922559
10.1513524309119
10.236369738938
10.3233554456564
10.4127568301431
10.5045973006697
10.5981616408349
10.6925260275834
10.7871268856516
10.8817105278658
0.047280919255343
0.141847595828935
0.236431343284825
0.330778055513287
0.424325228250464
0.51615286280472
0.605551242166763
0.692547378240887
0.777586874757243
0.861218488632069
0.943986708026785
1.02641988719714
1.1090092965923
1.19200867428779
1.27541074673418
1.35914683031397
1.4431469908407
1.52734282744555
1.61166877877291
1.6961292511705
1.78085994646176
1.86606106842424
1.95193493965797
2.03867535811188
2.12645702296214
2.2154001418121
2.30550966503045
2.39670101456482
2.48885944316303
2.58184666262324
2.67550247733596
2.76964357608719
2.86406892216068
2.95861127946683
3.05317311797751
3.1477349564882
3.24229679499888
3.33685863350957
3.43142047202025
3.52598231053094
3.62054414904163
3.71510598755231
3.809667826063
3.90422966457368
3.99879150308437
4.09335334159506
4.18791518010575
4.28247701861643
4.37703885712712
4.4716006956378
4.56616253414849
4.66072437265918
4.75528621116986
4.84984804968055
4.94440988819123
5.03897172670192
5.13353356521261
5.22809540372329
5.32265724223398
5.41721908074466
5.51178091925535
5.60634275776604
5.70090459627672
5.7954664347874
5.89002827329809
5.98459011180878
6.07915195031947
6.17371378883015
6.26827562734084
6.36283746585152
6.45739930436221
6.5519611428729
6.64652298138358
6.74108481989427
6.83564665840495
6.93020849691564
7.02477033542633
7.11933217393701
7.2138940124477
7.30845585095838
7.40301768946906
7.49757952797976
7.59214136649044
7.68670320500112
7.78126504351181
7.87582688202249
7.97038872053318
8.06493080461063
8.15935533945755
8.25349478934588
8.3471478700681
8.44013154563462
8.53228597057601
8.6234727210044
8.71357712870722
8.80251481954409
8.89029130115226
8.97702756874795
9.06289809612206
9.14809645445716
9.23282547169243
9.31728515989493
9.40161055566171
9.48580568187723
9.56980480247025
9.65353956392497
9.7369399755812
9.81993739889963
9.90252532291704
9.98495864597288
10.0677296199607
10.1513666670596
10.2364135622704
10.3234194108521
10.4128293971406
10.5046668162467
10.5982196815969
10.6925685396188
10.787152538146
10.8817190807447
0.0472720530598089
0.1418210038313
0.236387276515155
0.330717902967471
0.42425320996169
0.5160777304605
0.605485084345834
0.692502148605045
0.777572353164183
0.861241736506318
0.944052057065096
1.02652900367976
1.10916136698368
1.19220163369895
1.27564257405273
1.35941584921065
1.44345187724443
1.52768260237136
1.61204279384079
1.69653682386634
1.78129969476565
1.86653059229096
1.95243081006457
2.03919315952715
2.12699145013136
2.21594528158578
2.3060595870909
2.39725021873956
2.4894030120652
2.58238038154548
2.67602294581827
2.77014832559462
2.86455650814868
2.95908118783013
3.05362529394975
3.14816940006936
3.24271350618898
3.3372576123086
3.43180171842822
3.52634582454783
3.62088993066745
3.71543403678707
3.80997814290669
3.90452224902631
3.99906635514593
4.09361046126555
4.18815456738517
4.28269867350478
4.3772427796244
4.47178688574402
4.56633099186364
4.66087509798326
4.75541920410287
4.84996331022249
4.94450741634211
5.03905152246173
5.13359562858134
5.22813973470096
5.32268384082058
5.4172279469402
5.51177205305982
5.60631615917943
5.70086026529905
5.79540437141867
5.88994847753829
5.98449258365791
6.07903668977752
6.17358079589714
6.26812490201676
6.36266900813637
6.45721311425599
6.55175722037561
6.64630132649523
6.74084543261485
6.83538953873447
6.92993364485408
7.0244777509737
7.11902185709332
7.21356596321294
7.30811006933255
7.40265417545217
7.49719828157179
7.59174238769141
7.68628649381103
7.78083059993064
7.87537470605026
7.96991881216987
8.06444321953006
8.1588505948917
8.25297433419318
8.34661417838352
8.43958802199128
8.53173683201881
8.62292288794559
8.71303210394212
8.80198053499356
8.88977366876298
8.97653188850924
9.06242877947508
9.1476569274616
9.23241812887002
9.31691137871913
9.40127101740802
9.48550103568817
9.56953602900209
9.65330798866002
9.73674727656765
9.81978559870459
9.90241648419118
9.98489357410548
10.0677066354389
10.1513814247131
10.2364589909652
10.3234857192684
10.4129046224776
10.5047388783831
10.5982798485608
10.692612608993
10.7871791303652
10.8817279469402
0.0472628620699511
0.141793437691985
0.236341595452292
0.330655546858955
0.424178553431679
0.515999845801253
0.605416502982521
0.692455262091052
0.777557299609154
0.861265836007594
0.944119800003511
1.02664211738429
1.10931900812566
1.19240166174981
1.27588289386113
1.35969472303813
1.44376793251459
1.52803482423553
1.61243051016626
1.69695932713669
1.78175555233395
1.86701731619102
1.95294484565732
2.03972992952588
2.12754545493236
2.21651039142162
2.30662965439807
2.39781954185797
2.4899664934703
2.58293365213389
2.67656248056256
2.77067156553175
2.86506195581775
2.9595683102926
3.0540940344325
3.1486197585724
3.2431454827123
3.3376712068522
3.4321969309921
3.52672265513201
3.62124837927191
3.71577410341181
3.81029982755172
3.90482555169162
3.99935127583152
4.09387699997142
4.18840272411133
4.28292844825123
4.37745417239113
4.47197989653103
4.56650562067094
4.66103134481084
4.75555706895074
4.85008279309064
4.94460851723054
5.03913424137045
5.13365996551035
5.22818568965025
5.32271141379015
5.41723713793006
5.51176286206996
5.60628858620986
5.70081431034976
5.79534003448966
5.88986575862957
5.98439148276947
6.07891720690937
6.17344293104927
6.26796865518917
6.36249437932907
6.45702010346898
6.55154582760888
6.64607155174878
6.74059727588868
6.83512300002859
6.92964872416849
7.02417444830839
7.11870017244829
7.2132258965882
7.3077516207281
7.402277344868
7.4968030690079
7.59132879314781
7.68585451728771
7.7803802414276
7.87490596556751
7.96943168970741
8.06393777280167
8.15832736007717
8.25243481326679
8.34606093603056
8.43902458750296
8.53116757692166
8.62235291290045
8.71246711332794
8.80142667803579
8.88923707398214
8.97601805005079
9.06194227038583
9.14720129930884
9.23199586389403
9.3165239048539
9.40091904088601
9.48518522943245
9.5692574095939
9.65306793013868
9.73654751845359
9.81962823765702
9.90230365841841
9.98482611849129
10.0676828089376
10.1513967229759
10.23650608383
10.323554456744
10.4129826035361
10.5048135803673
10.5983422196158
10.6926582927558
10.7872066967342
10.88173713793
0.0472533343876309
0.141764861725522
0.236294240960074
0.330590906464757
0.424101162013907
0.515919108001841
0.605345409296273
0.692406658003774
0.777541694605297
0.861290818332718
0.944190024535657
1.02675937473817
1.10948242408874
1.19260901738319
1.27613201726245
1.35998381280995
1.44409556579837
1.52839994900492
1.61283242966582
1.69739730793174
1.7822281092959
1.86752187021193
1.95347771188027
2.04028636298298
2.12811975455107
2.2170962028812
2.30722060493066
2.39840972093489
2.4905506168303
2.58350719062167
2.67712178002012
2.77121397325543
2.86558591949194
2.96007327745557
3.05457994623083
3.14908661500609
3.24359328378135
3.33809995255661
3.43260662133187
3.52711329010713
3.62161995888239
3.71612662765766
3.81063329643292
3.90513996520819
3.99964663398345
4.09415330275871
4.18865997153397
4.28316664030923
4.37767330908449
4.47217997785976
4.56668664663502
4.66119331541028
4.75569998418554
4.8502066529608
4.94471332173607
5.03921999051133
5.13372665928659
5.22823332806185
5.32273999683711
5.41724666561238
5.51175333438764
5.6062600031629
5.70076667193816
5.79527334071342
5.88978000948868
5.98428667826395
6.07879334703921
6.17330001581447
6.26780668458973
6.362313353365
6.45682002214025
6.55132669091552
6.64583335969078
6.74034002846604
6.8348466972413
6.92935336601656
7.02386003479182
7.11836670356709
7.21287337234234
7.30738004111761
7.40188670989287
7.49639337866814
7.5909000474434
7.68540671621865
7.77991338499392
7.87442005376918
7.96892672254444
8.06341381010263
8.15778495766374
8.25187552813332
8.34548742681255
8.43844051277842
8.53057746835782
8.62176205800967
8.71188142545745
8.80085253167621
8.88868082216168
8.97548538818377
9.06143793904489
9.14672898016661
9.2315581301228
9.31612223669664
9.40055417044634
9.48485785428526
9.56896858356155
9.65281907759618
9.73634044264554
9.81946511204906
9.90218669954404
9.98475619180902
10.067658109613
10.1514125816519
10.2365549018275
10.3236257122614
10.4130634412662
10.504891018904
10.5984068755039
10.6927056500468
10.7872352729388
10.8817466656124
0.0472434576788485
0.141735238939005
0.236245151736157
0.330523898104819
0.424020935521487
0.515835412543596
0.605271711254325
0.692356273424723
0.77752551795194
0.861316715821271
0.944262821567503
1.02688092753273
1.10965182641887
1.19282396902768
1.27639026675616
1.36028349276457
1.44443520123106
1.52877844934982
1.61324907264254
1.69785133323796
1.78271797739891
1.86804490752319
1.9540300985546
2.04086318022858
2.12871509244608
2.21770347432527
2.30783320370169
2.39902151998404
2.49115613831901
2.58410173947964
2.67770156822843
2.77177625093598
2.86612907746501
2.96059674302103
3.05508365837872
3.14957057373642
3.24405748909412
3.33854440445182
3.43303131980952
3.52751823516721
3.62200515052491
3.71649206588261
3.81097898124031
3.905465896598
3.9999528119557
4.0944397273134
4.1889266426711
4.28341355802879
4.37790047338649
4.47238738874419
4.56687430410188
4.66136121945958
4.75584813481728
4.85033505017498
4.94482196553267
5.03930888089037
5.13379579624807
5.22828271160576
5.32276962696346
5.41725654232116
5.51174345767885
5.60623037303655
5.70071728839425
5.79520420375194
5.88969111910964
5.98417803446734
6.07866494982504
6.17315186518273
6.26763878054043
6.36212569589813
6.45661261125583
6.55109952661352
6.64558644197122
6.74007335732892
6.83456027268661
6.92904718804431
7.02353410340201
7.1180210187597
7.2125079341174
7.30699484947509
7.40148176483279
7.49596868019049
7.59045559554819
7.68494251090589
7.77942942626358
7.87391634162128
7.96840325697898
8.06287065314044
8.15722268548798
8.25129575477382
8.34489290829657
8.4378350417068
8.52996574240481
8.62114955838409
8.71127428212987
8.80025735265466
8.88810419320659
8.97493321335153
9.06091513257105
9.14623935859534
9.23110436088959
9.31570585426964
9.40017593374807
9.48451848644546
9.56866917700794
9.65256110888362
9.73612578107726
9.81929601071057
9.90206545616318
9.98468370353786
10.067632505492
10.1514290212699
10.2366055081526
10.323699578063
10.4131472403157
10.5049712942417
10.5984738999253
10.6927547421721
10.7872648959721
10.8817565423212
0.0472332191577758
0.141704530984564
0.236194264232232
0.330454435033855
0.423937770097155
0.515748651079055
0.605195313452555
0.692304043130604
0.777508748708442
0.861343561997473
0.944338285335018
1.0270069331196
1.10982743441148
1.19304679494497
1.27665797665577
1.36059415084974
1.44478727848527
1.52917081525565
1.61368097845972
1.69832199081222
1.78322579080044
1.86858710522176
1.95460272077171
2.04146112798067
2.12933223931101
2.21833299189554
2.30846824374875
2.39965573100716
2.49178384181101
2.58471806837737
2.67830259574847
2.77235912646611
2.86669213287845
2.96113938463788
3.05560582295343
3.15007226126898
3.24453869958454
3.33900513790009
3.43347157621564
3.52793801453119
3.62240445284674
3.7168708911623
3.81133732947785
3.9058037677934
4.00027020610896
4.09473664442451
4.18920308274006
4.28366952105561
4.37813595937116
4.47260239768671
4.56706883600226
4.66153527431782
4.75600171263337
4.85046815094892
4.94493458926447
5.03940102758002
5.13386746589557
5.22833390421113
5.32280034252668
5.41726678084223
5.51173321915778
5.60619965747333
5.70066609578889
5.79513253410444
5.88959897241999
5.98406541073554
6.07853184905109
6.17299828736664
6.26746472568219
6.36193116399774
6.4563976023133
6.55086404062885
6.6453304789444
6.73979691725995
6.8342633555755
6.92872979389105
7.02319623220661
7.11766267052216
7.21212910883771
7.30659554715326
7.40106198546881
7.49552842378437
7.58999486209992
7.68446130041547
7.77892773873102
7.87339417704657
7.96786061536213
8.06230759877491
8.15663981566429
8.25069474264653
8.34427661085233
8.43720739047879
8.52933160715552
8.62051462111442
8.71064489736934
8.79964037048316
8.88750644064265
8.9743608107369
9.06037317416614
9.14573180075678
9.23063396876909
9.31527421854689
9.39978384114699
9.4841666865869
9.56835880233927
9.65229369005104
9.73590325586255
9.81912071473587
9.90193977132465
9.98460855984181
10.0676059634301
10.1514460631113
10.2366579683161
10.3237761497697
10.4132341091668
10.5050545103006
10.598543379646
10.6928056326837
10.7872956041824
10.8817667808422
0.0472226055702049
0.141672698109324
0.236141512572193
0.330382427328681
0.42385155807928
0.515658711291679
0.605116116991974
0.692249899508922
0.777491365167061
0.861371391613571
0.944416513526151
1.02713755461456
1.11000947539509
1.19327778359013
1.27693549352148
1.36091618922481
1.4451522533399
1.52957755465742
1.61412870623897
1.69880988994256
1.78375220688898
1.86914916520867
1.95519631981889
2.04208098031169
2.12997199407224
2.21898557053238
2.30912654716069
2.4003131750192
2.49243453989637
2.58535697517954
2.67892564063629
2.77296335440322
2.86727581463176
2.96170190477914
3.05614711591955
3.15059232705996
3.24503753820037
3.33948274934078
3.43392796048119
3.5283731716216
3.62281838276201
3.71726359390242
3.81170880504283
3.90615401618324
4.00059922732365
4.09504443846406
4.18948964960447
4.28393486074488
4.37838007188529
4.4728252830257
4.56727049416611
4.66171570530652
4.75616091644693
4.85060612758734
4.94505133872775
5.03949654986816
5.13394176100857
5.22838697214898
5.32283218328939
5.4172773944298
5.51172260557021
5.60616781671062
5.70061302785103
5.79505823899144
5.88950345013185
5.98394866127226
6.07839387241267
6.17283908355308
6.26728429469349
6.3617295058339
6.45617471697431
6.55061992811472
6.64506513925512
6.73951035039554
6.83395556153595
6.92840077267636
7.02284598381677
7.11729119495718
7.21173640609759
7.306181617238
7.40062682837841
7.49507203951882
7.58951725065923
7.68396246179964
7.77840767294005
7.87285288408045
7.96729809522087
8.06172391810791
8.15603559364266
8.25007171371534
8.34363773665586
8.43655674657197
8.5286742416931
8.61985642424488
8.70999245640741
8.79900078644855
8.88688679065006
8.97376743933689
9.05981136223896
9.14520564959324
9.23014634481685
9.3148267707564
9.39937738506198
9.48380199928974
9.56803705776312
9.65201647491502
9.73567257893558
9.81893899720026
9.90180948232797
9.9845306634473
10.0675784490688
10.1514637292363
10.2367123502276
10.3238555265062
10.4133241602744
10.5051407748079
10.598615404611
10.6928583874615
10.7873274373228
10.8817773944298
0.0472116031763901
0.141639699104246
0.236086828466808
0.330307781771996
0.423762187862139
0.51556547675048
0.605034019350725
0.692193772470414
0.777473344824914
0.861400240694813
0.94449760740727
1.02727296110846
1.11019818502584
1.19351723398501
1.27722317660887
1.36125002478124
1.44553059827035
1.52999919409716
1.6145928355842
1.69931566223701
1.78429790713508
1.8697318150976
1.95581166413895
2.04272353965067
2.13063518492318
2.21966205502979
2.30980896614181
2.40099470311124
2.49310907493261
2.58601928697878
2.67957150945027
2.7735897169462
2.867880878326
2.96228503165133
3.0567082380041
3.15113144435688
3.24555465070967
3.33997785706244
3.43440106341522
3.52882426976801
3.62324747612079
3.71767068247357
3.81209388882635
3.90651709517913
4.00094030153191
4.09536350788469
4.18978671423747
4.28420992059025
4.37863312694303
4.47305633329581
4.56747953964859
4.66190274600138
4.75632595235416
4.85074915870694
4.94517236505971
5.03959557141249
5.13401877776528
5.22844198411805
5.32286519047083
5.41728839682361
5.5117116031764
5.60613480952918
5.70055801588196
5.79498122223474
5.88940442858752
5.9838276349403
6.07825084129308
6.17267404764586
6.26709725399864
6.36152046035142
6.4559436667042
6.55036687305698
6.64479007940976
6.73921328576254
6.83363649211532
6.9280596984681
7.02248290482088
7.11690611117366
7.21132931752644
7.30575252387922
7.400175730232
7.49459893658478
7.58902214293756
7.68344534929034
7.77786855564312
7.8722917619959
7.96671496834868
8.06111885553979
8.15540923723186
8.24942586144252
8.34297545865673
8.43588226769897
8.52799279502815
8.61917411570908
8.70931611462833
8.79833777257842
8.88624444106179
8.9731523310034
9.05922896949691
9.14466022397714
9.22964085778112
9.31436293165679
9.39895603931771
9.48342395245085
9.56770352676836
9.65172910461056
9.73543345167808
9.81875062286639
9.90167442051267
9.98444991351725
10.0675499267908
10.1514820425138
10.2367687242855
10.3239378110271
10.4134175102139
10.5052301994373
10.5986900680598
10.6929130747989
10.7873604366028
10.8817883968236
0.0472001977332616
0.14160549125077
0.236030141125095
0.330230401731624
0.423669543751662
0.515468826759255
0.604948914251357
0.692135589358376
0.777454664354791
0.861430146586093
0.944581671954245
1.0274133278863
1.11039380759231
1.1937654561053
1.27752139833395
1.3615960896823
1.44592280306003
1.53043627940563
1.61507396733178
1.69983996244118
1.78486359797348
1.87033580915689
1.95644955032502
2.04338963782192
2.13132267039637
2.22036332112898
2.31051638411508
2.4017011975522
2.49380832013512
2.58670586116643
2.68024103829519
2.77423902494801
2.86850810724194
2.96288952013714
3.05728991560366
3.15169031107018
3.2460907065367
3.34049110200323
3.43489149746975
3.52929189293628
3.6236922884028
3.71809268386932
3.81249307933585
3.90689347480237
4.00129387026889