/*--------------------------------*- C++ -*----------------------------------*\
  =========                 |
  \\      /  F ield         | OpenFOAM: The Open Source CFD Toolbox
   \\    /   O peration     | Website:  https://openfoam.org
    \\  /    A nd           | Version:  7
     \\/     M anipulation  |
\*---------------------------------------------------------------------------*/
FoamFile
{
    version     2.0;
    format      ascii;
    class       volSymmTensorField;
    location    "0";
    object      tauij_LES;
}
// * * * * * * * * * * * * * * * * * * * * * * * * * * * * * * * * * * * * * //

dimensions      [0 2 -2 0 0 0 0];

internalField   nonuniform List<symmTensor>
15600
(
(0.00746842 -0.00005234 0.00000000 0.00000719 0.00000000 0.00328030)
(0.00935230 -0.00010295 0.00000000 0.00002175 0.00000000 0.00395837)
(0.00633050 -0.00003723 0.00000000 -0.00000630 0.00000000 0.00255240)
(-0.00012879 -0.00004980 0.00000000 0.00004536 0.00000000 0.00241119)
(0.00060933 0.00013509 0.00000000 -0.00007525 0.00000000 0.00056654)
(0.00091404 -0.00036733 0.00000000 0.00031976 0.00000000 0.00350148)
(0.00174008 0.00038037 0.00000000 -0.00026357 0.00000000 0.00244054)
(0.00163613 -0.00014868 0.00000000 -0.00002029 0.00000000 0.00222833)
(0.00175732 -0.00067432 0.00000000 0.00037255 0.00000000 0.00514766)
(0.00061015 -0.00096250 0.00000000 0.00083481 0.00000000 0.00258795)
(0.00137236 -0.00126624 0.00000000 0.00103002 0.00000000 0.00299285)
(0.00153550 -0.00113821 0.00000000 0.00084226 0.00000000 0.00291269)
(0.00080033 -0.00067485 0.00000000 0.00050761 0.00000000 0.00111283)
(0.00371636 -0.00071649 0.00000000 -0.00001381 0.00000000 0.00428595)
(0.00250994 -0.00127267 0.00000000 0.00071913 0.00000000 0.00647254)
(0.00140162 -0.00032584 0.00000000 0.00006030 0.00000000 0.00327869)
(0.00218837 -0.00106472 0.00000000 0.00054418 0.00000000 0.00499727)
(0.00154154 -0.00104295 0.00000000 0.00070120 0.00000000 0.00282246)
(0.00137318 -0.00087108 0.00000000 0.00055336 0.00000000 0.00153501)
(0.00186301 -0.00089966 0.00000000 0.00047209 0.00000000 0.00461877)
(0.00141068 -0.00087478 0.00000000 0.00053932 0.00000000 0.00267391)
(0.00301232 -0.00052656 0.00000000 -0.00000734 0.00000000 0.00336061)
(0.00263192 -0.00094009 0.00000000 0.00039630 0.00000000 0.00484942)
(0.00268413 -0.00044198 0.00000000 0.00002161 0.00000000 0.00311178)
(0.00242253 -0.00107775 0.00000000 0.00052507 0.00000000 0.00495528)
(0.00128939 -0.00025077 0.00000000 0.00004284 0.00000000 0.00246857)
(0.00364450 -0.00098681 0.00000000 0.00033081 0.00000000 0.00453393)
(0.00328945 -0.00022780 0.00000000 0.00005050 0.00000000 0.00462977)
(0.00268724 -0.00006415 0.00000000 0.00001618 0.00000000 0.00368516)
(0.00457233 -0.00064522 0.00000000 0.00027526 0.00000000 0.00908898)
(0.00472014 -0.00154456 0.00000000 0.00052190 0.00000000 0.00804996)
(0.01057765 0.00019870 0.00000000 0.00016796 0.00000000 0.01486374)
(0.00629265 0.00002562 0.00000000 -0.00002416 0.00000000 0.00735150)
(0.00512512 0.00001966 0.00000000 -0.00003036 0.00000000 0.00605771)
(0.00531116 0.00001848 0.00000000 -0.00003185 0.00000000 0.00629042)
(0.00534271 0.00001892 0.00000000 -0.00003304 0.00000000 0.00660581)
(0.00541062 0.00001643 0.00000000 -0.00003546 0.00000000 0.00674696)
(0.00542874 0.00001428 0.00000000 -0.00003725 0.00000000 0.00680984)
(0.00535707 0.00001327 0.00000000 -0.00003898 0.00000000 0.00677064)
(0.00539384 0.00001137 0.00000000 -0.00004050 0.00000000 0.00666193)
(0.00529286 0.00000999 0.00000000 -0.00003767 0.00000000 0.00655296)
(0.00518243 0.00000731 0.00000000 -0.00003594 0.00000000 0.00642353)
(0.00509323 0.00000751 0.00000000 -0.00003880 0.00000000 0.00632709)
(0.00506835 0.00000317 0.00000000 -0.00003406 0.00000000 0.00626720)
(0.00492097 0.00000342 0.00000000 -0.00003266 0.00000000 0.00615864)
(0.00470990 0.00000356 0.00000000 -0.00003680 0.00000000 0.00595895)
(0.00474223 -0.00000584 0.00000000 -0.00001526 0.00000000 0.00585071)
(0.00451634 0.00000198 0.00000000 -0.00003218 0.00000000 0.00555184)
(0.00448739 -0.00000251 0.00000000 -0.00002366 0.00000000 0.00542707)
(0.00437393 -0.00000786 0.00000000 -0.00001179 0.00000000 0.00530308)
(0.00410044 -0.00000153 0.00000000 -0.00002477 0.00000000 0.00498610)
(0.00392822 -0.00000161 0.00000000 -0.00002421 0.00000000 0.00480024)
(0.00385798 -0.00000379 0.00000000 -0.00002056 0.00000000 0.00460568)
(0.00365238 -0.00000204 0.00000000 -0.00002223 0.00000000 0.00438841)
(0.00369771 -0.00000948 0.00000000 -0.00000951 0.00000000 0.00434128)
(0.00336523 -0.00000012 0.00000000 -0.00002338 0.00000000 0.00401412)
(0.00330333 -0.00000157 0.00000000 -0.00001905 0.00000000 0.00392497)
(0.00327508 -0.00000545 0.00000000 -0.00001486 0.00000000 0.00386690)
(0.00323960 -0.00000764 0.00000000 -0.00001181 0.00000000 0.00374928)
(0.00306334 -0.00000323 0.00000000 -0.00001600 0.00000000 0.00358134)
(0.00290006 -0.00000150 0.00000000 -0.00001713 0.00000000 0.00341257)
(0.00285820 -0.00000566 0.00000000 -0.00001168 0.00000000 0.00333088)
(0.00276043 -0.00000511 0.00000000 -0.00001139 0.00000000 0.00320373)
(0.00255478 -0.00000087 0.00000000 -0.00001448 0.00000000 0.00301047)
(0.00242721 0.00000186 0.00000000 -0.00001552 0.00000000 0.00284202)
(0.00234271 0.00000138 0.00000000 -0.00001497 0.00000000 0.00275040)
(0.00229523 -0.00000174 0.00000000 -0.00001124 0.00000000 0.00268307)
(0.00217798 -0.00000063 0.00000000 -0.00001148 0.00000000 0.00255702)
(0.00211652 -0.00000248 0.00000000 -0.00000953 0.00000000 0.00246754)
(0.00200903 -0.00000044 0.00000000 -0.00001060 0.00000000 0.00233749)
(0.00193015 -0.00000001 0.00000000 -0.00001017 0.00000000 0.00226882)
(0.00187319 -0.00000168 0.00000000 -0.00000817 0.00000000 0.00218700)
(0.00175283 0.00000076 0.00000000 -0.00000951 0.00000000 0.00206614)
(0.00168897 0.00000094 0.00000000 -0.00000931 0.00000000 0.00199188)
(0.00160463 0.00000245 0.00000000 -0.00000985 0.00000000 0.00192283)
(0.00158078 0.00000143 0.00000000 -0.00000849 0.00000000 0.00188136)
(0.00162392 -0.00000229 0.00000000 -0.00000576 0.00000000 0.00187713)
(0.00147675 0.00000230 0.00000000 -0.00000848 0.00000000 0.00177087)
(0.00142755 0.00000190 0.00000000 -0.00000804 0.00000000 0.00171428)
(0.00141765 -0.00000049 0.00000000 -0.00000601 0.00000000 0.00169732)
(0.00127509 0.00000356 0.00000000 -0.00000833 0.00000000 0.00159815)
(0.00123022 0.00000216 0.00000000 -0.00000702 0.00000000 0.00155401)
(0.00115737 0.00000204 0.00000000 -0.00000667 0.00000000 0.00150313)
(0.00106477 0.00000364 0.00000000 -0.00000721 0.00000000 0.00144441)
(0.00103485 0.00000141 0.00000000 -0.00000557 0.00000000 0.00143997)
(0.00093462 0.00000286 0.00000000 -0.00000645 0.00000000 0.00139073)
(0.00086491 0.00000268 0.00000000 -0.00000602 0.00000000 0.00137822)
(0.00108672 -0.00000176 0.00000000 -0.00000322 0.00000000 0.00189513)
(0.00189291 0.00005149 0.00000000 0.00002221 0.00000000 0.00462319)
(0.00060983 0.00002433 0.00000000 -0.00000239 0.00000000 0.00093484)
(0.00055743 0.00018292 0.00000000 0.00005730 0.00000000 0.00223435)
(0.00012417 -0.00002165 0.00000000 0.00001135 0.00000000 0.00164549)
(0.00031873 0.00004342 0.00000000 0.00002085 0.00000000 0.00225913)
(0.00000762 -0.00002816 0.00000000 -0.00001239 0.00000000 0.00085014)
(-0.00019496 -0.00002164 0.00000000 0.00000462 0.00000000 0.00007965)
(-0.00009626 0.00001637 0.00000000 0.00002611 0.00000000 0.00030169)
(-0.00029405 -0.00006201 0.00000000 -0.00000921 0.00000000 0.00062858)
(-0.00009191 -0.00001371 0.00000000 0.00000403 0.00000000 0.00062984)
(-0.00036721 -0.00010266 0.00000000 -0.00002414 0.00000000 0.00063266)
(-0.00025403 -0.00005412 0.00000000 -0.00000315 0.00000000 -0.00037666)
(-0.00024310 -0.00005741 0.00000000 -0.00000659 0.00000000 0.00002422)
(-0.00003220 -0.00003216 0.00000000 -0.00002317 0.00000000 -0.00000504)
(-0.00014262 -0.00004090 0.00000000 -0.00000881 0.00000000 -0.00032243)
(-0.00002518 0.00000026 0.00000000 0.00000333 0.00000000 -0.00011491)
(0.00003467 0.00002309 0.00000000 0.00001212 0.00000000 0.00023882)
(-0.00013779 -0.00003844 0.00000000 -0.00000554 0.00000000 0.00019446)
(-0.00023340 -0.00006375 0.00000000 -0.00001049 0.00000000 0.00015189)
(-0.00004129 -0.00007301 0.00000000 -0.00006225 0.00000000 -0.00015665)
(-0.00032878 -0.00010138 0.00000000 -0.00002127 0.00000000 -0.00052127)
(-0.00038074 -0.00015104 0.00000000 -0.00006257 0.00000000 -0.00077293)
(-0.00066312 -0.00040709 0.00000000 -0.00023663 0.00000000 -0.00143006)
(-0.00008826 -0.00003038 0.00000000 -0.00000789 0.00000000 0.00006083)
(-0.00068931 -0.00015250 0.00000000 -0.00000520 0.00000000 -0.00043398)
(-0.00052749 -0.00017974 0.00000000 -0.00000802 0.00000000 0.00035404)
(-0.00063270 0.00020452 0.00000000 0.00020249 0.00000000 0.00018189)
(0.00087328 0.00014671 0.00000000 0.00004410 0.00000000 0.00041922)
(-0.00056148 0.00019577 0.00000000 0.00022924 0.00000000 0.00131854)
(0.00135270 -0.00000367 0.00000000 0.00000068 0.00000000 0.00082388)
(0.00474056 -0.00002304 0.00000000 0.00000255 0.00000000 0.00215086)
(0.00667794 -0.00005374 0.00000000 0.00000823 0.00000000 0.00281014)
(0.01175272 -0.00014779 0.00000000 0.00003401 0.00000000 0.00469880)
(0.01367440 -0.00020826 0.00000000 0.00005345 0.00000000 0.00552339)
(0.01000377 -0.00011291 0.00000000 0.00001103 0.00000000 0.00391581)
(0.00165323 -0.00032134 0.00000000 0.00011077 0.00000000 0.00329042)
(0.00163279 0.00014624 0.00000000 -0.00009107 0.00000000 0.00149529)
(0.00180497 -0.00052842 0.00000000 0.00043217 0.00000000 0.00526191)
(0.00328800 0.00032937 0.00000000 -0.00022359 0.00000000 0.00469702)
(0.00392231 -0.00052550 0.00000000 0.00008428 0.00000000 0.00515312)
(0.00440933 -0.00155560 0.00000000 0.00082474 0.00000000 0.00898190)
(0.00308526 -0.00220746 0.00000000 0.00163541 0.00000000 0.00546382)
(0.00396125 -0.00310815 0.00000000 0.00241034 0.00000000 0.00640702)
(0.00333363 -0.00245098 0.00000000 0.00183679 0.00000000 0.00589669)
(0.00458269 -0.00216948 0.00000000 0.00126048 0.00000000 0.00489147)
(0.00697971 -0.00229272 0.00000000 0.00092753 0.00000000 0.00876355)
(0.00769891 -0.00353775 0.00000000 0.00189229 0.00000000 0.01301915)
(0.00536531 -0.00209382 0.00000000 0.00098133 0.00000000 0.00829021)
(0.00669035 -0.00299040 0.00000000 0.00150508 0.00000000 0.01053141)
(0.00665443 -0.00412350 0.00000000 0.00265557 0.00000000 0.00809767)
(0.00768108 -0.00412102 0.00000000 0.00239693 0.00000000 0.00709912)
(0.00762449 -0.00327518 0.00000000 0.00162470 0.00000000 0.01135800)
(0.00679178 -0.00381277 0.00000000 0.00226742 0.00000000 0.00848485)
(0.00938863 -0.00332874 0.00000000 0.00143986 0.00000000 0.01038199)
(0.00926198 -0.00347615 0.00000000 0.00158521 0.00000000 0.01277796)
(0.00950647 -0.00312426 0.00000000 0.00128826 0.00000000 0.01070644)
(0.00979112 -0.00379173 0.00000000 0.00182721 0.00000000 0.01297927)
(0.01009365 -0.00329502 0.00000000 0.00126213 0.00000000 0.01097175)
(0.01196070 -0.00309326 0.00000000 0.00115855 0.00000000 0.01326637)
(0.01343966 -0.00197189 0.00000000 0.00066017 0.00000000 0.01574526)
(0.01301668 -0.00184636 0.00000000 0.00056346 0.00000000 0.01444992)
(0.01380663 -0.00202031 0.00000000 0.00084093 0.00000000 0.02115890)
(0.01625271 -0.00372088 0.00000000 0.00133841 0.00000000 0.02122280)
(0.01947142 -0.00034369 0.00000000 0.00090441 0.00000000 0.02739292)
(0.01734301 -0.00001471 0.00000000 0.00035666 0.00000000 0.02098297)
(0.01656411 0.00000607 0.00000000 0.00025202 0.00000000 0.02012776)
(0.01716891 0.00000404 0.00000000 0.00026564 0.00000000 0.02094249)
(0.01737650 -0.00000565 0.00000000 0.00027068 0.00000000 0.02196127)
(0.01765290 -0.00002481 0.00000000 0.00026898 0.00000000 0.02244974)
(0.01791451 -0.00003915 0.00000000 0.00027674 0.00000000 0.02272801)
(0.01787425 -0.00005134 0.00000000 0.00027490 0.00000000 0.02274965)
(0.01807654 -0.00006302 0.00000000 0.00025688 0.00000000 0.02242900)
(0.01785820 -0.00007621 0.00000000 0.00026179 0.00000000 0.02209706)
(0.01774314 -0.00008643 0.00000000 0.00025464 0.00000000 0.02180823)
(0.01762875 -0.00009401 0.00000000 0.00024957 0.00000000 0.02164879)
(0.01750853 -0.00010895 0.00000000 0.00023888 0.00000000 0.02138326)
(0.01710255 -0.00010614 0.00000000 0.00023685 0.00000000 0.02100260)
(0.01673984 -0.00011880 0.00000000 0.00022914 0.00000000 0.02059896)
(0.01655042 -0.00013707 0.00000000 0.00022381 0.00000000 0.01987310)
(0.01632815 -0.00013033 0.00000000 0.00021294 0.00000000 0.01931471)
(0.01625941 -0.00014256 0.00000000 0.00021668 0.00000000 0.01899066)
(0.01556461 -0.00014117 0.00000000 0.00019680 0.00000000 0.01820089)
(0.01510333 -0.00014224 0.00000000 0.00017879 0.00000000 0.01749244)
(0.01463611 -0.00014627 0.00000000 0.00017511 0.00000000 0.01691330)
(0.01426670 -0.00014368 0.00000000 0.00015987 0.00000000 0.01612988)
(0.01388459 -0.00015143 0.00000000 0.00015768 0.00000000 0.01559712)
(0.01360178 -0.00014838 0.00000000 0.00014882 0.00000000 0.01509995)
(0.01316686 -0.00015509 0.00000000 0.00014141 0.00000000 0.01454589)
(0.01282594 -0.00014929 0.00000000 0.00013457 0.00000000 0.01411196)
(0.01251880 -0.00015452 0.00000000 0.00012783 0.00000000 0.01365663)
(0.01257043 -0.00016873 0.00000000 0.00013593 0.00000000 0.01340176)
(0.01199088 -0.00015309 0.00000000 0.00011614 0.00000000 0.01284547)
(0.01165775 -0.00015517 0.00000000 0.00011794 0.00000000 0.01241198)
(0.01147373 -0.00016286 0.00000000 0.00011663 0.00000000 0.01213201)
(0.01090694 -0.00014858 0.00000000 0.00010151 0.00000000 0.01155526)
(0.01046475 -0.00014589 0.00000000 0.00009775 0.00000000 0.01106144)
(0.01021637 -0.00014327 0.00000000 0.00009190 0.00000000 0.01067236)
(0.00985605 -0.00013870 0.00000000 0.00009117 0.00000000 0.01027991)
(0.00947405 -0.00013895 0.00000000 0.00008387 0.00000000 0.00989097)
(0.00915151 -0.00013571 0.00000000 0.00007857 0.00000000 0.00951911)
(0.00884224 -0.00013680 0.00000000 0.00007761 0.00000000 0.00912891)
(0.00856310 -0.00013583 0.00000000 0.00007381 0.00000000 0.00874158)
(0.00841038 -0.00013620 0.00000000 0.00007593 0.00000000 0.00859021)
(0.00814721 -0.00013641 0.00000000 0.00007420 0.00000000 0.00829248)
(0.00763624 -0.00012301 0.00000000 0.00006362 0.00000000 0.00780513)
(0.00749844 -0.00012634 0.00000000 0.00006446 0.00000000 0.00760948)
(0.00723530 -0.00012304 0.00000000 0.00006060 0.00000000 0.00737702)
(0.00701847 -0.00011811 0.00000000 0.00005648 0.00000000 0.00715045)
(0.00690225 -0.00011456 0.00000000 0.00005404 0.00000000 0.00697377)
(0.00671769 -0.00011472 0.00000000 0.00005529 0.00000000 0.00680679)
(0.00644895 -0.00011043 0.00000000 0.00005147 0.00000000 0.00656009)
(0.00621596 -0.00010520 0.00000000 0.00005039 0.00000000 0.00638605)
(0.00595722 -0.00010378 0.00000000 0.00004827 0.00000000 0.00621506)
(0.00568224 -0.00009900 0.00000000 0.00004562 0.00000000 0.00601344)
(0.00533460 -0.00009366 0.00000000 0.00004368 0.00000000 0.00576862)
(0.00507347 -0.00008977 0.00000000 0.00004224 0.00000000 0.00563922)
(0.00472497 -0.00008356 0.00000000 0.00004005 0.00000000 0.00548173)
(0.00440743 -0.00007804 0.00000000 0.00003981 0.00000000 0.00539644)
(0.00404721 -0.00007053 0.00000000 0.00003918 0.00000000 0.00536452)
(0.00413059 -0.00008196 0.00000000 0.00005525 0.00000000 0.00616801)
(0.00525707 0.00003280 0.00000000 0.00015609 0.00000000 0.01040910)
(0.00448365 0.00042556 0.00000000 0.00009707 0.00000000 0.00700332)
(0.00387791 0.00079913 0.00000000 0.00024716 0.00000000 0.00933909)
(0.00299183 0.00051030 0.00000000 0.00016820 0.00000000 0.00870025)
(0.00315101 0.00060391 0.00000000 0.00019608 0.00000000 0.00949873)
(0.00275536 0.00067935 0.00000000 0.00021354 0.00000000 0.00749674)
(0.00156493 0.00040707 0.00000000 0.00012643 0.00000000 0.00423074)
(0.00153908 0.00066635 0.00000000 0.00030956 0.00000000 0.00414342)
(0.00138957 0.00044530 0.00000000 0.00016520 0.00000000 0.00600079)
(0.00103135 0.00043001 0.00000000 0.00020041 0.00000000 0.00486480)
(0.00099185 0.00035546 0.00000000 0.00014134 0.00000000 0.00494329)
(0.00054530 0.00028378 0.00000000 0.00015146 0.00000000 0.00134168)
(0.00043354 0.00028937 0.00000000 0.00017646 0.00000000 0.00297955)
(0.00035022 0.00011057 0.00000000 0.00002912 0.00000000 0.00143790)
(0.00043116 0.00014567 0.00000000 0.00004783 0.00000000 0.00096829)
(-0.00007191 0.00008169 0.00000000 0.00008823 0.00000000 0.00106088)
(0.00060918 0.00022090 0.00000000 0.00008033 0.00000000 0.00227205)
(-0.00016478 0.00002964 0.00000000 0.00006871 0.00000000 0.00164668)
(-0.00006198 0.00002881 0.00000000 0.00004545 0.00000000 0.00160940)
(0.00038527 0.00000607 0.00000000 -0.00007651 0.00000000 0.00096935)
(-0.00035354 -0.00007352 0.00000000 0.00001083 0.00000000 -0.00050111)
(-0.00010696 -0.00006204 0.00000000 -0.00003734 0.00000000 -0.00023682)
(-0.00011923 -0.00023786 0.00000000 -0.00018337 0.00000000 -0.00039364)
(-0.00007893 0.00002919 0.00000000 0.00004665 0.00000000 0.00078904)
(-0.00107261 -0.00019724 0.00000000 0.00002954 0.00000000 -0.00040350)
(-0.00055361 -0.00012249 0.00000000 0.00005848 0.00000000 0.00069868)
(0.00057169 0.00048522 0.00000000 0.00026502 0.00000000 0.00118328)
(0.00194252 0.00033623 0.00000000 0.00009009 0.00000000 0.00093936)
(0.00079053 0.00049477 0.00000000 0.00031454 0.00000000 0.00218139)
(0.00310170 -0.00000487 0.00000000 0.00000390 0.00000000 0.00146362)
(0.00779549 -0.00006544 0.00000000 0.00001143 0.00000000 0.00310251)
(0.01063608 -0.00013002 0.00000000 0.00002650 0.00000000 0.00401594)
(0.01781007 -0.00030602 0.00000000 0.00008025 0.00000000 0.00653211)
(0.01989441 -0.00040565 0.00000000 0.00011667 0.00000000 0.00756236)
(0.01477467 -0.00025337 0.00000000 0.00005024 0.00000000 0.00559494)
(0.00462132 -0.00076056 0.00000000 0.00021293 0.00000000 0.00430308)
(0.00335683 0.00004954 0.00000000 -0.00006977 0.00000000 0.00272652)
(0.00300886 -0.00094214 0.00000000 0.00066154 0.00000000 0.00733564)
(0.00542502 -0.00007069 0.00000000 0.00004849 0.00000000 0.00773054)
(0.00679098 -0.00121919 0.00000000 0.00044426 0.00000000 0.00895009)
(0.00759612 -0.00360103 0.00000000 0.00232185 0.00000000 0.01412542)
(0.00731426 -0.00391543 0.00000000 0.00260883 0.00000000 0.01003603)
(0.00901509 -0.00643320 0.00000000 0.00480099 0.00000000 0.01206112)
(0.00701345 -0.00491818 0.00000000 0.00363879 0.00000000 0.01053062)
(0.01032102 -0.00474461 0.00000000 0.00277216 0.00000000 0.01075917)
(0.01279416 -0.00579929 0.00000000 0.00327587 0.00000000 0.01579406)
(0.01370986 -0.00638561 0.00000000 0.00361935 0.00000000 0.01978761)
(0.01244242 -0.00525828 0.00000000 0.00268715 0.00000000 0.01580869)
(0.01249637 -0.00600997 0.00000000 0.00338566 0.00000000 0.01683275)
(0.01521220 -0.00895089 0.00000000 0.00570788 0.00000000 0.01586137)
(0.01510882 -0.00731756 0.00000000 0.00415392 0.00000000 0.01389894)
(0.01491858 -0.00683025 0.00000000 0.00375557 0.00000000 0.01804009)
(0.01617762 -0.00878369 0.00000000 0.00526252 0.00000000 0.01691894)
(0.01781273 -0.00761942 0.00000000 0.00401598 0.00000000 0.01872984)
(0.01670669 -0.00668418 0.00000000 0.00346121 0.00000000 0.01914258)
(0.01835395 -0.00710172 0.00000000 0.00353420 0.00000000 0.01955105)
(0.01861338 -0.00724286 0.00000000 0.00377157 0.00000000 0.02085721)
(0.02091585 -0.00695723 0.00000000 0.00313728 0.00000000 0.02075611)
(0.02225039 -0.00603540 0.00000000 0.00271053 0.00000000 0.02388828)
(0.02301510 -0.00451490 0.00000000 0.00207346 0.00000000 0.02537818)
(0.02351273 -0.00401368 0.00000000 0.00181568 0.00000000 0.02628383)
(0.02376762 -0.00359681 0.00000000 0.00189279 0.00000000 0.02987108)
(0.02638401 -0.00382666 0.00000000 0.00207605 0.00000000 0.03268272)
(0.02749283 -0.00117525 0.00000000 0.00208493 0.00000000 0.03751183)
(0.02819713 -0.00023843 0.00000000 0.00146469 0.00000000 0.03524291)
(0.02857202 -0.00018194 0.00000000 0.00133352 0.00000000 0.03588006)
(0.02958865 -0.00017706 0.00000000 0.00136542 0.00000000 0.03735002)
(0.03013677 -0.00022101 0.00000000 0.00139515 0.00000000 0.03904714)
(0.03076601 -0.00027519 0.00000000 0.00141229 0.00000000 0.03993007)
(0.03147770 -0.00029926 0.00000000 0.00141522 0.00000000 0.04042961)
(0.03171627 -0.00032779 0.00000000 0.00139119 0.00000000 0.04065870)
(0.03211492 -0.00036499 0.00000000 0.00137804 0.00000000 0.04008214)
(0.03220266 -0.00039354 0.00000000 0.00135236 0.00000000 0.03987620)
(0.03221201 -0.00041179 0.00000000 0.00132679 0.00000000 0.03933520)
(0.03216442 -0.00042451 0.00000000 0.00128670 0.00000000 0.03913779)
(0.03205443 -0.00045793 0.00000000 0.00126360 0.00000000 0.03877352)
(0.03178095 -0.00044571 0.00000000 0.00122778 0.00000000 0.03837257)
(0.03125838 -0.00047466 0.00000000 0.00118691 0.00000000 0.03758670)
(0.03121032 -0.00052181 0.00000000 0.00112559 0.00000000 0.03647559)
(0.03107105 -0.00049969 0.00000000 0.00108730 0.00000000 0.03558502)
(0.03082015 -0.00050641 0.00000000 0.00103551 0.00000000 0.03498554)
(0.03005700 -0.00051521 0.00000000 0.00098394 0.00000000 0.03390006)
(0.02945772 -0.00053515 0.00000000 0.00096167 0.00000000 0.03269528)
(0.02880291 -0.00054205 0.00000000 0.00091838 0.00000000 0.03172051)
(0.02832982 -0.00053968 0.00000000 0.00088240 0.00000000 0.03043632)
(0.02785121 -0.00055661 0.00000000 0.00083834 0.00000000 0.02954106)
(0.02745057 -0.00054676 0.00000000 0.00079994 0.00000000 0.02873939)
(0.02672283 -0.00056597 0.00000000 0.00077307 0.00000000 0.02774644)
(0.02617492 -0.00055448 0.00000000 0.00074008 0.00000000 0.02696304)
(0.02591381 -0.00058320 0.00000000 0.00072155 0.00000000 0.02619518)
(0.02562379 -0.00058044 0.00000000 0.00067755 0.00000000 0.02551398)
(0.02497731 -0.00057231 0.00000000 0.00065998 0.00000000 0.02476304)
(0.02433838 -0.00055894 0.00000000 0.00061803 0.00000000 0.02397703)
(0.02378795 -0.00056141 0.00000000 0.00058752 0.00000000 0.02330638)
(0.02321793 -0.00055134 0.00000000 0.00055957 0.00000000 0.02267232)
(0.02241945 -0.00054549 0.00000000 0.00054043 0.00000000 0.02172984)
(0.02190926 -0.00053958 0.00000000 0.00051982 0.00000000 0.02102677)
(0.02124828 -0.00051997 0.00000000 0.00050453 0.00000000 0.02028423)
(0.02061159 -0.00052943 0.00000000 0.00047898 0.00000000 0.01957418)
(0.01997386 -0.00051928 0.00000000 0.00045836 0.00000000 0.01881936)
(0.01941106 -0.00051714 0.00000000 0.00043475 0.00000000 0.01811526)
(0.01895664 -0.00051581 0.00000000 0.00041283 0.00000000 0.01745796)
(0.01838593 -0.00049491 0.00000000 0.00039568 0.00000000 0.01698954)
(0.01780041 -0.00048897 0.00000000 0.00037805 0.00000000 0.01641395)
(0.01720725 -0.00048083 0.00000000 0.00036211 0.00000000 0.01576311)
(0.01675913 -0.00047500 0.00000000 0.00034520 0.00000000 0.01528708)
(0.01632895 -0.00047691 0.00000000 0.00033841 0.00000000 0.01483887)
(0.01602318 -0.00047242 0.00000000 0.00032775 0.00000000 0.01447671)
(0.01576292 -0.00046294 0.00000000 0.00031833 0.00000000 0.01412571)
(0.01533533 -0.00045274 0.00000000 0.00030950 0.00000000 0.01374840)
(0.01488770 -0.00044356 0.00000000 0.00029345 0.00000000 0.01336930)
(0.01435267 -0.00042550 0.00000000 0.00028769 0.00000000 0.01298442)
(0.01379656 -0.00042091 0.00000000 0.00027794 0.00000000 0.01263447)
(0.01322793 -0.00040461 0.00000000 0.00026534 0.00000000 0.01225743)
(0.01259289 -0.00039004 0.00000000 0.00025297 0.00000000 0.01181526)
(0.01198452 -0.00037395 0.00000000 0.00024267 0.00000000 0.01151881)
(0.01129507 -0.00035733 0.00000000 0.00023435 0.00000000 0.01125032)
(0.01053301 -0.00033151 0.00000000 0.00022610 0.00000000 0.01109068)
(0.00963108 -0.00030381 0.00000000 0.00022170 0.00000000 0.01098049)
(0.00917516 -0.00030081 0.00000000 0.00025142 0.00000000 0.01179249)
(0.00948891 -0.00013905 0.00000000 0.00041761 0.00000000 0.01569371)
(0.01016377 0.00078028 0.00000000 0.00036872 0.00000000 0.01613060)
(0.00928716 0.00110498 0.00000000 0.00045283 0.00000000 0.01785139)
(0.00843819 0.00128434 0.00000000 0.00044043 0.00000000 0.01734473)
(0.00861415 0.00151529 0.00000000 0.00050858 0.00000000 0.01799766)
(0.00801738 0.00206288 0.00000000 0.00072313 0.00000000 0.01754682)
(0.00715820 0.00199428 0.00000000 0.00068746 0.00000000 0.01468341)
(0.00650185 0.00263529 0.00000000 0.00118470 0.00000000 0.01426216)
(0.00562163 0.00180097 0.00000000 0.00068381 0.00000000 0.01558346)
(0.00508786 0.00195626 0.00000000 0.00085582 0.00000000 0.01379050)
(0.00469278 0.00166016 0.00000000 0.00066204 0.00000000 0.01355450)
(0.00364930 0.00155529 0.00000000 0.00071602 0.00000000 0.00755361)
(0.00346296 0.00155035 0.00000000 0.00073923 0.00000000 0.01072459)
(0.00294456 0.00114433 0.00000000 0.00045808 0.00000000 0.00657173)
(0.00256630 0.00098680 0.00000000 0.00039757 0.00000000 0.00542271)
(0.00185983 0.00098224 0.00000000 0.00052388 0.00000000 0.00609426)
(0.00155482 0.00065589 0.00000000 0.00030268 0.00000000 0.00533577)
(0.00131732 0.00074726 0.00000000 0.00043255 0.00000000 0.00602860)
(0.00171309 0.00062757 0.00000000 0.00025096 0.00000000 0.00633337)
(0.00099826 0.00027775 0.00000000 0.00004848 0.00000000 0.00277676)
(0.00051414 0.00035335 0.00000000 0.00022850 0.00000000 0.00117191)
(0.00069836 0.00021294 0.00000000 0.00004955 0.00000000 0.00135940)
(0.00116828 0.00016152 0.00000000 -0.00005472 0.00000000 0.00218236)
(0.00164842 0.00067783 0.00000000 0.00029441 0.00000000 0.00417491)
(-0.00069359 0.00003592 0.00000000 0.00016360 0.00000000 0.00061101)
(0.00006373 0.00012576 0.00000000 0.00017744 0.00000000 0.00174284)
(0.00331571 0.00107922 0.00000000 0.00036868 0.00000000 0.00336499)
(0.00371853 0.00061955 0.00000000 0.00015212 0.00000000 0.00194982)
(0.00363090 0.00099924 0.00000000 0.00040687 0.00000000 0.00352836)
(0.00624739 0.00000333 0.00000000 0.00001082 0.00000000 0.00246557)
(0.01297504 -0.00014652 0.00000000 0.00002937 0.00000000 0.00446039)
(0.01601896 -0.00024513 0.00000000 0.00005494 0.00000000 0.00552848)
(0.02531916 -0.00052359 0.00000000 0.00014450 0.00000000 0.00868684)
(0.02768893 -0.00068860 0.00000000 0.00020928 0.00000000 0.00997466)
(0.02094737 -0.00046864 0.00000000 0.00011485 0.00000000 0.00768455)
(0.00920642 -0.00142003 0.00000000 0.00036357 0.00000000 0.00546653)
(0.00618336 -0.00027445 0.00000000 0.00002925 0.00000000 0.00424491)
(0.00457971 -0.00146348 0.00000000 0.00095189 0.00000000 0.00969190)
(0.00819238 -0.00082577 0.00000000 0.00050729 0.00000000 0.01126091)
(0.01020760 -0.00240000 0.00000000 0.00121893 0.00000000 0.01360785)
(0.01166703 -0.00564351 0.00000000 0.00375907 0.00000000 0.02000243)
(0.01319268 -0.00698734 0.00000000 0.00456222 0.00000000 0.01620250)
(0.01564295 -0.01058558 0.00000000 0.00780969 0.00000000 0.01914230)
(0.01314554 -0.00884619 0.00000000 0.00647691 0.00000000 0.01699209)
(0.01748896 -0.00881580 0.00000000 0.00557016 0.00000000 0.01828009)
(0.01909715 -0.00945161 0.00000000 0.00584900 0.00000000 0.02295096)
(0.01919291 -0.00938088 0.00000000 0.00585133 0.00000000 0.02505558)
(0.01935581 -0.00887490 0.00000000 0.00511537 0.00000000 0.02274065)
(0.01934647 -0.00968292 0.00000000 0.00590843 0.00000000 0.02270350)
(0.02275509 -0.01236349 0.00000000 0.00794230 0.00000000 0.02281383)
(0.02291806 -0.01116179 0.00000000 0.00668205 0.00000000 0.02156669)
(0.02138624 -0.01021707 0.00000000 0.00619642 0.00000000 0.02287561)
(0.02337511 -0.01134913 0.00000000 0.00690984 0.00000000 0.02337575)
(0.02390488 -0.01047710 0.00000000 0.00618997 0.00000000 0.02404940)
(0.02335777 -0.00960925 0.00000000 0.00557713 0.00000000 0.02437454)
(0.02497167 -0.00986175 0.00000000 0.00560540 0.00000000 0.02521739)
(0.02548204 -0.00943232 0.00000000 0.00532468 0.00000000 0.02678850)
(0.02789020 -0.00912060 0.00000000 0.00485369 0.00000000 0.02718687)
(0.02814675 -0.00777119 0.00000000 0.00433981 0.00000000 0.02972629)
(0.02920715 -0.00648487 0.00000000 0.00381729 0.00000000 0.03152483)
(0.03006194 -0.00579795 0.00000000 0.00353956 0.00000000 0.03345097)
(0.03050135 -0.00473510 0.00000000 0.00349497 0.00000000 0.03745862)
(0.03257131 -0.00448094 0.00000000 0.00365212 0.00000000 0.04037075)
(0.03317887 -0.00190971 0.00000000 0.00378145 0.00000000 0.04490375)
(0.03525439 -0.00066748 0.00000000 0.00311992 0.00000000 0.04504977)
(0.03645907 -0.00059969 0.00000000 0.00298241 0.00000000 0.04683011)
(0.03772085 -0.00058763 0.00000000 0.00305122 0.00000000 0.04877809)
(0.03862298 -0.00068154 0.00000000 0.00312578 0.00000000 0.05083465)
(0.03962271 -0.00075110 0.00000000 0.00315138 0.00000000 0.05196200)
(0.04066253 -0.00077019 0.00000000 0.00316367 0.00000000 0.05268521)
(0.04106730 -0.00080963 0.00000000 0.00314295 0.00000000 0.05294094)
(0.04198567 -0.00084305 0.00000000 0.00307480 0.00000000 0.05272944)
(0.04214935 -0.00088989 0.00000000 0.00305343 0.00000000 0.05240415)
(0.04235811 -0.00089341 0.00000000 0.00299838 0.00000000 0.05174876)
(0.04249211 -0.00090368 0.00000000 0.00292763 0.00000000 0.05164128)
(0.04257749 -0.00092755 0.00000000 0.00286714 0.00000000 0.05144916)
(0.04227692 -0.00090622 0.00000000 0.00281226 0.00000000 0.05077066)
(0.04193318 -0.00094542 0.00000000 0.00271479 0.00000000 0.04997202)
(0.04203803 -0.00101596 0.00000000 0.00259656 0.00000000 0.04855853)
(0.04203842 -0.00096949 0.00000000 0.00251502 0.00000000 0.04743930)
(0.04173541 -0.00096665 0.00000000 0.00241597 0.00000000 0.04672141)
(0.04103384 -0.00097165 0.00000000 0.00231060 0.00000000 0.04550279)
(0.04048376 -0.00100090 0.00000000 0.00224339 0.00000000 0.04412158)
(0.03975401 -0.00101432 0.00000000 0.00216632 0.00000000 0.04280023)
(0.03946189 -0.00099911 0.00000000 0.00205928 0.00000000 0.04139959)
(0.03888512 -0.00102489 0.00000000 0.00198395 0.00000000 0.04008931)
(0.03841902 -0.00100410 0.00000000 0.00190925 0.00000000 0.03906133)
(0.03768861 -0.00102737 0.00000000 0.00184087 0.00000000 0.03790844)
(0.03702310 -0.00101643 0.00000000 0.00176529 0.00000000 0.03685037)
(0.03676918 -0.00106617 0.00000000 0.00172825 0.00000000 0.03578991)
(0.03627978 -0.00105213 0.00000000 0.00164752 0.00000000 0.03485169)
(0.03570822 -0.00103832 0.00000000 0.00158446 0.00000000 0.03407355)
(0.03487575 -0.00102066 0.00000000 0.00150514 0.00000000 0.03303054)
(0.03422980 -0.00102244 0.00000000 0.00143314 0.00000000 0.03220104)
(0.03349167 -0.00100177 0.00000000 0.00137666 0.00000000 0.03139200)
(0.03257178 -0.00099492 0.00000000 0.00132062 0.00000000 0.03026355)