/*--------------------------------*- C++ -*----------------------------------*\
  =========                 |
  \\      /  F ield         | OpenFOAM: The Open Source CFD Toolbox
   \\    /   O peration     | Website:  https://openfoam.org
    \\  /    A nd           | Version:  7
     \\/     M anipulation  |
\*---------------------------------------------------------------------------*/
FoamFile
{
    version     2.0;
    format      ascii;
    class       volVectorField;
    location    "0";
    object      U_LES;
}
// * * * * * * * * * * * * * * * * * * * * * * * * * * * * * * * * * * * * * //

dimensions      [0 1 -1 0 0 0 0];

internalField   nonuniform List<vector>
15600
(
(0.11162111 -0.00071701 0.00000000)
(0.13494084 -0.00101963 0.00000000)
(0.10555769 -0.00084964 0.00000000)
(0.02195968 -0.00715584 0.00000000)
(0.00480928 -0.00076858 0.00000000)
(-0.00851721 0.00340167 0.00000000)
(-0.00376114 -0.00157973 0.00000000)
(-0.00532100 0.00101313 0.00000000)
(-0.00883387 0.00440474 0.00000000)
(-0.01109632 0.00944493 0.00000000)
(-0.01480888 0.01103179 0.00000000)
(-0.01122805 0.00765367 0.00000000)
(-0.00755315 0.00584326 0.00000000)
(-0.01926442 0.00654456 0.00000000)
(-0.01795959 0.00901028 0.00000000)
(-0.01366441 0.00568708 0.00000000)
(-0.01695004 0.00795866 0.00000000)
(-0.02175604 0.01378728 0.00000000)
(-0.01371850 0.00887307 0.00000000)
(-0.02197365 0.01062342 0.00000000)
(-0.02483402 0.01470571 0.00000000)
(-0.03224155 0.00917491 0.00000000)
(-0.03047723 0.01179558 0.00000000)
(-0.03439884 0.00855030 0.00000000)
(-0.03636863 0.01691293 0.00000000)
(-0.02734407 0.00893999 0.00000000)
(-0.04097206 0.01122332 0.00000000)
(-0.04385238 0.00308137 0.00000000)
(-0.03899882 0.00062062 0.00000000)
(-0.05797595 0.00826804 0.00000000)
(-0.05618909 0.02114101 0.00000000)
(-0.07994431 -0.00115835 0.00000000)
(-0.04694990 0.00005169 0.00000000)
(-0.03713868 -0.00001691 0.00000000)
(-0.03603270 -0.00000634 0.00000000)
(-0.03409391 -0.00003507 0.00000000)
(-0.03143132 -0.00003806 0.00000000)
(-0.02842354 -0.00003182 0.00000000)
(-0.02574885 -0.00004536 0.00000000)
(-0.02229539 -0.00003486 0.00000000)
(-0.01955863 -0.00003297 0.00000000)
(-0.01664808 -0.00004497 0.00000000)
(-0.01361983 -0.00004411 0.00000000)
(-0.01003847 -0.00004308 0.00000000)
(-0.00683420 -0.00004130 0.00000000)
(-0.00385208 -0.00003662 0.00000000)
(-0.00081046 -0.00003771 0.00000000)
(0.00119028 -0.00003172 0.00000000)
(0.00344056 -0.00003133 0.00000000)
(0.00601798 -0.00003831 0.00000000)
(0.00798389 -0.00002808 0.00000000)
(0.01017774 -0.00002976 0.00000000)
(0.01202282 -0.00002151 0.00000000)
(0.01386422 -0.00002114 0.00000000)
(0.01530113 -0.00002647 0.00000000)
(0.01690052 -0.00001806 0.00000000)
(0.01841850 -0.00002180 0.00000000)
(0.01984895 -0.00001860 0.00000000)
(0.02117235 -0.00001731 0.00000000)
(0.02245825 -0.00001813 0.00000000)
(0.02374502 -0.00001681 0.00000000)
(0.02483550 -0.00001416 0.00000000)
(0.02576376 -0.00001410 0.00000000)
(0.02670111 -0.00001033 0.00000000)
(0.02725246 -0.00000525 0.00000000)
(0.02796929 -0.00000999 0.00000000)
(0.02868383 -0.00000737 0.00000000)
(0.02926445 -0.00000714 0.00000000)
(0.02979474 -0.00000725 0.00000000)
(0.03028050 -0.00000415 0.00000000)
(0.03071994 -0.00000650 0.00000000)
(0.03110571 -0.00000528 0.00000000)
(0.03132483 -0.00000203 0.00000000)
(0.03140484 -0.00000023 0.00000000)
(0.03142666 0.00000140 0.00000000)
(0.03136229 0.00000102 0.00000000)
(0.03119943 0.00000368 0.00000000)
(0.03099029 0.00000354 0.00000000)
(0.03070777 0.00000455 0.00000000)
(0.03025969 0.00000622 0.00000000)
(0.02959746 0.00000900 0.00000000)
(0.02869952 0.00001386 0.00000000)
(0.02754575 0.00002002 0.00000000)
(0.02601295 0.00002172 0.00000000)
(0.02416450 0.00003050 0.00000000)
(0.02161786 0.00003162 0.00000000)
(0.01848925 0.00003892 0.00000000)
(0.01896186 0.00010585 0.00000000)
(0.02413121 0.00159707 0.00000000)
(0.01203729 0.00047303 0.00000000)
(0.01892569 0.00670857 0.00000000)
(0.01827676 0.00351848 0.00000000)
(0.02102693 0.00580390 0.00000000)
(0.01336693 0.00467706 0.00000000)
(0.00145487 0.00222179 0.00000000)
(0.01352746 0.00868068 0.00000000)
(0.01099513 0.00655590 0.00000000)
(0.01021541 0.00597986 0.00000000)
(0.01045673 0.00700393 0.00000000)
(0.00066321 0.00354624 0.00000000)
(0.01078305 0.00825636 0.00000000)
(-0.00010690 -0.00119470 0.00000000)
(-0.01146953 -0.00391975 0.00000000)
(-0.00162227 -0.00054946 0.00000000)
(0.00303506 0.00155292 0.00000000)
(0.01037431 0.00753955 0.00000000)
(0.00422354 0.00510858 0.00000000)
(-0.00468259 -0.00589208 0.00000000)
(-0.01123011 -0.00152311 0.00000000)
(-0.03174545 -0.01466654 0.00000000)
(-0.04139728 -0.02747258 0.00000000)
(0.00333764 0.00186902 0.00000000)
(0.00233060 0.01150356 0.00000000)
(0.03269587 0.01546028 0.00000000)
(0.01509223 0.03322986 0.00000000)
(0.05291005 0.01341189 0.00000000)
(0.06042164 0.03922875 0.00000000)
(0.07116803 0.00075464 0.00000000)
(0.09307519 0.00032603 0.00000000)
(0.09823407 -0.00039294 0.00000000)
(0.15026680 -0.00106774 0.00000000)
(0.17955890 -0.00148243 0.00000000)
(0.15388339 -0.00137429 0.00000000)
(0.04355181 -0.00996156 0.00000000)
(0.01188050 -0.00161453 0.00000000)
(-0.01113930 0.00339449 0.00000000)
(-0.00740269 -0.00164934 0.00000000)
(-0.01180513 0.00241956 0.00000000)
(-0.01712916 0.00749677 0.00000000)
(-0.01798876 0.01341391 0.00000000)
(-0.02557795 0.01922673 0.00000000)
(-0.02361434 0.01639428 0.00000000)
(-0.02283227 0.01352646 0.00000000)
(-0.03270100 0.01346635 0.00000000)
(-0.03717253 0.01651483 0.00000000)
(-0.03090395 0.01316003 0.00000000)
(-0.03854871 0.01685585 0.00000000)
(-0.04554009 0.02912394 0.00000000)
(-0.04245646 0.02447407 0.00000000)
(-0.05395573 0.02322392 0.00000000)
(-0.05728389 0.03304324 0.00000000)
(-0.06832349 0.02562606 0.00000000)
(-0.07152229 0.02706263 0.00000000)
(-0.07782702 0.02644062 0.00000000)
(-0.08215555 0.03374340 0.00000000)
(-0.08606823 0.02988771 0.00000000)
(-0.09739584 0.02566388 0.00000000)
(-0.10367853 0.01578403 0.00000000)
(-0.10561856 0.01523259 0.00000000)
(-0.11047854 0.01622327 0.00000000)
(-0.11916319 0.03010410 0.00000000)
(-0.12084697 0.00177760 0.00000000)
(-0.10725973 0.00033096 0.00000000)
(-0.10100635 -0.00006272 0.00000000)
(-0.09702200 -0.00014636 0.00000000)
(-0.09121425 -0.00027397 0.00000000)
(-0.08348112 -0.00030547 0.00000000)
(-0.07485901 -0.00027389 0.00000000)
(-0.06682848 -0.00037093 0.00000000)
(-0.05762756 -0.00030597 0.00000000)
(-0.04996898 -0.00028063 0.00000000)
(-0.04175165 -0.00034772 0.00000000)
(-0.03290252 -0.00037176 0.00000000)
(-0.02341383 -0.00035395 0.00000000)
(-0.01449906 -0.00033269 0.00000000)
(-0.00592546 -0.00032393 0.00000000)
(0.00167339 -0.00025573 0.00000000)
(0.00796907 -0.00026245 0.00000000)
(0.01442738 -0.00025377 0.00000000)
(0.02115437 -0.00025138 0.00000000)
(0.02698062 -0.00022988 0.00000000)
(0.03325427 -0.00024036 0.00000000)
(0.03834862 -0.00017731 0.00000000)
(0.04355356 -0.00017746 0.00000000)
(0.04760959 -0.00017247 0.00000000)
(0.05239969 -0.00016991 0.00000000)
(0.05676492 -0.00017850 0.00000000)
(0.06072215 -0.00013780 0.00000000)
(0.06468003 -0.00013564 0.00000000)
(0.06837743 -0.00014395 0.00000000)
(0.07197417 -0.00013833 0.00000000)
(0.07524043 -0.00011134 0.00000000)
(0.07793991 -0.00010713 0.00000000)
(0.08055360 -0.00008773 0.00000000)
(0.08237431 -0.00005858 0.00000000)
(0.08432082 -0.00009133 0.00000000)
(0.08654647 -0.00006038 0.00000000)
(0.08835326 -0.00006224 0.00000000)
(0.08990289 -0.00005694 0.00000000)
(0.09123005 -0.00004368 0.00000000)
(0.09265927 -0.00005798 0.00000000)
(0.09382055 -0.00004000 0.00000000)
(0.09445358 -0.00001690 0.00000000)
(0.09477463 -0.00000445 0.00000000)
(0.09494833 0.00000392 0.00000000)
(0.09494205 0.00000259 0.00000000)
(0.09466914 0.00002052 0.00000000)
(0.09415101 0.00002284 0.00000000)
(0.09340170 0.00003870 0.00000000)
(0.09226540 0.00004737 0.00000000)
(0.09059916 0.00007906 0.00000000)
(0.08825619 0.00010633 0.00000000)
(0.08497955 0.00014754 0.00000000)
(0.08091595 0.00017851 0.00000000)
(0.07557860 0.00022955 0.00000000)
(0.06883378 0.00029365 0.00000000)
(0.06015846 0.00038541 0.00000000)
(0.05440099 0.00062791 0.00000000)
(0.05944756 0.00340055 0.00000000)
(0.06443753 0.00737092 0.00000000)
(0.06721118 0.01615494 0.00000000)
(0.06525088 0.01327355 0.00000000)
(0.07035761 0.01856767 0.00000000)
(0.06798810 0.02162528 0.00000000)
(0.06045692 0.01749364 0.00000000)
(0.06215452 0.02843324 0.00000000)
(0.06588560 0.02642149 0.00000000)
(0.06744511 0.03323430 0.00000000)
(0.06735338 0.03022518 0.00000000)
(0.03509181 0.01824401 0.00000000)
(0.05919490 0.03573078 0.00000000)
(0.03600424 0.01393438 0.00000000)
(0.03164677 0.01186953 0.00000000)
(0.03469985 0.02487791 0.00000000)
(0.04591047 0.02253039 0.00000000)
(0.05167184 0.03592566 0.00000000)
(0.03131950 0.02148310 0.00000000)
(0.04859459 0.01453964 0.00000000)
(-0.01380340 -0.00049655 0.00000000)
(-0.01017645 -0.00624223 0.00000000)
(-0.00149534 -0.01221232 0.00000000)
(0.02924830 0.02126928 0.00000000)
(0.02002657 0.02925673 0.00000000)
(0.05818894 0.03321222 0.00000000)
(0.05739941 0.04390274 0.00000000)
(0.10914384 0.02770338 0.00000000)
(0.10026016 0.05319664 0.00000000)
(0.11151855 0.00162300 0.00000000)
(0.12867888 0.00065051 0.00000000)
(0.13365899 -0.00048708 0.00000000)
(0.19495471 -0.00152589 0.00000000)
(0.22903789 -0.00219963 0.00000000)
(0.20643004 -0.00207341 0.00000000)
(0.07479700 -0.01335178 0.00000000)
(0.02285455 -0.00289346 0.00000000)
(-0.01291533 0.00430618 0.00000000)
(-0.01239781 -0.00071671 0.00000000)
(-0.01938821 0.00448114 0.00000000)
(-0.02550808 0.01250849 0.00000000)
(-0.02975509 0.01915130 0.00000000)
(-0.03785835 0.02859039 0.00000000)
(-0.03839702 0.02691033 0.00000000)
(-0.04202014 0.02345716 0.00000000)
(-0.05039695 0.02453861 0.00000000)
(-0.05751655 0.02549110 0.00000000)
(-0.05617202 0.02358802 0.00000000)
(-0.06174451 0.02872675 0.00000000)
(-0.07167225 0.04540709 0.00000000)
(-0.07647353 0.04018059 0.00000000)
(-0.08499329 0.03870240 0.00000000)
(-0.09360149 0.05389819 0.00000000)
(-0.10334985 0.04631084 0.00000000)
(-0.10675071 0.04385701 0.00000000)
(-0.11728337 0.04764179 0.00000000)
(-0.12215566 0.05052747 0.00000000)
(-0.13356138 0.04819760 0.00000000)
(-0.14239067 0.04112947 0.00000000)
(-0.14957660 0.03096491 0.00000000)
(-0.15404870 0.02731781 0.00000000)
(-0.15387884 0.02392405 0.00000000)
(-0.16036080 0.02619575 0.00000000)
(-0.15494137 0.00465347 0.00000000)
(-0.14701727 0.00056806 0.00000000)
(-0.14086562 -0.00031991 0.00000000)
(-0.13407801 -0.00056091 0.00000000)
(-0.12457828 -0.00086182 0.00000000)
(-0.11271707 -0.00095328 0.00000000)
(-0.10048328 -0.00087249 0.00000000)
(-0.08843614 -0.00111957 0.00000000)
(-0.07486997 -0.00096222 0.00000000)
(-0.06372735 -0.00088723 0.00000000)
(-0.05144564 -0.00104701 0.00000000)
(-0.03862058 -0.00112731 0.00000000)
(-0.02470430 -0.00109807 0.00000000)
(-0.01162385 -0.00101809 0.00000000)
(0.00059562 -0.00098454 0.00000000)
(0.01151778 -0.00078368 0.00000000)
(0.02115438 -0.00078478 0.00000000)
(0.03064571 -0.00076384 0.00000000)
(0.04096943 -0.00076155 0.00000000)
(0.04988598 -0.00071458 0.00000000)
(0.05917143 -0.00072782 0.00000000)
(0.06684855 -0.00057655 0.00000000)
(0.07473342 -0.00055248 0.00000000)
(0.08123287 -0.00054067 0.00000000)
(0.08832487 -0.00054144 0.00000000)
(0.09511993 -0.00055518 0.00000000)
(0.10120627 -0.00044026 0.00000000)
(0.10734609 -0.00042190 0.00000000)
(0.11293708 -0.00046001 0.00000000)
(0.11877178 -0.00042002 0.00000000)
(0.12371448 -0.00034295 0.00000000)
(0.12827126 -0.00034633 0.00000000)
(0.13219568 -0.00027704 0.00000000)
(0.13514141 -0.00020104 0.00000000)
(0.13836541 -0.00029005 0.00000000)
(0.14186768 -0.00020165 0.00000000)
(0.14472028 -0.00020659 0.00000000)
(0.14748430 -0.00018367 0.00000000)
(0.14977375 -0.00015069 0.00000000)
(0.15234712 -0.00018073 0.00000000)
(0.15429897 -0.00012154 0.00000000)
(0.15534353 -0.00006069 0.00000000)
(0.15628584 -0.00002394 0.00000000)
(0.15659510 -0.00000111 0.00000000)
(0.15686339 -0.00000206 0.00000000)
(0.15676974 0.00004845 0.00000000)
(0.15639083 0.00005797 0.00000000)
(0.15569258 0.00011237 0.00000000)
(0.15422391 0.00014127 0.00000000)
(0.15201030 0.00023350 0.00000000)
(0.14885396 0.00031064 0.00000000)
(0.14440179 0.00043676 0.00000000)
(0.13871895 0.00053154 0.00000000)
(0.13109982 0.00070301 0.00000000)
(0.12158571 0.00090669 0.00000000)
(0.10899945 0.00116988 0.00000000)
(0.09857952 0.00174088 0.00000000)
(0.09952302 0.00521304 0.00000000)
(0.11198134 0.01371114 0.00000000)
(0.11756428 0.02118803 0.00000000)
(0.12269449 0.02577146 0.00000000)
(0.13195750 0.03149488 0.00000000)
(0.14033841 0.04472361 0.00000000)
(0.14265929 0.04548152 0.00000000)
(0.14697877 0.06508563 0.00000000)
(0.14950514 0.05634254 0.00000000)
(0.14818383 0.06784890 0.00000000)
(0.15838418 0.06581941 0.00000000)
(0.14595962 0.06362046 0.00000000)
(0.14648102 0.07656822 0.00000000)
(0.13150432 0.05314720 0.00000000)
(0.13892067 0.05493358 0.00000000)
(0.11365090 0.06785281 0.00000000)
(0.10970524 0.05946592 0.00000000)
(0.12422976 0.07769498 0.00000000)
(0.11559938 0.05594025 0.00000000)
(0.09766422 0.03839619 0.00000000)
(0.03034514 0.02222079 0.00000000)
(0.05455724 0.02031969 0.00000000)
(0.09854746 0.02829904 0.00000000)
(0.10999701 0.05722151 0.00000000)
(0.06281835 0.05588987 0.00000000)
(0.10584889 0.05742203 0.00000000)
(0.14605018 0.06209121 0.00000000)
(0.18256367 0.04475541 0.00000000)
(0.16158914 0.06724779 0.00000000)
(0.16452173 0.00322383 0.00000000)
(0.17494920 0.00109947 0.00000000)
(0.17555295 -0.00063628 0.00000000)
(0.24496728 -0.00206827 0.00000000)
(0.28307367 -0.00314199 0.00000000)
(0.26526210 -0.00297393 0.00000000)
(0.11836312 -0.01735154 0.00000000)
(0.03926058 -0.00465166 0.00000000)
(-0.01324320 0.00496429 0.00000000)
(-0.01873656 0.00147021 0.00000000)
(-0.02745852 0.00737726 0.00000000)
(-0.03594152 0.01691270 0.00000000)
(-0.04183586 0.02615648 0.00000000)
(-0.05078206 0.03826429 0.00000000)
(-0.05323597 0.03766556 0.00000000)
(-0.06027771 0.03513351 0.00000000)
(-0.06883056 0.03551928 0.00000000)
(-0.07447211 0.03526615 0.00000000)
(-0.07767986 0.03530955 0.00000000)
(-0.08348149 0.04101421 0.00000000)
(-0.09505115 0.05697595 0.00000000)
(-0.10269663 0.05492666 0.00000000)
(-0.10877381 0.05329852 0.00000000)
(-0.12005051 0.06364031 0.00000000)
(-0.12994306 0.06058345 0.00000000)
(-0.13495037 0.05849907 0.00000000)
(-0.14712203 0.06219824 0.00000000)
(-0.15219504 0.06090805 0.00000000)
(-0.16377549 0.05950541 0.00000000)
(-0.17035044 0.05115282 0.00000000)
(-0.17872713 0.04314487 0.00000000)
(-0.18450648 0.03803386 0.00000000)
(-0.18487338 0.02966751 0.00000000)
(-0.18763699 0.02681648 0.00000000)
(-0.17894502 0.00638052 0.00000000)
(-0.17365595 0.00040810 0.00000000)
(-0.16668559 -0.00069486 0.00000000)
(-0.15725257 -0.00114820 0.00000000)
(-0.14466570 -0.00163068 0.00000000)
(-0.13027332 -0.00179686 0.00000000)
(-0.11519687 -0.00168899 0.00000000)
(-0.09991683 -0.00206383 0.00000000)
(-0.08435069 -0.00180420 0.00000000)
(-0.07008822 -0.00171305 0.00000000)
(-0.05486510 -0.00192349 0.00000000)
(-0.03918597 -0.00209174 0.00000000)
(-0.02232772 -0.00205127 0.00000000)
(-0.00638747 -0.00189060 0.00000000)
(0.00839852 -0.00182483 0.00000000)
(0.02166774 -0.00149277 0.00000000)
(0.03376893 -0.00145547 0.00000000)
(0.04567879 -0.00147231 0.00000000)
(0.05841815 -0.00144856 0.00000000)
(0.06971104 -0.00134759 0.00000000)
(0.08106482 -0.00136037 0.00000000)
(0.09109520 -0.00112469 0.00000000)
(0.10072666 -0.00105995 0.00000000)
(0.10909541 -0.00104501 0.00000000)
(0.11819940 -0.00104777 0.00000000)
(0.12692334 -0.00104719 0.00000000)
(0.13449508 -0.00084770 0.00000000)
(0.14198701 -0.00083967 0.00000000)
(0.14966784 -0.00088801 0.00000000)
(0.15698548 -0.00080012 0.00000000)
(0.16337873 -0.00068112 0.00000000)
(0.16935920 -0.00068901 0.00000000)
(0.17477295 -0.00053529 0.00000000)
(0.17902565 -0.00041815 0.00000000)
(0.18345077 -0.00056454 0.00000000)
(0.18789458 -0.00041770 0.00000000)
(0.19200746 -0.00041991 0.00000000)
(0.19552372 -0.00036798 0.00000000)
(0.19873395 -0.00031910 0.00000000)
(0.20196333 -0.00036144 0.00000000)
(0.20496729 -0.00024829 0.00000000)
(0.20700339 -0.00014552 0.00000000)
(0.20835995 -0.00008037 0.00000000)
(0.20961181 -0.00003144 0.00000000)
(0.20994026 -0.00002429 0.00000000)
(0.21023069 0.00006071 0.00000000)
(0.21039921 0.00007983 0.00000000)
(0.20970038 0.00017924 0.00000000)
(0.20862961 0.00023891 0.00000000)
(0.20641285 0.00040596 0.00000000)
(0.20292918 0.00055649 0.00000000)
(0.19815780 0.00078705 0.00000000)
(0.19156045 0.00097403 0.00000000)
(0.18309589 0.00127983 0.00000000)
(0.17190230 0.00164340 0.00000000)
(0.15722232 0.00214478 0.00000000)
(0.14357943 0.00316392 0.00000000)
(0.14085431 0.00732712 0.00000000)
(0.15284048 0.01708985 0.00000000)
(0.16160099 0.02621178 0.00000000)
(0.17173954 0.03345644 0.00000000)
(0.18383376 0.04468897 0.00000000)
(0.19578249 0.05897273 0.00000000)
(0.20767859 0.06743930 0.00000000)
(0.21746903 0.08642991 0.00000000)
(0.21743517 0.08711898 0.00000000)
(0.23062365 0.10051802 0.00000000)
(0.23519216 0.10665172 0.00000000)
(0.24678742 0.11136753 0.00000000)
(0.24676959 0.12394162 0.00000000)
(0.24111340 0.10931019 0.00000000)
(0.25124908 0.11163006 0.00000000)
(0.22374304 0.12271681 0.00000000)
(0.20110030 0.11074580 0.00000000)
(0.22744272 0.12907184 0.00000000)
(0.21464096 0.10163691 0.00000000)
(0.17863721 0.08444516 0.00000000)
(0.13210149 0.07095953 0.00000000)
(0.17526598 0.06926596 0.00000000)
(0.20441592 0.07298345 0.00000000)
(0.19714168 0.10491533 0.00000000)
(0.14490175 0.09403065 0.00000000)
(0.18747472 0.08915878 0.00000000)
(0.26400493 0.08946941 0.00000000)
(0.27445653 0.06055458 0.00000000)
(0.24748322 0.08149181 0.00000000)
(0.23310099 0.00587940 0.00000000)
(0.23134810 0.00168036 0.00000000)
(0.22299441 -0.00072344 0.00000000)
(0.29934492 -0.00266540 0.00000000)
(0.33851479 -0.00410310 0.00000000)
(0.32718189 -0.00419709 0.00000000)
(0.17327367 -0.02173081 0.00000000)
(0.06083012 -0.00688922 0.00000000)
(-0.01186923 0.00502738 0.00000000)
(-0.02473039 0.00378924 0.00000000)
(-0.03577685 0.01150149 0.00000000)
(-0.04839232 0.02120434 0.00000000)
(-0.05453099 0.03403434 0.00000000)
(-0.06381478 0.04702535 0.00000000)
(-0.06846134 0.04829504 0.00000000)
(-0.07663000 0.04311380 0.00000000)
(-0.08634550 0.04532133 0.00000000)
(-0.08894257 0.04493357 0.00000000)
(-0.09569158 0.04558853 0.00000000)
(-0.10087016 0.05131145 0.00000000)
(-0.11344525 0.06270801 0.00000000)
(-0.12304008 0.06405921 0.00000000)
(-0.13113111 0.06646953 0.00000000)
(-0.14041078 0.07197130 0.00000000)
(-0.15036738 0.07166178 0.00000000)
(-0.15826965 0.07210978 0.00000000)
(-0.16880442 0.07134678 0.00000000)
(-0.17505106 0.06923685 0.00000000)
(-0.18650323 0.06629523 0.00000000)
(-0.19284335 0.05905353 0.00000000)
(-0.20040022 0.04978990 0.00000000)
(-0.20630994 0.04300893 0.00000000)
(-0.20621877 0.03373827 0.00000000)
(-0.20629096 0.02615556 0.00000000)
(-0.19516446 0.00745100 0.00000000)
(-0.19078886 0.00034199 0.00000000)
(-0.18245516 -0.00129500 0.00000000)
(-0.17081790 -0.00195989 0.00000000)
(-0.15622201 -0.00258997 0.00000000)
(-0.13964670 -0.00285031 0.00000000)
(-0.12257449 -0.00271735 0.00000000)
(-0.10538080 -0.00318448 0.00000000)
(-0.08805315 -0.00284056 0.00000000)
(-0.07174088 -0.00275226 0.00000000)
(-0.05442107 -0.00298358 0.00000000)
(-0.03667341 -0.00326666 0.00000000)
(-0.01786065 -0.00320924 0.00000000)
(-0.00009602 -0.00294909 0.00000000)
(0.01642285 -0.00283778 0.00000000)
(0.03133529 -0.00236435 0.00000000)
(0.04517492 -0.00228194 0.00000000)
(0.05895345 -0.00235613 0.00000000)
(0.07330418 -0.00230449 0.00000000)
(0.08631306 -0.00213503 0.00000000)
(0.09919447 -0.00213087 0.00000000)
(0.11061746 -0.00183215 0.00000000)
(0.12177732 -0.00169615 0.00000000)
(0.13171807 -0.00168007 0.00000000)
(0.14213782 -0.00169100 0.00000000)
(0.15222624 -0.00166256 0.00000000)
(0.16105908 -0.00136660 0.00000000)
(0.17002394 -0.00136608 0.00000000)
(0.17861772 -0.00143141 0.00000000)
(0.18726769 -0.00127965 0.00000000)
(0.19472605 -0.00112417 0.00000000)
(0.20198173 -0.00113091 0.00000000)
(0.20838448 -0.00087615 0.00000000)
(0.21372808 -0.00072125 0.00000000)
(0.21922164 -0.00091495 0.00000000)
(0.22441401 -0.00071610 0.00000000)
(0.22945732 -0.00070994 0.00000000)
(0.23408449 -0.00061351 0.00000000)
(0.23790572 -0.00055781 0.00000000)
(0.24214836 -0.00060272 0.00000000)
(0.24569663 -0.00042837 0.00000000)
(0.24833433 -0.00028335 0.00000000)
(0.25056733 -0.00017888 0.00000000)
(0.25207388 -0.00010085 0.00000000)
(0.25347318 -0.00007871 0.00000000)
(0.25419429 0.00004424 0.00000000)
(0.25462568 0.00007451 0.00000000)
(0.25450793 0.00023036 0.00000000)
(0.25367980 0.00032922 0.00000000)
(0.25168097 0.00058348 0.00000000)
(0.24867307 0.00081709 0.00000000)
(0.24385607 0.00116611 0.00000000)
(0.23699419 0.00147191 0.00000000)
(0.22833483 0.00194148 0.00000000)
(0.21668256 0.00250015 0.00000000)
(0.20152137 0.00328287 0.00000000)
(0.18589677 0.00471461 0.00000000)
(0.17991716 0.00955791 0.00000000)
(0.18974277 0.02040833 0.00000000)
(0.19965442 0.03054136 0.00000000)
(0.21242148 0.04117857 0.00000000)
(0.22538883 0.05350892 0.00000000)
(0.23945386 0.06982192 0.00000000)
(0.25360717 0.08348005 0.00000000)
(0.26561059 0.10271482 0.00000000)
(0.27408629 0.11554271 0.00000000)
(0.28791335 0.12352880 0.00000000)
(0.30531468 0.14195263 0.00000000)
(0.33154678 0.15994812 0.00000000)
(0.31864607 0.15990517 0.00000000)
(0.33625855 0.15897967 0.00000000)
(0.34680347 0.17225149 0.00000000)
(0.32968224 0.18157739 0.00000000)
(0.32324085 0.17261980 0.00000000)
(0.33653947 0.18149300 0.00000000)
(0.31520078 0.15938448 0.00000000)
(0.28695282 0.14972399 0.00000000)
(0.27195881 0.13205395 0.00000000)
(0.31803481 0.13368884 0.00000000)
(0.30047243 0.12372100 0.00000000)
(0.30485780 0.17085040 0.00000000)
(0.27205401 0.14161444 0.00000000)
(0.30798663 0.12935680 0.00000000)
(0.40347564 0.13062046 0.00000000)
(0.39155585 0.07516550 0.00000000)
(0.35444331 0.09574350 0.00000000)
(0.31803208 0.00969614 0.00000000)
(0.29334664 0.00263211 0.00000000)
(0.27719265 -0.00077183 0.00000000)
(0.35751382 -0.00329650 0.00000000)
(0.39734184 -0.00514645 0.00000000)
(0.39167022 -0.00569679 0.00000000)
(0.23757390 -0.02620054 0.00000000)
(0.09007813 -0.01026053 0.00000000)
(-0.00832375 0.00503440 0.00000000)
(-0.03107885 0.00604124 0.00000000)
(-0.04399777 0.01567841 0.00000000)
(-0.05944946 0.02605230 0.00000000)
(-0.06679791 0.04195273 0.00000000)
(-0.07669662 0.05378568 0.00000000)
(-0.08301376 0.05698273 0.00000000)
(-0.09177483 0.05366224 0.00000000)
(-0.10071333 0.05415134 0.00000000)
(-0.10326266 0.05418457 0.00000000)
(-0.11051559 0.05423122 0.00000000)
(-0.11768035 0.06190508 0.00000000)
(-0.12838907 0.06827027 0.00000000)
(-0.14035279 0.07267597 0.00000000)
(-0.14915155 0.07648159 0.00000000)
(-0.15733702 0.07955391 0.00000000)
(-0.16587063 0.07983035 0.00000000)
(-0.17694179 0.08095254 0.00000000)
(-0.18488615 0.07888020 0.00000000)
(-0.19300033 0.07641843 0.00000000)
(-0.20237720 0.07170952 0.00000000)
(-0.20903076 0.06455063 0.00000000)
(-0.21556287 0.05474788 0.00000000)
(-0.22031975 0.04620472 0.00000000)
(-0.21972463 0.03598488 0.00000000)
(-0.21757926 0.02646587 0.00000000)
(-0.20601932 0.00784078 0.00000000)
(-0.20127199 0.00006859 0.00000000)
(-0.19148708 -0.00201876 0.00000000)
(-0.17819981 -0.00291133 0.00000000)
(-0.16199006 -0.00371185 0.00000000)
(-0.14414926 -0.00406751 0.00000000)
(-0.12549683 -0.00391806 0.00000000)
(-0.10682320 -0.00444073 0.00000000)
(-0.08844959 -0.00402009 0.00000000)
(-0.07052079 -0.00396743 0.00000000)
(-0.05164639 -0.00419304 0.00000000)
(-0.03249592 -0.00459410 0.00000000)
(-0.01239016 -0.00451630 0.00000000)
(0.00655517 -0.00414561 0.00000000)
(0.02429227 -0.00397367 0.00000000)
(0.04036430 -0.00337041 0.00000000)
(0.05550293 -0.00324242 0.00000000)
(0.07069367 -0.00337144 0.00000000)
(0.08611594 -0.00328479 0.00000000)
(0.10034295 -0.00304610 0.00000000)
(0.11436718 -0.00300481 0.00000000)
(0.12698880 -0.00265381 0.00000000)
(0.13905597 -0.00243445 0.00000000)
(0.15012400 -0.00242392 0.00000000)
(0.16156219 -0.00244033 0.00000000)
(0.17273157 -0.00237077 0.00000000)
(0.18255031 -0.00197432 0.00000000)
(0.19208615 -0.00199217 0.00000000)
(0.20178813 -0.00206592 0.00000000)
(0.21120196 -0.00184616 0.00000000)
(0.21970778 -0.00165451 0.00000000)
(0.22772454 -0.00164801 0.00000000)
(0.23502713 -0.00128973 0.00000000)
(0.24124695 -0.00110142 0.00000000)
(0.24732543 -0.00132058 0.00000000)
(0.25335920 -0.00108970 0.00000000)
(0.25927390 -0.00106550 0.00000000)
(0.26438169 -0.00091590 0.00000000)
(0.26893810 -0.00085937 0.00000000)
(0.27384691 -0.00089800 0.00000000)
(0.27800574 -0.00066028 0.00000000)
(0.28145509 -0.00047557 0.00000000)
(0.28414482 -0.00032503 0.00000000)
(0.28637586 -0.00021028 0.00000000)
(0.28799271 -0.00016884 0.00000000)
(0.28930530 -0.00000765 0.00000000)
(0.29024581 0.00003615 0.00000000)
(0.29062974 0.00025150 0.00000000)
(0.29021812 0.00039345 0.00000000)
(0.28873591 0.00074389 0.00000000)
(0.28586859 0.00106974 0.00000000)
(0.28143743 0.00154721 0.00000000)
(0.27506676 0.00199106 0.00000000)
(0.26621595 0.00262604 0.00000000)
(0.25495501 0.00338558 0.00000000)
(0.23983294 0.00446669 0.00000000)
(0.22352897 0.00634444 0.00000000)
(0.21533057 0.01177472 0.00000000)
(0.22239922 0.02289321 0.00000000)
(0.23211727 0.03454654 0.00000000)
(0.24551702 0.04736642 0.00000000)
(0.25869687 0.06110566 0.00000000)
(0.27284628 0.07824534 0.00000000)
(0.28970719 0.09566742 0.00000000)
(0.30150891 0.11417528 0.00000000)
(0.31923412 0.13451773 0.00000000)
(0.33451904 0.14570035 0.00000000)
(0.35600176 0.16660275 0.00000000)
(0.37954094 0.18232886 0.00000000)
(0.37772252 0.19318747 0.00000000)
(0.40680802 0.19835397 0.00000000)
(0.41745685 0.21248888 0.00000000)
(0.40752572 0.21563773 0.00000000)
(0.41505675 0.21867824 0.00000000)
(0.42308774 0.22142437 0.00000000)
(0.40443987 0.21488018 0.00000000)
(0.41408362 0.20897298 0.00000000)
(0.41344819 0.20232396 0.00000000)
(0.44260120 0.20887660 0.00000000)
(0.41996571 0.19790561 0.00000000)
(0.42365668 0.24307117 0.00000000)
(0.42666523 0.19928869 0.00000000)
(0.45886038 0.17699810 0.00000000)
(0.56975673 0.18064679 0.00000000)
(0.52663364 0.10603311 0.00000000)
(0.47706842 0.10986782 0.00000000)
(0.41341318 0.01445009 0.00000000)
(0.36326309 0.00397431 0.00000000)
(0.33761353 -0.00076774 0.00000000)
(0.41871092 -0.00395391 0.00000000)
(0.45949831 -0.00631165 0.00000000)
(0.45751775 -0.00740090 0.00000000)
(0.30866489 -0.03039828 0.00000000)
(0.12577109 -0.01408274 0.00000000)
(-0.00061739 0.00466858 0.00000000)
(-0.03682941 0.00840220 0.00000000)
(-0.05165844 0.01992369 0.00000000)
(-0.06780489 0.03104826 0.00000000)
(-0.07816485 0.04719190 0.00000000)
(-0.08818068 0.05754340 0.00000000)
(-0.09555424 0.06140559 0.00000000)
(-0.10488395 0.06127497 0.00000000)
(-0.11329727 0.06152469 0.00000000)
(-0.11700387 0.06298514 0.00000000)
(-0.12352642 0.06405903 0.00000000)
(-0.13247919 0.07069404 0.00000000)
(-0.14143221 0.07490076 0.00000000)
(-0.15344305 0.07923675 0.00000000)
(-0.16226601 0.08370061 0.00000000)
(-0.17171705 0.08669649 0.00000000)
(-0.17910632 0.08706778 0.00000000)
(-0.18885676 0.08697883 0.00000000)
(-0.19748529 0.08494451 0.00000000)
(-0.20588086 0.08196905 0.00000000)
(-0.21441132 0.07614452 0.00000000)
(-0.22049878 0.06826739 0.00000000)
(-0.22642121 0.05797387 0.00000000)
(-0.23009242 0.04829471 0.00000000)
(-0.22848356 0.03742040 0.00000000)
(-0.22497309 0.02604401 0.00000000)
(-0.21273910 0.00794309 0.00000000)
(-0.20718669 -0.00041281 0.00000000)
(-0.19636157 -0.00291686 0.00000000)
(-0.18160800 -0.00401346 0.00000000)
(-0.16420497 -0.00497768 0.00000000)
(-0.14527786 -0.00541855 0.00000000)
(-0.12554380 -0.00527706 0.00000000)
(-0.10587254 -0.00581221 0.00000000)
(-0.08664809 -0.00532207 0.00000000)
(-0.06754225 -0.00532783 0.00000000)
(-0.04747759 -0.00553053 0.00000000)
(-0.02735977 -0.00604573 0.00000000)
(-0.00642200 -0.00594937 0.00000000)
(0.01330706 -0.00546544 0.00000000)
(0.03193633 -0.00521047 0.00000000)
(0.04883902 -0.00449660 0.00000000)
(0.06497932 -0.00431946 0.00000000)
(0.08125879 -0.00449913 0.00000000)
(0.09734625 -0.00436946 0.00000000)
(0.11253754 -0.00406757 0.00000000)
(0.12731448 -0.00397038 0.00000000)
(0.14088182 -0.00357407 0.00000000)
(0.15358124 -0.00325668 0.00000000)
(0.16556246 -0.00325484 0.00000000)
(0.17774946 -0.00327359 0.00000000)
(0.18964764 -0.00315486 0.00000000)
(0.20009602 -0.00266588 0.00000000)
(0.21033471 -0.00269677 0.00000000)
(0.22063691 -0.00277774 0.00000000)
(0.23078592 -0.00248572 0.00000000)
(0.23977905 -0.00226314 0.00000000)
(0.24852330 -0.00222555 0.00000000)
(0.25644527 -0.00177607 0.00000000)
(0.26345013 -0.00155265 0.00000000)
(0.27023822 -0.00177257 0.00000000)
(0.27662776 -0.00152805 0.00000000)
(0.28295300 -0.00148092 0.00000000)
(0.28869108 -0.00127045 0.00000000)
(0.29392180 -0.00121751 0.00000000)
(0.29925608 -0.00124215 0.00000000)
(0.30388678 -0.00093954 0.00000000)
(0.30786202 -0.00071901 0.00000000)
(0.31113602 -0.00051491 0.00000000)
(0.31376060 -0.00036324 0.00000000)
(0.31596045 -0.00029329 0.00000000)
(0.31766983 -0.00009884 0.00000000)
(0.31900987 -0.00003410 0.00000000)
(0.31976680 0.00024300 0.00000000)
(0.31977957 0.00043214 0.00000000)
(0.31880372 0.00088013 0.00000000)
(0.31648253 0.00130370 0.00000000)
(0.31241369 0.00190992 0.00000000)
(0.30628233 0.00249945 0.00000000)
(0.29813313 0.00331139 0.00000000)
(0.28720508 0.00428449 0.00000000)
(0.27275859 0.00568155 0.00000000)
(0.25656794 0.00798782 0.00000000)
(0.24670779 0.01388697 0.00000000)
(0.25065534 0.02522954 0.00000000)
(0.25942943 0.03770972 0.00000000)
(0.27228833 0.05174177 0.00000000)
(0.28472074 0.06671246 0.00000000)
(0.29909149 0.08477718 0.00000000)
(0.31666679 0.10347263 0.00000000)
(0.33118730 0.12313881 0.00000000)
(0.35112284 0.14507744 0.00000000)
(0.37133215 0.16284017 0.00000000)
(0.39002703 0.17968360 0.00000000)