# vtk DataFile Version 2.0
wallFaceSet
ASCII
DATASET POLYDATA
POINTS 282 float
-7.34 1 -0.1 -7.17605 1 -0.1 -7.17605 1 0.1 -7.34 1
0.1 -7.0121 1 -0.1 -7.0121 1 0.1 -6.84815 1 -0.1
-6.84815 1 0.1 -6.6842 1 -0.1 -6.6842 1 0.1 -6.52025
1 -0.1 -6.52025 1 0.1 -6.3563 1 -0.1 -6.3563 1
0.1 -6.19235 1 -0.1 -6.19235 1 0.1 -6.0284 1 -0.1
-6.0284 1 0.1 -5.86445 1 -0.1 -5.86445 1 0.1 -5.7005
1 -0.1 -5.7005 1 0.1 -5.53655 1 -0.1 -5.53655 1
0.1 -5.3726 1 -0.1 -5.3726 1 0.1 -5.20865 1 -0.1
-5.20865 1 0.1 -5.0447 1 -0.1 -5.0447 1 0.1 -4.88075
1 -0.1 -4.88075 1 0.1 -4.71681 1 -0.1 -4.71681 1
0.1 -4.55286 1 -0.1 -4.55286 1 0.1 -4.38891 1 -0.1
-4.38891 1 0.1 -4.22496 1 -0.1 -4.22496 1 0.1 -4.06101
1 -0.1 -4.06101 1 0.1 -3.89706 1 -0.1 -3.89706 1
0.1 -3.73311 1 -0.1 -3.73311 1 0.1 -3.56916 1 -0.1
-3.56916 1 0.1 -3.40521 1 -0.1 -3.40521 1 0.1 -3.24126
1 -0.1 -3.24126 1 0.1 -3.07731 1 -0.1 -3.07731 1
0.1 -2.91336 1 -0.1 -2.91336 1 0.1 -2.74941 1 -0.1
-2.74941 1 0.1 -2.58546 1 -0.1 -2.58546 1 0.1 -2.42151
1 -0.1 -2.42151 1 0.1 -2.25756 1 -0.1 -2.25756 1
0.1 -2.09361 1 -0.1 -2.09361 1 0.1 -1.92966 1 -0.1
-1.92966 1 0.1 -1.76571 1 -0.1 -1.76571 1 0.1 -1.60176
1 -0.1 -1.60176 1 0.1 -1.43781 1 -0.1 -1.43781 1
0.1 -1.27386 1 -0.1 -1.27386 1 0.1 -1.10991 1 -0.1
-1.10991 1 0.1 -0.945963 1 -0.1 -0.945963 1 0.1 -0.782014
1 -0.1 -0.782014 1 0.1 -0.618064 1 -0.1 -0.618064 1
0.1 -0.454114 1 -0.1 -0.454114 1 0.1 -0.290165 1 -0.1
-0.290165 1 0.1 -0.126215 1 -0.1 -0.126215 1 0.1 0.0377341
0.999823 -0.1 0.0377341 0.999823 0.1 0.2016 0.994956 -0.1 0.2016 0.994956
0.1 0.365133 0.983432 -0.1 0.365133 0.983432 0.1 0.528062 0.965269 -0.1
0.528062 0.965269 0.1 0.690118 0.940497 -0.1 0.690118 0.940497 0.1 0.851033
0.909157 -0.1 0.851033 0.909157 0.1 1.01054 0.871302 -0.1 1.01054 0.871302
0.1 1.16838 0.826993 -0.1 1.16838 0.826993 0.1 1.32428 0.776305 -0.1
1.32428 0.776305 0.1 1.478 0.71932 -0.1 1.478 0.71932 0.1 1.62927
0.656133 -0.1 1.62927 0.656133 0.1 1.77785 0.586849 -0.1 1.77785 0.586849
0.1 1.92349 0.511582 -0.1 1.92349 0.511582 0.1 2.06595 0.430456 -0.1
2.06595 0.430456 0.1 2.20499 0.343606 -0.1 2.20499 0.343606 0.1 2.34084
0.251837 -0.1 2.34084 0.251837 0.1 2.48132 0.167386 -0.1 2.48132 0.167386
0.1 2.62818 0.0946267 -0.1 2.62818 0.0946267 0.1 2.78048 0.034039 -0.1
2.78048 0.034039 0.1 2.93983 4.23329e-07 -0.1 2.93983 4.23329e-07 0.1 3.10378
0 -0.1 3.10378 0 0.1 3.26773 0 -0.1 3.26773 0
0.1 3.43167 0 -0.1 3.43167 0 0.1 3.59562 0 -0.1
3.59562 0 0.1 3.75957 0 -0.1 3.75957 0 0.1 3.92352
0 -0.1 3.92352 0 0.1 4.08747 0 -0.1 4.08747 0
0.1 4.25142 0 -0.1 4.25142 0 0.1 4.41537 -5.55112e-17 -0.1
4.41537 -5.55112e-17 0.1 4.57932 -5.55112e-17 -0.1 4.57932 -5.55112e-17 0.1 4.74327
-5.55112e-17 -0.1 4.74327 -5.55112e-17 0.1 4.90722 -5.55112e-17 -0.1 4.90722 -5.55112e-17
0.1 5.07117 0 -0.1 5.07117 0 0.1 5.23512 0 -0.1
5.23512 0 0.1 5.39907 0 -0.1 5.39907 0 0.1 5.56302
0 -0.1 5.56302 0 0.1 5.72697 5.55112e-17 -0.1 5.72697 5.55112e-17
0.1 5.89092 5.55112e-17 -0.1 5.89092 5.55112e-17 0.1 6.05487 5.55112e-17 -0.1
6.05487 5.55112e-17 0.1 6.21882 5.55112e-17 -0.1 6.21882 5.55112e-17 0.1 6.38277
5.55112e-17 -0.1 6.38277 5.55112e-17 0.1 6.54672 0 -0.1 6.54672 0
0.1 6.71067 0 -0.1 6.71067 0 0.1 6.87462 0 -0.1
6.87462 0 0.1 7.03857 0 -0.1 7.03857 0 0.1 7.20252
-5.55112e-17 -0.1 7.20252 -5.55112e-17 0.1 7.36647 -5.55112e-17 -0.1 7.36647 -5.55112e-17
0.1 7.53042 -5.55112e-17 -0.1 7.53042 -5.55112e-17 0.1 7.69437 -5.55112e-17 -0.1
7.69437 -5.55112e-17 0.1 7.85832 0 -0.1 7.85832 0 0.1 8.02227
0 -0.1 8.02227 0 0.1 8.18622 0 -0.1 8.18622 0
0.1 8.35016 0 -0.1 8.35016 0 0.1 8.51411 0 -0.1
8.51411 0 0.1 8.67806 0 -0.1 8.67806 0 0.1 8.84201
0 -0.1 8.84201 0 0.1 9.00596 0 -0.1 9.00596 0
0.1 9.16991 0 -0.1 9.16991 0 0.1 9.33386 0 -0.1
9.33386 0 0.1 9.49781 0 -0.1 9.49781 0 0.1 9.66176
0 -0.1 9.66176 0 0.1 9.82571 0 -0.1 9.82571 0
0.1 9.98966 0 -0.1 9.98966 0 0.1 10.1536 0 -0.1
10.1536 0 0.1 10.3176 0 -0.1 10.3176 0 0.1 10.4815
0 -0.1 10.4815 0 0.1 10.6455 0 -0.1 10.6455 0
0.1 10.8094 0 -0.1 10.8094 0 0.1 10.9734 0 -0.1
10.9734 0 0.1 11.1373 0 -0.1 11.1373 0 0.1 11.3013
0 -0.1 11.3013 0 0.1 11.4652 0 -0.1 11.4652 0
0.1 11.6292 0 -0.1 11.6292 0 0.1 11.7931 0 -0.1
11.7931 0 0.1 11.9571 0 -0.1 11.9571 0 0.1 12.121
0 -0.1 12.121 0 0.1 12.285 0 -0.1 12.285 0
0.1 12.4489 0 -0.1 12.4489 0 0.1 12.6129 0 -0.1
12.6129 0 0.1 12.7768 0 -0.1 12.7768 0 0.1 12.9408
0 -0.1 12.9408 0 0.1 13.1047 0 -0.1 13.1047 0
0.1 13.2687 0 -0.1 13.2687 0 0.1 13.4326 0 -0.1
13.4326 0 0.1 13.5966 0 -0.1 13.5966 0 0.1 13.7605
0 -0.1 13.7605 0 0.1 13.9245 0 -0.1 13.9245 0
0.1 14.0884 0 -0.1 14.0884 0 0.1 14.2524 0 -0.1
14.2524 0 0.1 14.4163 0 -0.1 14.4163 0 0.1 14.5803
0 -0.1 14.5803 0 0.1 14.7442 0 -0.1 14.7442 0
0.1 14.9082 0 -0.1 14.9082 0 0.1 15.0721 0 -0.1
15.0721 0 0.1 15.2361 0 -0.1 15.2361 0 0.1 15.4
0 -0.1 15.4 0 0.1 
POLYGONS 140 700
4 0 1 2 3 4 1 4 5 2 4
4 6 7 5 4 6 8 9 7 4
8 10 11 9 4 10 12 13 11 4
12 14 15 13 4 14 16 17 15 4
16 18 19 17 4 18 20 21 19 4
20 22 23 21 4 22 24 25 23 4
24 26 27 25 4 26 28 29 27 4
28 30 31 29 4 30 32 33 31 4
32 34 35 33 4 34 36 37 35 4
36 38 39 37 4 38 40 41 39 4
40 42 43 41 4 42 44 45 43 4
44 46 47 45 4 46 48 49 47 4
48 50 51 49 4 50 52 53 51 4
52 54 55 53 4 54 56 57 55 4
56 58 59 57 4 58 60 61 59 4
60 62 63 61 4 62 64 65 63 4
64 66 67 65 4 66 68 69 67 4
68 70 71 69 4 70 72 73 71 4
72 74 75 73 4 74 76 77 75 4
76 78 79 77 4 78 80 81 79 4
80 82 83 81 4 82 84 85 83 4
84 86 87 85 4 86 88 89 87 4
88 90 91 89 4 90 92 93 91 4
92 94 95 93 4 94 96 97 95 4
96 98 99 97 4 98 100 101 99 4
100 102 103 101 4 102 104 105 103 4
104 106 107 105 4 106 108 109 107 4
108 110 111 109 4 110 112 113 111 4
112 114 115 113 4 114 116 117 115 4
116 118 119 117 4 118 120 121 119 4
120 122 123 121 4 122 124 125 123 4
124 126 127 125 4 126 128 129 127 4
128 130 131 129 4 130 132 133 131 4
132 134 135 133 4 134 136 137 135 4
136 138 139 137 4 138 140 141 139 4
140 142 143 141 4 142 144 145 143 4
144 146 147 145 4 146 148 149 147 4
148 150 151 149 4 150 152 153 151 4
152 154 155 153 4 154 156 157 155 4
156 158 159 157 4 158 160 161 159 4
160 162 163 161 4 162 164 165 163 4
164 166 167 165 4 166 168 169 167 4
168 170 171 169 4 170 172 173 171 4
172 174 175 173 4 174 176 177 175 4
176 178 179 177 4 178 180 181 179 4
180 182 183 181 4 182 184 185 183 4
184 186 187 185 4 186 188 189 187 4
188 190 191 189 4 190 192 193 191 4
192 194 195 193 4 194 196 197 195 4
196 198 199 197 4 198 200 201 199 4
200 202 203 201 4 202 204 205 203 4
204 206 207 205 4 206 208 209 207 4
208 210 211 209 4 210 212 213 211 4
212 214 215 213 4 214 216 217 215 4
216 218 219 217 4 218 220 221 219 4
220 222 223 221 4 222 224 225 223 4
224 226 227 225 4 226 228 229 227 4
228 230 231 229 4 230 232 233 231 4
232 234 235 233 4 234 236 237 235 4
236 238 239 237 4 238 240 241 239 4
240 242 243 241 4 242 244 245 243 4
244 246 247 245 4 246 248 249 247 4
248 250 251 249 4 250 252 253 251 4
252 254 255 253 4 254 256 257 255 4
256 258 259 257 4 258 260 261 259 4
260 262 263 261 4 262 264 265 263 4
264 266 267 265 4 266 268 269 267 4
268 270 271 269 4 270 272 273 271 4
272 274 275 273 4 274 276 277 275 4
276 278 279 277 4 278 280 281 279 
CELL_DATA 140
FIELD attributes 1
faceID 1 140 int
41710 41711 41712 41713 41714 41715 41716 41717 41718 41719 41720
41721 41722 41723 41724 41725 41726 41727 41728 41729 41730
41731 41732 41733 41734 41735 41736 41737 41738 41739 41740
41741 41742 41743 41744 41745 41746 41747 41748 41749 41750
41751 41752 41753 41754 41755 41756 41757 41758 41759 41760
41761 41762 41763 41764 41765 41766 41767 41768 41769 41770
41771 41772 41773 41774 41775 41776 41777 41778 41779 41780
41781 41782 41783 41784 41785 41786 41787 41788 41789 41790
41791 41792 41793 41794 41795 41796 41797 41798 41799 41800
41801 41802 41803 41804 41805 41806 41807 41808 41809 41810
41811 41812 41813 41814 41815 41816 41817 41818 41819 41820
41821 41822 41823 41824 41825 41826 41827 41828 41829 41830
41831 41832 41833 41834 41835 41836 41837 41838 41839 41840
41841 41842 41843 41844 41845 41846 41847 41848 41849 
