6 	0.00391112967796259 	-2.88397777881144e-17 	0.161191509387202 	7.47643890532255e-06 	921.606598574889 	1.07621601090224e-07 	3.89520025845504e-39
6 	0.0118766651674913 	-2.75387351811318e-17 	0.161187945585897 	0.000174794951331605 	166.800780254779 	3.50425982917135e-06 	0
6 	0.020134001548576 	-2.71050543121376e-17 	0.161181297338705 	0.00114177567367734 	51.8357196205466 	9.72064845251479e-06 	0
6 	0.0286938283423949 	-3.28513258263108e-17 	0.161165588974344 	0.00332509318052217 	23.0754619259866 	4.85211736370012e-06 	0
6 	0.0375672266585909 	-4.55364912443912e-17 	0.161131202477866 	0.00582135742833729 	13.0770509520586 	7.88826910805871e-05 	0
6 	0.0467656835403032 	-5.24753851482984e-17 	0.161074235322931 	0.00800140934484571 	8.80013459657047 	0.000185226654885695 	0
6 	0.0563011068347007 	-4.74338450462408e-17 	0.160998948655721 	0.00985024654587644 	6.59718705686712 	0.00028097150879893 	0
6 	0.0661858406082649 	-5.26990018463735e-17 	0.160910637951879 	0.0114598169626862 	5.29070750091986 	0.000369164298488674 	0
6.00000000000001 	0.0764326811267817 	-5.48131960827203e-17 	0.160812215574186 	0.0129018508084447 	4.43627809752059 	0.000455134802455297 	0
6.00000000000001 	0.0870548934207259 	-5.55111512312578e-17 	0.160705278992875 	0.0142241792676805 	3.83768769395651 	0.000541871362409639 	0
6.00000000000001 	0.0980662284574839 	-6.24500451351651e-17 	0.16059134817078 	0.0154591214524681 	3.39658099854805 	0.000631041938385293 	0
6.00000000000001 	0.109480940942647 	-6.24500451351651e-17 	0.160471540584063 	0.0166286991277486 	3.05952971895945 	0.000723700814193126 	0
6.00000000000001 	0.121313807773417 	-6.24500451351651e-17 	0.160346839889694 	0.0177487615345441 	2.7948400451959 	0.000820623799047535 	0
6.00000000000001 	0.13358014716801 	-6.24500451351651e-17 	0.160218134402532 	0.0188311231819698 	2.58257863306167 	0.000922461600846533 	0
6.00000000000001 	0.146295838495838 	-6.24500451351651e-17 	0.160086253650688 	0.0198848689570664 	2.40960469231127 	0.00102981332517634 	0
6 	0.159477342834115 	-6.93889390390723e-17 	0.159951990162974 	0.0209172040520592 	2.26691609035656 	0.00114326548688444 	0
6 	0.173141724277517 	-7.28583859910259e-17 	0.15981611152881 	0.0219340155217602 	2.14814696930844 	0.0012634194867008 	0
6.00000000000001 	0.18730667202848 	-6.59194920871187e-17 	0.159679368328469 	0.0229400855063927 	2.04867444514599 	0.00139090399206974 	0
6.00000000000001 	0.201990523296728 	-6.93889390390723e-17 	0.159542496341606 	0.0239394165783887 	1.96506528047237 	0.00152638903002515 	0
6.00000000000001 	0.217212287037676 	-7.63278329429795e-17 	0.159406216667714 	0.0249354052896157 	1.8947209852103 	0.00167059222905476 	0
6.00000000000001 	0.232991668560441 	-6.93889390390723e-17 	0.15927123467497 	0.0259309571237158 	1.8356428937728 	0.00182428442209924 	0
6.00000000000001 	0.249349095037321 	-5.89805981832114e-17 	0.15913823738641 	0.0269285648282915 	1.78627235403485 	0.00198829359863252 	0
6 	0.266305741947753 	-5.89805981832114e-17 	0.159007889707453 	0.027930359403955 	1.74537931796982 	0.00216350695863286 	0
6 	0.283883560490999 	-6.24500451351651e-17 	0.158880829818677 	0.0289381397081273 	1.71198290559804 	0.00235087075194529 	0
6.00000000000001 	0.30210530600303 	-6.24500451351651e-17 	0.158757663948868 	0.029953384432847 	1.68529354247497 	0.00255138738384936 	0
6.00000000000001 	0.320994567414414 	-6.24500451351651e-17 	0.158638960697787 	0.0309772487388403 	1.66466991133704 	0.00276610906252221 	0
6.00000000000001 	0.340575797787321 	-6.59194920871187e-17 	0.158525245056228 	0.0320105468124466 	1.64958621490579 	0.00299612704672752 	0
6.00000000000001 	0.360874345971201 	-6.93889390390723e-17 	0.158416992249105 	0.0330537209047665 	1.63960667803983 	0.00324255531521452 	0
6.00000000000001 	0.38191648941809 	-6.59194920871187e-17 	0.158314621514298 	0.0341067969265526 	1.63436514389422 	0.00350650721584788 	0
6.00000000000001 	0.403729468200046 	-6.59194920871187e-17 	0.158218489950905 	0.0351693263634274 	1.63354822946261 	0.00378906336223341 	0
6.00000000000001 	0.426341520272734 	-6.59194920871187e-17 	0.158128886504161 	0.0362403141295424 	1.63688091525549 	0.00409122877224999 	0
6.00000000000001 	0.449781918030829 	-6.59194920871187e-17 	0.158046025437794 	0.0373181320021046 	1.64411372303998 	0.004413877073141 	0
6.00000000000001 	0.474081006202549 	-7.28583859910259e-17 	0.15797003775193 	0.038400417500427 	1.65501083002559 	0.00475767922386669 	0
6.00000000000001 	0.499270241132364 	-7.28583859910259e-17 	0.157900965936416 	0.0394839585443473 	1.66933860821253 	0.00512301217716263 	0
6.00000000000001 	0.525382231502764 	-6.24500451351651e-17 	0.157838790513295 	0.0405645650801733 	1.68685418771021 	0.00550984088977426 	0
6.00000000000001 	0.552450780547768 	-6.24500451351651e-17 	0.157783468027526 	0.0416369302797129 	1.70729374215825 	0.00591758688233639 	0
6.00000000000001 	0.58051092981285 	-6.93889390390723e-17 	0.157734578631968 	0.0426944853526487 	1.73036027041414 	0.00634505721446662 	0
6.00000000000001 	0.609599004517911 	-6.93889390390723e-17 	0.157690158830886 	0.043729251103909 	1.75571062085033 	0.0067904630272548 	0
6.00000000000001 	0.639752660582033 	-7.97972798949331e-17 	0.157649265736568 	0.0447316868405414 	1.78294141668756 	0.00726090173432015 	0
6.00000000000001 	0.671010933370888 	-8.32667268468867e-17 	0.157630461345634 	0.0456912829497103 	1.81159567048897 	0.00780937345883243 	0
6.00000000000001 	0.703414288229901 	-7.97972798949331e-17 	0.157676898989642 	0.0466000755335797 	1.84121981910264 	0.00842996643012349 	0
6.00000000000001 	0.737004672868607 	-8.67361737988404e-17 	0.157785634778106 	0.0474473262968921 	1.87094940036391 	0.00910157148450981 	0
6.00000000000001 	0.771825571663977 	-9.36750677027476e-17 	0.157897518273498 	0.0482040360375209 	1.89880408129466 	0.00976794048397435 	0
6.00000000000001 	0.807922061953055 	-9.0205620750794e-17 	0.157971999270447 	0.0488242970272631 	1.92187578496618 	0.0103306721588512 	0
6.00000000000001 	0.845340872387744 	-9.0205620750794e-17 	0.158002875394358 	0.0492614425015026 	1.93721428385186 	0.0107321739100046 	0
6.00000000000001 	0.88413044342731 	-9.36750677027476e-17 	0.157998692386865 	0.0494793309401453 	1.94248899333172 	0.0109622927155275 	0
6.00000000000001 	0.924340990046899 	-9.0205620750794e-17 	0.157968261704485 	0.0494551132912943 	1.9361689892695 	0.0110325295574446 	0
6.00000000000001 	0.966024566743243 	-9.71445146547012e-17 	0.157915752774649 	0.0491776089007578 	1.91742422427083 	0.0109561021704628 	0
6.00000000000001 	1.00923513492173 	-1.00613961606655e-16 	0.157840446566033 	0.0486454649057768 	1.88601123836767 	0.0107404081596685 	0
6.00000000000001 	1.05402863275206 	-9.71445146547012e-17 	0.157738193431562 	0.0478668818864056 	1.84225347901263 	0.0103896201237635 	0
6.00000000000001 	1.08201356137195 	-9.8879238130678e-17 	0.157662829570582 	0.0472954826149445 	1.81072533968287 	0.0101218689121322 	0
6.00000000000001 	1.10564837683341 	-8.84708972748172e-17 	0.157586783496834 	0.0467400624699528 	1.7805233804409 	0.00985321426831664 	0
6.00000000000001 	1.14859849100923 	-7.28583859910259e-17 	0.157430695483697 	0.0456605759564923 	1.72225124826678 	0.00932450632705274 	0
6.00000000000001 	1.19849727668995 	-7.97972798949331e-17 	0.157213696671808 	0.0442975968442448 	1.64937349171103 	0.00865015965309517 	0
6.00000000000001 	1.25022400101563 	-9.71445146547012e-17 	0.156947624811175 	0.0428181400281079 	1.57084859658458 	0.00792227640197934 	0
6.00000000000001 	1.30384562673186 	-1.07552855510562e-16 	0.156628679300619 	0.0412699322653373 	1.48911897169613 	0.00717676829264357 	0
6.00000000000001 	1.35943156962566 	-1.17961196366423e-16 	0.156254169654161 	0.0396980441213415 	1.40647934464813 	0.00644661622718921 	0
6.00000000000001 	1.41705378838763 	-1.14491749414469e-16 	0.155822560712715 	0.0381404080400635 	1.32486894901373 	0.0057575356735287 	0
6.00000000000001 	1.47678687776592 	-1.12757025938492e-16 	0.155333439469811 	0.0366249201311289 	1.24575078081862 	0.00512590323372375 	0
6.00000000000001 	1.53870816513278 	-1.17961196366423e-16 	0.154787367978568 	0.0351685009563549 	1.1700928535413 	0.00455896458858643 	0
6.00000000000001 	1.60289781058851 	-1.16226472890446e-16 	0.154185639414813 	0.0337778807673647 	1.09843389935487 	0.00405665448699867 	0
6.00000000000001 	1.66943891073267 	-1.196959198424e-16 	0.153530025751038 	0.0324514959211079 	1.03099409021109 	0.00361409193337632 	0
6.00000000000001 	1.73841760623657 	-1.24032728532342e-16 	0.152822787136546 	0.0311818301198345 	0.967789132710064 	0.00322392814343873 	0
6.00000000000001 	1.8099231933566 	-1.20563281580388e-16 	0.15206722660523 	0.0299577268270063 	0.908720979787207 	0.00287805487815455 	0
6.00000000000001 	1.88404823953249 	-1.07552855510562e-16 	0.151264899131632 	0.028766475861771 	0.853639858088112 	0.00256857882660782 	0
6.00000000000001 	1.96088870322038 	-9.83371370444353e-17 	0.150400748001408 	0.0275955964894948 	0.802382528581687 	0.00228902512522629 	0
6.00000000000001 	2.04004996790234 	-9.60603124822157e-17 	0.149541313155085 	0.0264381522270665 	0.754904791742419 	0.00204169614083725 	0
6.00000000000001 	2.11873460271874 	-9.60603124822157e-17 	0.148667520389748 	0.0253185299109652 	0.712106675148736 	0.00181732626945532 	0
6.00000000000001 	2.19463865000285 	-9.60603124822157e-17 	0.147831697259082 	0.0242619062057864 	0.674661478994005 	0.00162314089733106 	0
6.00000000000001 	2.26786037121375 	-9.60061023735914e-17 	0.147035676041559 	0.0232626584101997 	0.642103946231808 	0.00145543215847437 	0
6.00000000000001 	2.33849455540975 	-9.59518922649671e-17 	0.146300043476112 	0.0223137317174731 	0.613733924959111 	0.00131105152335051 	0
6.00000000000001 	2.40663264195737 	-8.90129983610599e-17 	0.145614910616098 	0.0214056712488024 	0.588852177724358 	0.00117563008098801 	0
6.00000000000001 	2.47236283890404 	-7.51352105532455e-17 	0.144957383638556 	0.0205341935011888 	0.566993228944271 	0.00105369114021599 	0
6.00000000000001 	2.5357702371677 	-6.47268696973846e-17 	0.144330407405919 	0.0196996947360076 	0.547883599151983 	0.000939585639475939 	0
6.00000000000001 	2.59693692069108 	-6.12032126368067e-17 	0.143733561654668 	0.0189021598146471 	0.531285246920263 	0.000834222075511426 	0
6.00000000000001 	2.65594207270334 	-6.11490025281825e-17 	0.143165915298859 	0.0181411538846267 	0.516997392739331 	0.000737743917189683 	0
6.00000000000001 	2.71286207822659 	-6.11490025281825e-17 	0.142626535518592 	0.0174159072910475 	0.504853878864101 	0.000649828326048632 	0
6.00000000000001 	2.76777062296 	-6.11490025281825e-17 	0.142114443570146 	0.0167254075550983 	0.494719202103421 	0.000569941516699944 	0
6.00000000000001 	2.8207387886695 	-6.10947924195582e-17 	0.141628614258467 	0.0160684771154019 	0.486484829779506 	0.000497482919754464 	0
6.00000000000001 	2.87183514520655 	-5.75711353589803e-17 	0.141167998117239 	0.0154438349553875 	0.48006633634299 	0.000431855679254381 	0
6.00000000000001 	2.92112583927514 	-6.10405823109339e-17 	0.140731539429363 	0.0148501450878406 	0.475401405193847 	0.000372498970048641 	0
6.00000000000001 	2.9686746800619 	-6.79794762148411e-17 	0.140318190606383 	0.0142860549803549 	0.472448574638151 	0.000318901877486058 	0
