/*--------------------------------*- C++ -*----------------------------------*\
  =========                 |
  \\      /  F ield         | OpenFOAM: The Open Source CFD Toolbox
   \\    /   O peration     | Website:  https://openfoam.org
    \\  /    A nd           | Version:  7
     \\/     M anipulation  |
\*---------------------------------------------------------------------------*/
FoamFile
{
    version     2.0;
    format      ascii;
    class       volScalarField;
    location    "0";
    object      Cx;
}
// * * * * * * * * * * * * * * * * * * * * * * * * * * * * * * * * * * * * * //

dimensions      [0 1 0 0 0 0 0];

internalField   nonuniform List<scalar> 
15600
(
0.0335685081986856
0.0996215684768388
0.158733591306196
0.206587815599667
0.246498505439019
0.282640666431264
0.317050395213997
0.350989343913727
0.385318193247765
0.420337653100904
0.455964878965295
0.492062693008938
0.528478886640726
0.565170421726979
0.602434216073771
0.64087493970062
0.681302405085932
0.724841221823314
0.772789268298548
0.826306594570798
0.886024489728552
0.950807351398919
1.01773837282555
1.08487868288354
1.15201899294152
1.2191593029995
1.28629961305749
1.35343992311547
1.42058023317346
1.48772054323144
1.55486085328943
1.62200116334742
1.6891414734054
1.75628178346339
1.82342209352138
1.89056240357936
1.95770271363735
2.02484302369533
2.09198333375332
2.1591236438113
2.22626395386929
2.29340426392728
2.36054457398526
2.42768488404325
2.49482519410123
2.56196550415921
2.6291058142172
2.69624612427518
2.76338643433317
2.83052674439116
2.89766705444914
2.96480736450712
3.03194767456511
3.09908798462309
3.16622829468108
3.23336860473907
3.30050891479705
3.36764922485503
3.43478953491302
3.501929844971
3.56907015502899
3.63621046508698
3.70335077514497
3.77049108520295
3.83763139526094
3.90477170531892
3.97191201537691
4.0390523254349
4.10619263549288
4.17333294555087
4.24047325560885
4.30761356566684
4.37475387572482
4.44189418578281
4.50903449584079
4.57617480589878
4.64331511595676
4.71045542601475
4.77759573607273
4.84473604613072
4.9118763561887
4.97901666624669
5.04615697630467
5.11329728636266
5.18043759642064
5.24757790647863
5.31471821653661
5.3818585265946
5.44899883665258
5.51613914671057
5.58327945676855
5.65041976682654
5.71756007688453
5.78470038694251
5.85184069700049
5.91898100705848
5.98612131711646
6.05326162717445
6.12019781167106
6.18500433594165
6.2447610548127
6.29831619079755
6.34629618608478
6.38985962594292
6.4303030357366
6.46875321779455
6.50602261753008
6.54271646296486
6.57913431441825
6.61523461382327
6.65086525316112
6.68588899054744
6.72022192921314
6.75416099926533
6.78856364551298
6.82468988827411
6.86456679812578
6.9123536416476
6.97139990642135
7.03743175566366
0.0335521528989649
0.0995775382472324
0.158689826569848
0.2065885221335
0.24657506992565
0.282808055699056
0.317315489972816
0.351354002404778
0.385780857886275
0.420895587678599
0.456615677262212
0.492804493528361
0.529310432799169
0.566090621764368
0.603440783843362
0.641963174244629
0.682464370712067
0.72606448840852
0.774056223679343
0.827594986551739
0.88730952323797
0.952068760833475
1.01896776086072
1.08607528723777
1.15318281361482
1.22029033999186
1.28739786636891
1.35450539274595
1.421612919123
1.48872044550005
1.5558279718771
1.62293549825415
1.69004302463119
1.75715055100824
1.82425807738529
1.89136560376234
1.95847313013939
2.02558065651643
2.09268818289348
2.15979570927053
2.22690323564758
2.29401076202463
2.36111828840168
2.42822581477872
2.49533334115576
2.56244086753281
2.62954839390986
2.69665592028691
2.76376344666396
2.83087097304101
2.89797849941805
2.96508602579509
3.03219355217214
3.09930107854919
3.16640860492624
3.23351613130329
3.30062365768033
3.36773118405738
3.43483871043443
3.50194623681148
3.56905376318852
3.63616128956557
3.70326881594262
3.77037634231967
3.83748386869672
3.90459139507376
3.97169892145081
4.03880644782786
4.10591397420491
4.17302150058196
4.240129026959
4.30723655333605
4.3743440797131
4.44145160609015
4.50855913246719
4.57566665884424
4.64277418522129
4.70988171159833
4.77698923797538
4.84409676435243
4.91120429072947
4.97831181710652
5.04541934348357
5.11252686986062
5.17963439623766
5.24674192261471
5.31384944899176
5.38095697536881
5.44806450174585
5.5151720281229
5.58227955449995
5.64938708087699
5.71649460725404
5.78360213363109
5.85070966000813
5.91781718638518
5.98492471276223
6.05203223913928
6.11893638291127
6.18371918885183
6.24347239393167
6.29704881538838
6.34507237185663
6.3886970142836
6.42921409151081
6.46774590253338
6.5051016476217
6.54188413771296
6.57839172827091
6.61458302007665
6.65030650962182
6.68542549999913
6.71985642857093
6.75389506177091
6.78839544158409
6.82461257225856
6.8645654741641
6.91239705400631
6.97144384369006
7.03744810826047
0.0335351984585526
0.0995318950611219
0.15864445864224
0.206589254545737
0.246654438589164
0.282981575730273
0.317590294502771
0.351732018088809
0.386260470226304
0.421473960194361
0.457290315536453
0.49357346782982
0.530172440478737
0.567044531058585
0.604484224873209
0.64309127384747
0.683668902476082
0.727332566823726
0.775369591337646
0.828930576039357
0.888641631148559
0.953376379234031
1.02024218483925
1.08731572657687
1.15438926831449
1.22146281005211
1.28853635178973
1.35560989352735
1.42268343526497
1.48975697700259
1.55683051874021
1.62390406047783
1.69097760221545
1.75805114395307
1.82512468569069
1.89219822742831
1.95927176916593
2.02634531090355
2.09341885264117
2.1604923943788
2.22756593611641
2.29463947785403
2.36171301959165
2.42878656132927
2.49586010306689
2.56293364480451
2.63000718654213
2.69708072827975
2.76415427001737
2.83122781175499
2.89830135349261
2.96537489523023
3.03244843696785
3.09952197870547
3.16659552044309
3.23366906218071
3.30074260391833
3.36781614565595
3.43488968739357
3.50196322913119
3.56903677086881
3.63611031260643
3.70318385434405
3.77025739608167
3.83733093781929
3.90440447955691
3.97147802129454
4.03855156303216
4.10562510476977
4.1726986465074
4.23977218824502
4.30684572998263
4.37391927172026
4.44099281345787
4.50806635519549
4.57513989693311
4.64221343867073
4.70928698040835
4.77636052214597
4.84343406388359
4.91050760562121
4.97758114735883
5.04465468909645
5.11172823083407
5.17880177257169
5.24587531430931
5.31294885604693
5.38002239778455
5.44709593952217
5.51416948125979
5.58124302299741
5.64831656473503
5.71539010647265
5.78246364821027
5.84953718994789
5.91661073168551
5.98368427342313
6.05075781516075
6.11762874447741
6.18238696320051
6.24213652569386
6.29573501231505
6.34380372573652
6.38749181281971
6.42808525622783
6.46670168662835
6.50414694025317
6.54102132239883
6.57762193956086
6.61390755721198
6.64972729850844
6.68494503149214
6.71947753988382
6.75361938363403
6.78822107705187
6.82453242454107
6.8645641017093
6.91244205664709
6.9714893905099
7.037465059899
0.0335176229293268
0.0994845798312521
0.15859742879664
0.206590013784101
0.24673671411365
0.283161451031617
0.317875164403861
0.352123880188134
0.386757651037798
0.422073519290525
0.457989667068613
0.494370611329722
0.531066025541902
0.568033384452132
0.605565889919664
0.64426069887138
0.684917559695434
0.728647098656956
0.776731071490471
0.830315092011639
0.890022537922831
0.954731899358454
1.02156329454891
1.08860160669428
1.15563991883964
1.222678230985
1.28971654313036
1.35675485527572
1.42379316742109
1.49083147956645
1.55786979171181
1.62490810385717
1.69194641600254
1.7589847281479
1.82602304029326
1.89306135243863
1.96009966458399
2.02713797672935
2.09417628887471
2.16121460102007
2.22825291316544
2.2952912253108
2.36232953745616
2.42936784960152
2.49640616174689
2.56344447389225
2.63048278603761
2.69752109818297
2.76455941032834
2.8315977224737
2.89863603461906
2.96567434676442
3.03271265890978
3.09975097105515
3.16678928320051
3.23382759534587
3.30086590749123
3.36790421963659
3.43494253178196
3.50198084392732
3.56901915607268
3.63605746821804
3.70309578036341
3.77013409250877
3.83717240465413
3.9042107167995
3.97124902894486
4.03828734109022
4.10532565323559
4.17236396538095
4.23940227752631
4.30644058967167
4.37347890181703
4.44051721396239
4.50755552610775
4.57459383825312
4.64163215039848
4.70867046254384
4.7757087746892
4.84274708683457
4.90978539897993
4.97682371112529
5.04386202327065
5.11090033541601
5.17793864756138
5.24497695970674
5.3120152718521
5.37905358399746
5.44609189614282
5.51313020828819
5.58016852043355
5.64720683257891
5.71424514472427
5.78128345686963
5.848321769015
5.91536008116036
5.98239839330572
6.04943670545108
6.11627320358568
6.18100593437278
6.24075172076048
6.2943730807969
6.34248860540147
6.38624246136679
6.42691506857293
6.46561921831992
6.50315725954878
6.54012690011438
6.57682395181733
6.6132073508811
6.64912687009293
6.684446963148
6.71908477279916
6.75333360812389
6.78804032631664
6.82444934142956
6.86456267898556
6.91248870782372
6.97153660584346
7.03748263252363
0.0334994035591582
0.0994355313056783
0.158548676155182
0.206590800831025
0.246822002942139
0.28334791432893
0.318170468296444
0.352530095840706
0.387273043826363
0.422695041030343
0.458714637126816
0.495196955906803
0.531992344726188
0.569058462021555
0.606687179219867
0.645472963175115
0.686211958809585
0.730009785632366
0.778142426638723
0.831750326783723
0.891454031194585
0.956137075974365
1.02293280021322
1.08993459220753
1.15693638420185
1.22393817619616
1.29093996819047
1.35794176018479
1.4249435521791
1.49194534417342
1.55894713616773
1.62594892816205
1.69295072015636
1.75995251215067
1.82695430414499
1.8939560961393
1.96095788813362
2.02795968012794
2.09496147212225
2.16196326411656
2.22896505611088
2.29596684810519
2.3629686400995
2.42997043209382
2.49697222408813
2.56397401608245
2.63097580807676
2.69797760007107
2.76497939206539
2.8319811840597
2.89898297605401
2.96598476804833
3.03298656004264
3.09998835203696
3.16699014403127
3.23399193602559
3.3009937280199
3.36799552001421
3.43499731200853
3.50199910400284
3.56900089599716
3.63600268799147
3.70300447998579
3.7700062719801
3.83700806397441
3.90400985596873
3.97101164796305
4.03801343995737
4.10501523195168
4.17201702394599
4.2390188159403
4.30602060793462
4.37302239992893
4.44002419192324
4.50702598391756
4.57402777591187
4.64102956790619
4.7080313599005
4.77503315189481
4.84203494388913
4.90903673588344
4.97603852787776
5.04304031987207
5.11004211186638
5.1770439038607
5.24404569585501
5.31104748784933
5.37804927984364
5.44505107183795
5.51205286383227
5.57905465582658
5.6460564478209
5.71305823981521
5.78006003180952
5.84706182380384
5.91406361579815
5.98106540779246
6.04806719978678
6.11486800544154
6.1795743145769
6.23931618644237
6.29296125774873
6.34112530836544
6.38494734258661
6.42570201370002
6.46449709633101
6.5021313243609
6.53919971303821
6.57599673206855
6.61248149470919
6.64850444718649
6.68393065031195
6.71867761900734
6.75303736544776
6.78785295551974
6.82436321543621
6.86456120415185
6.91253706792386
6.97158555081327
7.03750084888283
0.0334805167624737
0.0993846859886897
0.158498137610094
0.206591616704896
0.246910415414198
0.283541206867954
0.318476588297839
0.352951190756079
0.387807315665793
0.423339329902227
0.459466164138305
0.496053571237644
0.532952597141383
0.570121090734372
0.607849544304296
0.646729636073611
0.687553775472534
0.731422391813211
0.779605483848815
0.833238138328093
0.892937964082994
0.957593728130672
1.02435247470527
1.09131640871313
1.15828034272099
1.22524427672885
1.2922082107367
1.35917214474456
1.42613607875242
1.49310001276029
1.56006394676815
1.627027880776
1.69399181478386
1.76095574879172
1.82791968279959
1.89488361680745
1.96184755081531
2.02881148482317
2.09577541883103
2.16273935283888
2.22970328684675
2.29666722085461
2.36363115486246
2.43059508887032
2.49755902287818
2.56452295688604
2.6314868908939
2.69845082490176
2.76541475890962
2.83237869291748
2.89934262692534
2.9663065609332
3.03327049494106
3.10023442894891
3.16719836295677
3.23416229696463
3.30112623097249
3.36809016498035
3.43505409898821
3.50201803299607
3.56898196700393
3.63594590101179
3.70290983501965
3.76987376902751
3.83683770303537
3.90380163704323
3.97076557105109
4.03772950505895
4.10469343906681
4.17165737307467
4.23862130708253
4.30558524109039
4.37254917509825
4.43951310910611
4.50647704311397
4.57344097712183
4.64040491112969
4.70736884513754
4.7743327791454
4.84129671315327
4.90826064716112
4.97522458116898
5.04218851517684
5.1091524491847
5.17611638319256
5.24308031720042
5.31004425120828
5.37700818521613
5.44397211922399
5.51093605323185
5.57789998723972
5.64486392124758
5.71182785525543
5.77879178926329
5.84575572327115
5.91271965727901
5.97968359128687
6.04664752529473
6.11341133096821
6.17809025052996
6.23782806437935
6.29149771549845
6.33971206977543
6.38360477989344
6.42444452127066
6.46333386805309
6.5010678066117
6.5382385609369
6.57513920950493
6.61172904912174
6.64785922413396
6.68339542471898
6.71825555158415
6.75273027227315
6.78765872224098
6.82427393513834
6.86455967529983
6.91258719954703
6.97163628878098
7.03751973255828
0.0334609380895409
0.0993319780585528
0.158445747742008
0.206592462461393
0.247002065908474
0.283741578726161
0.318793920516352
0.353387709895335
0.388361158061131
0.424007219860771
0.460245220903924
0.496941566181137
0.533948025821601
0.571222646166686
0.609054489875679
0.648032344369455
0.68894474672199
0.732886745885506
0.781122137117906
0.834780452679773
0.894476257591448
0.959103741512306
1.02582415584275
1.09274884502028
1.1596735341978
1.22659822337533
1.29352291255286
1.36044760173038
1.42737229090791
1.49429698008544
1.56122166926296
1.62814635844049
1.69507104761802
1.76199573679555
1.82892042597307
1.8958451151506
1.96276980432813
2.02969449350566
2.09661918268318
2.16354387186071
2.23046856103824
2.29739325021576
2.36431793939329
2.43124262857081
2.49816731774834
2.56509200692587
2.63201669610339
2.69894138528092
2.76586607445845
2.83279076363597
2.8997154528135
2.96664014199102
3.03356483116855
3.10048952034608
3.1674142095236
3.23433889870113
3.30126358787865
3.36818827705618
3.43511296623371
3.50203765541124
3.56896234458876
3.63588703376629
3.70281172294382
3.76973641212135
3.83666110129887
3.9035857904764
3.97051047965393
4.03743516883146
4.10435985800898
4.17128454718651
4.23820923636404
4.30513392554156
4.37205861471909
4.43898330389661
4.50590799307414
4.57283268225167
4.63975737142919
4.70668206060672
4.77360674978425
4.84053143896177
4.9074561281393
4.97438081731682
5.04130550649435
5.10823019567188
5.1751548848494
5.24207957402693
5.30900426320445
5.37592895238198
5.44285364155951
5.50977833073704
5.57670301991456
5.64362770909209
5.71055239826962
5.77747708744714
5.84440177662467
5.91132646580219
5.97825115497972
6.04517584415724
6.11190129445184
6.17655182105885
6.23628542813448
6.289980559421
6.33824706012668
6.38221303528372
6.42314096342127
6.46212802766586
6.4999653295741
6.5372421996116
6.57425027409298
6.61094904012866
6.64719036577122
6.68284059362916
6.71781802430935
6.75241193123204
6.78745737518553
6.82418138503456
6.86455809045136
6.91263916758565
6.97168888542947
7.03753930799561
0.0334406421952389
0.0992773392822763
0.158391438735314
0.206593339194841
0.24709707299049
0.283949289135926
0.319122875563417
0.353840218175925
0.388935287843291
0.424699575405891
0.46105281585708
0.497862090213638
0.534979919334185
0.572364554283722
0.610303575756746
0.649382774458748
0.690386673228006
0.73440474352533
0.78269434982576
0.836379266429616
0.896070903094286
0.960669070881201
1.02734974876695
1.0942337554665
1.16111776216605
1.22800176886559
1.29488577556514
1.36176978226469
1.42865378896424
1.49553779566379
1.56242180236333
1.62930580906288
1.69618981576243
1.76307382246198
1.82995782916153
1.89684183586108
1.96372584256063
2.03060984926018
2.09749385595973
2.16437786265927
2.23126186935882
2.29814587605837
2.36502988275791
2.43191388945747
2.49879789615701
2.56568190285656
2.6325659095561
2.69944991625565
2.7663339229552
2.83321792965475
2.9001019363543
2.96698594305384
3.03386994975339
3.10075395645294
3.16763796315249
3.23452196985204
3.30140597655158
3.36828998325113
3.43517398995068
3.50205799665023
3.56894200334977
3.63582601004932
3.70271001674887
3.76959402344842
3.83647803014797
3.90336203684752
3.97024604354707
4.03713005024662
4.10401405694616
4.17089806364571
4.23778207034526
4.30466607704481
4.37155008374435
4.4384340904439
4.50531809714345
4.572202103843
4.63908611054254
4.70597011724209
4.77285412394164
4.83973813064119
4.90662213734073
4.97350614404028
5.04039015073983
5.10727415743938
5.17415816413893
5.24104217083847
5.30792617753802
5.37481018423757
5.44169419093712
5.50857819763666
5.57546220433621
5.64234621103576
5.7092302177353
5.77611422443485
5.8429982311344
5.90988223783395
5.9767662445335
6.04365025123304
6.11033594110053
6.17495703461328
6.23468628070026
6.28840782548575
6.33672838289444
6.38077030708617
6.42178965265582
6.46087801418814
6.4988224660897
6.53620933928749
6.57332877513878
6.61014045806367
6.64649700634455
6.68226543893143
6.7173644709603
6.75208193040706
6.78724865385902
6.8240854453955
6.86455644755574
6.91269303930933
6.97174340884758
7.03755960053578
0.0334196028057596
0.0992206989272694
0.158335140290382
0.206594248039645
0.247195559565854
0.284164606819556
0.31946387908444
0.354309301202306
0.389530448096455
0.425417292701481
0.461889994368803
0.498816334916688
0.536049613447539
0.573548293285574
0.611598418909325
0.650782674514129
0.691881421623986
0.735978349852885
0.78432415727642
0.838036649308946
0.897723964914598
0.962291742606704
1.02893122840895
1.09577306231804
1.16261489622714
1.22945673013623
1.29629856404533
1.36314039795442
1.42998223186352
1.49682406577261
1.5636658996817
1.6305077335908
1.6973495674999
1.76419140140899
1.83103323531809
1.89787506922719
1.96471690313628
2.03155873704537
2.09840057095447
2.16524240486356
2.23208423877266
2.29892607268175
2.36576790659085
2.43260974049994
2.49945157440903
2.56629340831813
2.63313524222722
2.69997707613632
2.76681891004541
2.83366074395451
2.9005025778636
2.9673444117727
3.03418624568179
3.10102807959088
3.16786991349998
3.23471174740908
3.30155358131817
3.36839541522726
3.43523724913635
3.50207908304545
3.56892091695455
3.63576275086364
3.70260458477274
3.76944641868184
3.83628825259093
3.90313008650003
3.96997192040913
4.03681375431822
4.10365558822731
4.17049742213641
4.2373392560455
4.3041810899546
4.37102292386369
4.43786475777278
4.50470659168188
4.57154842559097
4.63839025950007
4.70523209340916
4.77207392731825
4.83891576122735
4.90575759513644
4.97259942904553
5.03944126295463
5.10628309686373
5.17312493077282
5.23996676468192
5.30680859859101
5.3736504325001
5.4404922664092
5.50733410031829
5.57417593422739
5.64101776813648
5.70785960204558
5.77470143595467
5.84154326986376
5.90838510377286
5.97522693768195
6.04206877159105
6.10871324451388
6.17330382668777
6.2330285519135
6.28677747771395
6.33515407207868
6.37927472762946
6.42038883966153
6.45958220945714
6.49763773672155
6.53513864294452
6.57237351979856
6.60930225627774
6.64577824839027
6.6816692162146
6.7168943045794
6.75173984279915
6.78703228823098
6.82398599210915
6.86455474448722
6.91274888445141
6.97179992961869
7.03758063644823
0.0333977926849339
0.0991619836698084
0.158276779532595
0.206595190171717
0.247297653039058
0.284387810336581
0.319817372309095
0.354795566023312
0.39014740911942
0.426161300735016
0.462757840100615
0.49980553551922
0.537158492860039
0.574775395520556
0.612940695527385
0.652233856747749
0.693430926923087
0.73760960197642
0.786013669333019
0.839754746868854
0.899437582996471
0.96397385728866
1.03057064204612
1.09736875825822
1.16416687447032
1.23096499068243
1.29776310689453
1.36456122310664
1.43135933931874
1.49815745553084
1.56495557174294
1.63175368795505
1.69855180416715
1.76534992037926
1.83214803659137
1.89894615280347
1.96574426901558
2.03254238522768
2.09934050143978
2.16613861765188
2.23293673386399
2.29973485007609
2.36653296628819
2.43333108250029
2.5001291987124
2.5669273149245
2.63372543113661
2.70052354734871
2.76732166356081
2.83411977977291
2.90091789598502
2.96771601219712
3.03451412840923
3.10131224462133
3.16811036083343
3.23490847704553
3.30170659325764
3.36850470946974
3.43530282568184
3.50210094189395
3.56889905810605
3.63569717431816
3.70249529053026
3.76929340674237
3.83609152295447
3.90288963916657
3.96968775537868
4.03648587159078
4.10328398780289
4.17008210401499
4.23688022022709
4.3036783364392
4.3704764526513
4.4372745688634
4.5040726850755
4.57087080128761
4.63766891749971
4.70446703371181
4.77126514992392
4.83806326613602
4.90486138234812
4.97165949856023
5.03845761477233
5.10525573098443
5.17205384719654
5.23885196340864
5.30565007962074
5.37244819583285
5.43924631204495
5.50604442825705
5.57284254446915
5.63964066068126
5.70643877689336
5.77323689310547
5.84003500931757
5.90683312552967
5.97363124174178
6.04042935795388
6.10703110405982
6.17159005714918
6.23131009577539
6.285087405543
6.33352208965914
6.37772436082451
6.41893671104429
6.45823893603395
6.49640960783912
6.53402872458675
6.57138327153497
6.6084333497845
6.64503316157354
6.68105115380422
6.71640691671518
6.75138522577531
6.7868079983858
6.82388289652032
6.86455297904233
6.91280677529966
6.97185852091158
7.03760244296473
0.0333751835989184
0.0991011175001329
0.158216280918005
0.206596166810045
0.247403485478088
0.284619188443724
0.320183812621745
0.355299641917257
0.390786969422129
0.426932562519647
0.463657476406923
0.500830972496244
0.538307992992283
0.576047449468642
0.614332143206763
0.653738199757142
0.695037195023128
0.739300611629363
0.787765073149075
0.841535783257667
0.901213975675105
0.965717592476586
1.0322701119523
1.09902290896691
1.16577570598151
1.23252850299612
1.29928130001072
1.36603409702533
1.43278689403993
1.49953969105453
1.56629248806914
1.63304528508375
1.69979808209836
1.76655087911296
1.83330367612757
1.90005647314217
1.96680927015678
2.03356206717139
2.10031486418599
2.1670676612006
2.2338204582152
2.3005732552298
2.36732605224441
2.43407884925902
2.50083164627362
2.56758444328822
2.63433724030283
2.70109003731744
2.76784283433204
2.83459563134665
2.90134842836125
2.96810122537586
3.03485402239046
3.10160681940507
3.16835961641967
3.23511241343428
3.30186521044888
3.36861800746348
3.43537080447809
3.5021236014927
3.5688763985073
3.63562919552191
3.70238199253652
3.76913478955112
3.83588758656573
3.90264038358033
3.96939318059494
4.03614597760955
4.10289877462415
4.16965157163876
4.23640436865336
4.30315716566796
4.36990996268257
4.43666275969718
4.50341555671178
4.57016835372638
4.63692115074099
4.7036739477556
4.7704267447702
4.8371795417848
4.90393233879941
4.97068513581402
5.03743793282862
5.10419072984322
5.17094352685783
5.23769632387244
5.30444912088704
5.37120191790165
5.43795471491625
5.50470751193085
5.57146030894546
5.63821310596007
5.70496590297467
5.77171869998928
5.83847149700388
5.90522429401848
5.97197709103309
6.03872988804769
6.10528734215544
6.16981350746631
6.22952868767349
6.28333542109436
6.33183032295694
6.37611719965811
6.4174313869813
6.45684645503219
6.49513648963333
6.53287814744853
6.57035674851659
6.60753261385619
6.64426078148444
6.68041045176426
6.71590167663528
6.75101762049647
6.786575494161
6.82377602526474
6.86455114893684
6.91286678678961
6.97191925857565
7.03762504831433
0.0333517462794735
0.0990380216240227
0.15815356613563
0.206597179218229
0.247513193785056
0.284859040468081
0.320563674152753
0.355822181205775
0.391449956758705
0.427732076340278
0.464590067788781
0.501893973226087
0.539499601844965
0.577366101797539
0.615774563194349
0.655297650957028
0.696702305303274
0.741053567904057
0.789580635999869
0.843382064100143
0.903055442548405
0.967525205488451
1.03403183814504
1.1007376557945
1.16744347344397
1.23414929109344
1.3008551087429
1.36756092639237
1.43426674404183
1.5009725616913
1.56767837934076
1.63438419699023
1.7010900146397
1.76779583228917
1.83450164993863
1.90120746758809
1.96791328523756
2.03461910288703
2.1013249205365
2.16803073818596
2.23473655583542
2.30144237348489
2.36814819113435
2.43485400878382
2.50155982643328
2.56826564408275
2.63497146173222
2.70167727938168
2.76838309703115
2.83508891468061
2.90179473233008
2.96850054997954
3.03520636762901
3.10191218527847
3.16861800292794
3.2353238205774
3.30202963822687
3.36873545587633
3.4354412735258
3.50214709117527
3.56885290882473
3.6355587264742
3.70226454412367
3.76897036177314
3.8356761794226
3.90238199707206
3.96908781472153
4.035793632371
4.10249945002047
4.16920526766993
4.23591108531939
4.30261690296886
4.36932272061833
4.43602853826779
4.50273435591725
4.56944017356672
4.63614599121619
4.70285180886565
4.76955762651512
4.83626344416458
4.90296926181405
4.96967507946352
5.03638089711298
5.10308671476244
5.16979253241191
5.23649835006137
5.30320416771084
5.3699099853603
5.43661580300977
5.50332162065924
5.5700274383087
5.63673325595816
5.70343907360763
5.7701448912571
5.83685070890656
5.90355652655602
5.97026234420549
6.03696816185496
6.10347970144818
6.16797187783812
6.22768202150196
6.28151925634111
6.33007658189966
6.37445116359488
6.41587091878771
6.45540296386716
6.49381673405857
6.53168542213482
6.56929262195904
6.60659888256802
6.64346010839015
6.67974628086232
6.71537793051076
6.75063655132431
6.78633447477231
6.82366524009639
6.8645492518029
6.91292899660147
6.97198222123879
7.03764848176048
0.0333274503862534
0.0989726143606721
0.15808855400613
0.206598228706125
0.247626919873083
0.285107676693927
0.320957448391405
0.356363860097451
0.392137229198287
0.428560877045291
0.46555682140089
0.502995913708322
0.540734861924811
0.578733059494094
0.617269822719662
0.656914229100211
0.698428413315818
0.742870740085636
0.791462708217533
0.845295979482137
0.904964367453767
0.9693990363327
1.03585810123344
1.10251521853388
1.16917233583432
1.23582945313477
1.30248657043521
1.36914368773565
1.43580080503609
1.50245792233653
1.56911503963697
1.63577215693742
1.70242927423786
1.7690863915383
1.83574350883874
1.90240062613918
1.96905774343963
2.03571486074007
2.10237197804051
2.16902909534095
2.23568621264139
2.30234332994183
2.36900044724228
2.43565756454272
2.50231468184316
2.5689717991436
2.63562891644404
2.70228603374448
2.76894315104493
2.83560026834537
2.90225738564581
2.96891450294625
3.03557162024669
3.10222873754713
3.16888585484757
3.23554297214801
3.30220008944845
3.36885720674889
3.43551432404934
3.50217144134978
3.56882855865022
3.63548567595066
3.7021427932511
3.76879991055155
3.83545702785199
3.90211414515243
3.96877126245288
4.03542837975332
4.10208549705376
4.1687426143542
4.23539973165464
4.30205684895508
4.36871396625552
4.43537108355596
4.50202820085641
4.56868531815685
4.63534243545728
4.70199955275773
4.76865667005818
4.83531378735861
4.90197090465905
4.9686280219595
5.03528513925994
5.10194225656038
5.16859937386082
5.23525649116126
5.3019136084617
5.36857072576214
5.43522784306258
5.50188496036303
5.56854207766347
5.63519919496391
5.70185631226435
5.76851342956479
5.83517054686523
5.90182766416567
5.96848478146611
6.03514189876655
6.1016058418937
6.1660627842166
6.2257677066762
6.27963656017198
6.3282585961862
6.37272409588395
6.41425328639401
6.45390659392248
6.49244863269967
6.53044900469343
6.56818951440515
6.60563094728945
6.6426301059413
6.67905778149677
6.71483500057048
6.75024152520636
6.78608462842484
6.82355039770913
6.86454728518596
6.91299348526093
6.97204749040921
7.03767277363854
0.0333022644675039
0.0989048110373058
0.158021160376538
0.206599316631557
0.24774481084964
0.285365418763666
0.321365644821309
0.356925379562315
0.392849676235085
0.429420037385581
0.466558988613772
0.504138220344611
0.542015372241042
0.580150092073739
0.61881985741184
0.658590026890777
0.700217753576597
0.74475448058972
0.79341372623365
0.847280007044624
0.906943221553883
0.971341510737314
1.03775126537037
1.10435789829383
1.17096453121728
1.23757116414074
1.3041777970642
1.37078442998765
1.43739106291111
1.50399769583456
1.57060432875802
1.63721096168148
1.70381759460494
1.7704242275284
1.83703086045185
1.90363749337531
1.97024412629877
2.03685075922223
2.10345739214569
2.17006402506914
2.23667065799259
2.30327729091605
2.36988392383951
2.43649055676297
2.50309718968642
2.56970382260988
2.63631045553334
2.70291708845679
2.76952372138025
2.83613035430371
2.90273698722716
2.96934362015062
3.03595025307408
3.10255688599753
3.16916351892099
3.23577015184444
3.3023767847679
3.36898341769136
3.43559005061481
3.50219668353827
3.56880331646173
3.63540994938519
3.70201658230864
3.7686232152321
3.83522984815556
3.90183648107902
3.96844311400247
4.03504974692593
4.10165637984939
4.16826301277284
4.2348696456963
4.30147627861976
4.36808291154321
4.43468954446667
4.50129617739013
4.56790281031358
4.63450944323704
4.7011160761605
4.76772270908396
4.83432934200741
4.90093597493087
4.96754260785432
5.03414924077778
5.10075587370124
5.16736250662469
5.23396913954815
5.30057577247161
5.36718240539506
5.43378903831852
5.50039567124198
5.56700230416543
5.63360893708889
5.70021557001234
5.7668222029358
5.83342883585926
5.90003546878271
5.96664210170617
6.03324873462963
6.09966333772683
6.16408375522076
6.22378326503828
6.2776848953477
6.32637401234772
6.37093376076697
6.41257639573123
6.45235540813136
6.49103041456053
6.52916729461676
6.56704599794225
6.60462755512004
6.64176969983103
6.6783440625848
6.71427218422464
6.74983203103847
6.78582563191034
6.82343134955151
6.86454524654168
6.91306033624294
6.9721151505812
7.03769795539502
0.033276155919327
0.0988345238790604
0.157951298011726
0.206600444402045
0.247867019206603
0.285632600093506
0.321788791579
0.357507466238386
0.393588219939068
0.430310669402573
0.467597866633169
0.505322371784789
0.543342790374961
0.581619033870884
0.62042667380514
0.660327213693064
0.702072642457603
0.746707228007718
0.795436215733339
0.849336715191013
0.908994566535602
0.973355143289817
1.03971378131276
1.10626808047775
1.17282237964275
1.23937667880774
1.30593097797273
1.37248527713772
1.43903957630272
1.50559387546771
1.5721481746327
1.6387024737977
1.70525677296269
1.77181107212769