/*--------------------------------*- C++ -*----------------------------------*\
  =========                 |
  \\      /  F ield         | OpenFOAM: The Open Source CFD Toolbox
   \\    /   O peration     | Website:  https://openfoam.org
    \\  /    A nd           | Version:  7
     \\/     M anipulation  |
\*---------------------------------------------------------------------------*/
FoamFile
{
    version     2.0;
    format      ascii;
    class       volScalarField;
    location    "0";
    object      k_LES;
}
// * * * * * * * * * * * * * * * * * * * * * * * * * * * * * * * * * * * * * //

dimensions      [0 2 -2 0 0 0 0];

internalField   nonuniform List<scalar>
15600
(
0.02018058
-0.00343503
0.00207234
0.00071895
0.00102232
0.00139204
0.00049445
0.00109997
0.00026769
0.00110091
0.00075135
0.00138328
-0.00004493
0.00067625
0.00082830
0.00119692
0.00078612
0.00193949
0.00202380
0.00210090
0.00250127
0.00186870
0.00082264
0.00084088
0.00089971
0.00093212
0.00106548
0.00115113
0.00130742
0.00145886
0.00165146
0.00185226
0.00205133
0.00226311
0.00250519
0.00272818
0.00300037
0.00320711
0.00353708
0.00362826
0.00387083
0.00401510
0.00418213
0.00439499
0.00459154
0.00475156
0.00486329
0.00501458
0.00515155
0.00525800
0.00529303
0.00529985
0.00543332
0.00551719
0.00556563
0.00559639
0.00561890
0.00563497
0.00568574
0.00578312
0.00578683
0.00577160
0.00583980
0.00586855
0.00575543
0.00569733
0.00574027
0.00566588
0.00579652
0.00567497
0.00548302
0.00548418
0.00539292
0.00532518
0.00521541
0.00509121
0.00496006
0.00495755
0.00493901
0.00483023
0.00487525
0.00466838
0.00467713
0.00458516
0.00452598
0.00448529
0.00441076
0.00440600
0.00435852
0.00434131
0.00434443
0.00441088
0.00437003
0.00446243
0.00467552
0.00493577
0.00542407
0.00625892
0.01067219
0.00411120
-0.00018025
0.00003605
-0.00166803
-0.00068018
0.00001837
-0.00078881
-0.00034274
-0.00015909
-0.00172817
-0.00146319
0.00030653
-0.00036015
-0.00112568
-0.00103490
-0.00198965
-0.00331515
-0.00363513
0.00007520
-0.00204100
0.01015360
0.02764341
0.00003704
0.00356427
0.00195962
0.00188022
0.00188730
0.00096157
0.00168996
0.00106248
0.00206703
0.00157797
0.00283418
0.00131150
0.00195079
0.00301693
0.00394459
0.00339862
0.00515006
0.00669772
0.00695014
0.00642317
0.00477859
0.00317021
0.00330699
0.00345319
0.00375785
0.00420090
0.00463560
0.00519941
0.00578622
0.00636930
0.00705973
0.00774404
0.00845578
0.00919033
0.00994003
0.01069104
0.01141610
0.01216555
0.01274655
0.01335475
0.01375813
0.01429220
0.01478060
0.01534671
0.01583540
0.01621891
0.01662301
0.01702782
0.01723483
0.01736331
0.01757902
0.01793044
0.01811342
0.01825107
0.01848498
0.01854016
0.01849921
0.01868961
0.01887199
0.01897502
0.01902079
0.01916365
0.01914431
0.01902975
0.01891554
0.01899224
0.01891011
0.01898271
0.01870799
0.01832487
0.01823165
0.01808208
0.01789794
0.01754568
0.01718620
0.01704512
0.01685071
0.01671015
0.01670365
0.01660190
0.01626934
0.01611904
0.01595204
0.01579882
0.01573985
0.01552097
0.01552544
0.01542181
0.01535824
0.01543329
0.01540648
0.01557750
0.01589943
0.01657517
0.01746868
0.01904337
0.02168011
0.02718457
0.01975930
0.00599894
0.00384381
-0.00084509
-0.00119639
0.00004192
-0.00206577
-0.00033025
-0.00037031
-0.00089052
-0.00055367
0.00150749
-0.00123972
-0.00215199
-0.00234037
-0.00604526
-0.00304138
-0.00336531
-0.00497307
-0.00021378
0.01518533
0.03638789
0.00652151
0.00649968
0.00427689
0.00338382
0.00273018
0.00170400
0.00237058
0.00207827
0.00329489
0.00274491
0.00458706
0.00341282
0.00447554
0.00603372
0.00757347
0.00737225
0.00968342
0.01109471
0.01079100
0.00992324
0.00795040
0.00655320
0.00680355
0.00731134
0.00797801
0.00882544
0.00981923
0.01089789
0.01203982
0.01321363
0.01445402
0.01565790
0.01681337
0.01802619
0.01916865
0.02035594
0.02142699
0.02258617
0.02351819
0.02437090
0.02505629
0.02588562
0.02661148
0.02732505
0.02820312
0.02876587
0.02945185
0.03010675
0.03037256
0.03050039
0.03085730
0.03138415
0.03160872
0.03187267
0.03236032
0.03248397
0.03250888
0.03283097
0.03310220
0.03327454
0.03346524
0.03375567
0.03379899
0.03360346
0.03353291
0.03346280
0.03341984
0.03347843
0.03308663
0.03274964
0.03258151
0.03247852
0.03227261
0.03175515
0.03123095
0.03090640
0.03069904
0.03048296
0.03062144
0.03048460
0.03004653
0.02988718
0.02969325
0.02956165
0.02957764
0.02934026
0.02932444
0.02924702
0.02910868
0.02908143
0.02904442
0.02945885
0.03014954
0.03121848
0.03296878
0.03570933
0.03969691
0.04354737
0.03757013
0.02752731
0.01649566
0.00787298
0.00188519
0.00465030
0.00110391
0.00069291
-0.00096487
0.00311483
0.00289125
0.00272394
-0.00248222
-0.00325014
-0.00612299
-0.00580931
-0.00288987
-0.00219485
-0.00434647
0.00350104
0.02200165
0.04669795
0.01601897
0.01138556
0.00798574
0.00467586
0.00394925
0.00287286
0.00319707
0.00343731
0.00483297
0.00488799
0.00709304
0.00636514
0.00801792
0.01007339
0.01182472
0.01222665
0.01418244
0.01452067
0.01406708
0.01265595
0.01063800
0.00964877
0.01013369
0.01100070
0.01206195
0.01331546
0.01473444
0.01621492
0.01775541
0.01926428
0.02075484
0.02217416
0.02356063
0.02496348
0.02629257
0.02763947
0.02886044
0.03019849
0.03131943
0.03218787
0.03309462
0.03408715
0.03497655
0.03586658
0.03686581
0.03761523
0.03842474
0.03918688
0.03954397
0.03979793
0.04014114
0.04065773
0.04125940
0.04149139
0.04198366
0.04223662
0.04236960
0.04269006
0.04307925
0.04332268
0.04360624
0.04384041
0.04396278
0.04391158
0.04393679
0.04376101
0.04374865
0.04373369
0.04340691
0.04312625
0.04301941
0.04290199
0.04270396
0.04213931
0.04157260
0.04124701
0.04109535
0.04094456
0.04102815
0.04086912
0.04054581
0.04027318
0.04022014
0.04029450
0.04009842
0.03996028
0.04002387
0.04001359
0.03985472
0.03974792
0.03982349
0.04046652
0.04160559
0.04303947
0.04545500
0.04867226
0.05319956
0.05542029
0.05199779
0.04600093
0.03575057
0.02419733
0.01501831
0.02022474
0.01476058
0.00971780
0.00396474
0.01177768
0.01041856
0.00422326
-0.00019497
-0.00609922
-0.00591979
-0.00215789
-0.00261205
-0.00076686
0.00338265
0.00974375
0.03096784
0.05843166
0.02824623
0.01590369
0.01220683
0.00581896
0.00566603
0.00449748
0.00431301
0.00520395
0.00655046
0.00757298
0.00967708
0.00988392
0.01172300
0.01427337
0.01568190
0.01625891
0.01689639
0.01710104
0.01656159
0.01501256
0.01305647
0.01244941
0.01319143
0.01439416
0.01580476
0.01737306
0.01907172
0.02082739
0.02256696
0.02419908
0.02576783
0.02725089
0.02861981
0.03004999
0.03148417
0.03287637
0.03418245
0.03557027
0.03676542
0.03778295
0.03871739
0.03977602
0.04077603
0.04175901
0.04285010
0.04369884
0.04460084
0.04540191
0.04583574
0.04609654
0.04659066
0.04728723
0.04782935
0.04820980
0.04871987
0.04909506
0.04924324
0.04970150
0.05012982
0.05044522
0.05077974
0.05112981
0.05118749
0.05126134
0.05136461
0.05121843
0.05124963
0.05121379
0.05094653
0.05066797
0.05049829
0.05047418
0.05032945
0.04976839
0.04925086
0.04887942
0.04871466
0.04856986
0.04873335
0.04864566
0.04833237
0.04822879
0.04825431
0.04833021
0.04819223
0.04809452
0.04816849
0.04829981
0.04817028
0.04808542
0.04826149
0.04912472
0.05058912
0.05240923
0.05511287
0.05862524
0.06303499
0.06473266
0.06325346
0.06010860
0.05487961
0.04715136
0.03736039
0.04154961
0.03174636
0.02803303
0.01606952
0.02388620
0.01830832
0.00766764
0.00675147
-0.00513091
-0.00015969
0.00180882
-0.00043341
-0.00075189
0.00757570
0.01899522
0.04203604
0.07133752
0.04281356
0.02005898
0.01557940
0.00709194
0.00750356
0.00626402
0.00602989
0.00730514
0.00852007
0.01012070
0.01257112
0.01341993
0.01535731
0.01726840
0.01839803
0.01878595
0.01895077
0.01912062
0.01837636
0.01693257
0.01520674
0.01496068
0.01595883
0.01743971
0.01909658
0.02091139
0.02276621
0.02463959
0.02641208
0.02805310
0.02955930
0.03100101
0.03236216
0.03378834
0.03523383
0.03662259
0.03795255
0.03941928
0.04065753
0.04170251
0.04273525
0.04382662
0.04494055
0.04599517
0.04713344
0.04808506
0.04904549
0.04986185
0.05035435
0.05067943
0.05126446
0.05197595
0.05255412
0.05307792
0.05364741
0.05407185
0.05430480
0.05476286
0.05527850
0.05565115
0.05605991
0.05642974
0.05653192
0.05662141
0.05688640
0.05675941
0.05679265
0.05674716
0.05653081
0.05627850
0.05615567
0.05609072
0.05596777
0.05551807
0.05502642
0.05462908
0.05455895
0.05445695
0.05458882
0.05454824
0.05428780
0.05429100
0.05435969
0.05447354
0.05439765
0.05433875
0.05452712
0.05469819
0.05467833
0.05465148
0.05494589
0.05600229
0.05765899
0.05988764
0.06276795
0.06640507
0.07048232
0.07177025
0.07148623
0.07116409
0.06992271
0.06760006
0.06166560
0.06390841
0.05408720
0.05000114
0.03918302
0.03679912
0.03566238
0.01831596
0.01871451
0.00220391
0.00651729
0.00899268
0.00294176
-0.00048132
0.00990604
0.03181154
0.05511916
0.08508870
0.05920433
0.02505332
0.01841255
0.00953760
0.00946980
0.00805984
0.00824631
0.00949362
0.01105717
0.01286364
0.01526472
0.01656909
0.01797392
0.01949233
0.02035056
0.02065175
0.02078957
0.02070305
0.01989384
0.01861195
0.01714996
0.01720479
0.01843715
0.02012855
0.02197519
0.02392741
0.02584624
0.02773774
0.02946263
0.03102857
0.03248308
0.03382922
0.03514937
0.03659041
0.03805116
0.03941778
0.04079885
0.04228998
0.04357462
0.04466769
0.04573537
0.04691120
0.04809233
0.04919578
0.05032562
0.05136238
0.05233542
0.05318876
0.05376832
0.05412828
0.05478665
0.05553281
0.05617999
0.05677195
0.05735554
0.05783040
0.05812705
0.05866638
0.05922248
0.05963341
0.06010708
0.06051358
0.06061783
0.06071611
0.06104454
0.06102261
0.06107887
0.06104515
0.06091935
0.06063645
0.06054652
0.06049017
0.06039116
0.05998330
0.05952968
0.05912074
0.05910460
0.05903073
0.05913510
0.05916718
0.05901007
0.05906847
0.05925185
0.05937139
0.05931268
0.05931306
0.05957691
0.05981506
0.05988252
0.05994417
0.06034064
0.06156518
0.06341638
0.06596579
0.06891694
0.07252994
0.07624242
0.07736302
0.07788592
0.07896528
0.07942290
0.07951192
0.08110213
0.08001371
0.07740854
0.07569699
0.06474912
0.05509999
0.05716235
0.03628119
0.03734658
0.01263176
0.01848278
0.01676415
0.01558581
0.00809249
0.01833378
0.04882903
0.07008090
0.09927077
0.07698940
0.03169573
0.02214783
0.01231907
0.01158006
0.01016845
0.01059969
0.01190213
0.01337682
0.01505230
0.01743426
0.01876709
0.01997089
0.02127437
0.02196836
0.02222219
0.02240971
0.02190960
0.02114008
0.02005019
0.01889452
0.01920759
0.02064111
0.02247778
0.02445253
0.02646408
0.02837406
0.03022526
0.03183553
0.03331819
0.03468713
0.03598606
0.03731458
0.03876590
0.04022175
0.04160142
0.04302252
0.04453792
0.04587713
0.04700720
0.04811395
0.04935853
0.05060435
0.05174174
0.05286719
0.05391634
0.05495926
0.05582062
0.05649174
0.05689763
0.05758812
0.05834201
0.05901129
0.05968105
0.06030038
0.06082642
0.06116187
0.06177657
0.06234830
0.06281057
0.06332688
0.06373374
0.06386420
0.06398776
0.06433772
0.06438687
0.06449792
0.06446578
0.06437351
0.06414528
0.06406306
0.06397621
0.06387084
0.06355500
0.06311922
0.06271998
0.06274155
0.06270105
0.06275929
0.06282814
0.06278376
0.06294576
0.06317559
0.06324948
0.06327130
0.06332047
0.06361512
0.06391063
0.06410080
0.06429578
0.06481484
0.06611181
0.06815975
0.07092927
0.07385695
0.07743873
0.08077595
0.08184655
0.08294764
0.08522720
0.08699112
0.08896610
0.09154116
0.09391346
0.09484137
0.09352236
0.08808283
0.08274584
0.08431538
0.05884804
0.06197284
0.02941853
0.03731927
0.03289327
0.02085145
0.02872814
0.03778566
0.07074920
0.08681035
0.11375705
0.09580083
0.04025676
0.02576071
0.01509546
0.01359154
0.01230167
0.01280340
0.01404334
0.01558397
0.01713501
0.01916752
0.02034909
0.02149617
0.02245224
0.02345828
0.02356748
0.02342783
0.02294248
0.02221779
0.02131184
0.02044805
0.02098030
0.02258337
0.02451291
0.02655561
0.02857486
0.03043824
0.03220801
0.03369709
0.03509691
0.03642177
0.03768869
0.03905943
0.04050667
0.04196167
0.04337032
0.04484382
0.04639460
0.04779160
0.04894484
0.05010520
0.05141260
0.05269400
0.05386828
0.05497881
0.05605036
0.05713503
0.05801052
0.05878362
0.05922006
0.05993218
0.06066844
0.06136308
0.06207370
0.06274394
0.06328335
0.06367964
0.06434962
0.06492473
0.06543156
0.06596247
0.06639931
0.06655751
0.06666498
0.06701895
0.06710293
0.06730267
0.06728701
0.06721652
0.06703471
0.06693061
0.06682981
0.06671231
0.06648360
0.06605737
0.06568127
0.06571495
0.06569553
0.06570243
0.06581851
0.06586070
0.06610812
0.06638700
0.06644289
0.06651715
0.06661290
0.06693801
0.06724973
0.06754935
0.06790911
0.06852666
0.06990839
0.07208804
0.07497880
0.07786185
0.08138401
0.08439047
0.08542180
0.08689229
0.08980456
0.09259988
0.09562185
0.10013713
0.10223227
0.10707878
0.10563054
0.10868841
0.10791890
0.10884411
0.08752541
0.08640420
0.05326847
0.05887169
0.05231564
0.02590057
0.05352385
0.06416819
0.09633765
0.10516819
0.12853049
0.11487517
0.04831536
0.02914322
0.01729343
0.01530977
0.01430931
0.01478667
0.01561226
0.01746508
0.01870541
0.02030577
0.02179971
0.02284461
0.02378182
0.02457906
0.02448499
0.02423602
0.02373425
0.02314397
0.02241884
0.02182111
0.02254836
0.02428447
0.02627192
0.02833360
0.03033427
0.03211613
0.03377058
0.03516245
0.03649131
0.03779294
0.03909295
0.04051114
0.04196495
0.04342091
0.04487961
0.04640460
0.04800527
0.04946159
0.05064234
0.05185663
0.05320416
0.05451209
0.05572283
0.05683567
0.05791956
0.05902996
0.05991857
0.06078835
0.06128176
0.06197351
0.06266512
0.06336714
0.06412461
0.06485027
0.06537455
0.06582894
0.06652400
0.06712116
0.06766743
0.06820790
0.06864697
0.06883533
0.06894881
0.06928940
0.06937653
0.06967718
0.06966289
0.06960452
0.06949266
0.06932496
0.06924159
0.06905620
0.06893670
0.06852015
0.06815623
0.06822342
0.06819898
0.06815583
0.06829585
0.06845107
0.06873601
0.06907693
0.06908463
0.06924110
0.06934152
0.06966286
0.07004787
0.07040942
0.07095667
0.07164362
0.07308257
0.07539438
0.07833527
0.08114074
0.08454669
0.08729063
0.08832125
0.09010837
0.09351194
0.09730846
0.10179719
0.10602864
0.10952548
0.11398114
0.11556144
0.12061461
0.12218675
0.12300356
0.11049852
0.11026512
0.07883456
0.07915370
0.07162846
0.04051094
0.07102037
0.09334964
0.12275799
0.12429800
0.14355454
0.13326815
0.05449323
0.03180928
0.02017015
0.01692822
0.01592964
0.01649241
0.01704098
0.01878539
0.02009343
0.02154071
0.02295137
0.02406647
0.02490500
0.02527732
0.02523963
0.02495474
0.02438380
0.02391137
0.02339485
0.02303982
0.02393889
0.02575859
0.02777693
0.02981512
0.03176755
0.03346502
0.03502281
0.03633359
0.03762475
0.03893586
0.04030795
0.04176628
0.04322773
0.04470772
0.04622717
0.04780322
0.04946602
0.05097711
0.05219319
0.05346582
0.05483612
0.05614847
0.05738731
0.05852639
0.05963966
0.06074835
0.06167132
0.06258650
0.06315794
0.06381794
0.06445842
0.06515282
0.06595239
0.06672931
0.06721696
0.06773428
0.06842529
0.06904291
0.06962791
0.07016316
0.07059555
0.07080560
0.07094273
0.07125390
0.07134968
0.07171471
0.07171324
0.07166469
0.07158385
0.07137640
0.07128993
0.07106293
0.07101996
0.07062376
0.07027083
0.07035296
0.07033593
0.07024269
0.07039345
0.07064949
0.07095069
0.07132618
0.07130468
0.07152149
0.07164534
0.07195504
0.07239776
0.07284126
0.07351159
0.07430415
0.07574221
0.07813776
0.08105350
0.08380424
0.08706356
0.08957825
0.09063034
0.09277520
0.09665222
0.10106808
0.10605277
0.11099630
0.11613327
0.12018207
0.12153561
0.12771915
0.13193991
0.13377973
0.12781273
0.12792891
0.10206488
0.10188139
0.09262556
0.06274016
0.08874030
0.12444514
0.14650910
0.14313843
0.15878722
0.15001273
0.06113289
0.03381050
0.02348700
0.01882926
0.01728491
0.01800359
0.01838438
0.02001609
0.02138406
0.02274829
0.02390272
0.02501292
0.02569541
0.02585174
0.02582721
0.02550642
0.02497101
0.02458101
0.02425688
0.02412045
0.02516810
0.02702987
0.02906974
0.03106072
0.03294678
0.03454573
0.03601855
0.03728377
0.03856857
0.03992241
0.04137592
0.04287727
0.04437684
0.04589802
0.04747847
0.04911128
0.05083690
0.05239951
0.05365872
0.05498341
0.05638054
0.05768761
0.05893408
0.06011073
0.06126837
0.06235992
0.06332781
0.06425798
0.06490057
0.06555237
0.06611093
0.06680925
0.06764522
0.06846520
0.06892452
0.06948078
0.07014676
0.07077645
0.07139179
0.07190338
0.07234020
0.07255994
0.07272894
0.07301592
0.07312625
0.07351134
0.07351687
0.07351557
0.07341912
0.07319051
0.07310468
0.07283318
0.07282506
0.07247749
0.07211062
0.07220225
0.07220568
0.07208640
0.07223112
0.07254179
0.07284571
0.07324220
0.07323236
0.07347271
0.07360876
0.07391974
0.07442267
0.07492409
0.07571352
0.07656499
0.07800772
0.08042659
0.08327446
0.08597943
0.08908240
0.09139119
0.09249884
0.09505698
0.09906305
0.10380683
0.10958848
0.11472950
0.12071549
0.12493880
0.12854260
0.13366469
0.13839853
0.13979137
0.14129627
0.14190087
0.12654659
0.12512112
0.11585905
0.09007682
0.11632671
0.15138884
0.16359688
0.16039209
0.17410044
0.16457517
0.06760831
0.03641561
0.02587506
0.02025999
0.01848291
0.01907217
0.01964275
0.02110532
0.02243970
0.02374082
0.02470444
0.02570404
0.02624031
0.02636588
0.02628309
0.02595486
0.02546312
0.02515421
0.02501438
0.02507698
0.02624135
0.02811858
0.03016025
0.03209900
0.03389684
0.03542485
0.03683451
0.03808245
0.03939569
0.04081082
0.04234337
0.04389181
0.04546131
0.04704687
0.04868541
0.05038271
0.05215470
0.05376166
0.05507747
0.05645575
0.05786890
0.05916379
0.06041638
0.06164260
0.06283056
0.06390320
0.06493336
0.06584933
0.06653926
0.06720172
0.06769014
0.06839368
0.06926070
0.07011260
0.07056482
0.07112930
0.07175925
0.07237639
0.07301203
0.07348080
0.07394857
0.07415508
0.07437693
0.07464005
0.07477863
0.07513637
0.07514410
0.07519271
0.07506582
0.07484328
0.07474522
0.07441861
0.07442840
0.07412047
0.07375625
0.07383644
0.07386410
0.07374868
0.07388485
0.07420727
0.07449506
0.07490825
0.07493023
0.07515909
0.07529614
0.07564419
0.07618206
0.07673603
0.07762340
0.07851742
0.07992121
0.08233073
0.08508044
0.08771537
0.09070168
0.09282599
0.09401741
0.09696172
0.10112541
0.10612943
0.11207514
0.11785743
0.12360534
0.12935814
0.13401174
0.13998788
0.14187917
0.14596246
0.14913860
0.15434118
0.14838172
0.14731417
0.14218011
0.11231342
0.14764159
0.17653747
0.17405582
0.17478137
0.18899034
0.17760118
0.07551430
0.04051812
0.02747280
0.02133398
0.01956996
0.01996375
0.02068990
0.02211948
0.02332409
0.02455030
0.02537965
0.02613612
0.02668458
0.02680769
0.02665924
0.02632224
0.02587797
0.02564438
0.02567011
0.02591860
0.02717115
0.02904788
0.03108226
0.03296148
0.03466701
0.03615170
0.03752775
0.03878259
0.04015488
0.04163592
0.04324764
0.04485605
0.04651161
0.04818312
0.04988415
0.05165058
0.05345054
0.05508706
0.05648776
0.05791956
0.05933435
0.06061286
0.06188292
0.06314706
0.06434075
0.06540304
0.06649987
0.06740183
0.06811883
0.06879627
0.06924753
0.06994723
0.07084511
0.07171115
0.07215567
0.07271039
0.07330158
0.07387614
0.07454762
0.07496149
0.07545929
0.07565196
0.07593458
0.07617560
0.07635934
0.07665137
0.07665571
0.07671727
0.07659027
0.07637871
0.07624818
0.07587183
0.07588280
0.07560671
0.07528872
0.07532421
0.07535160
0.07528795
0.07541077
0.07570892
0.07596960
0.07638419
0.07644437
0.07664259
0.07677205
0.07718470
0.07776025
0.07833273
0.07930140
0.08022327
0.08155856
0.08393513
0.08653239
0.08911353
0.09200024
0.09396218
0.09526895
0.09855961
0.10280272
0.10795042
0.11393893
0.12012022
0.12631254
0.13208621
0.13842689
0.14367535
0.14739328
0.15167255
0.15456232
0.15948548
0.16447298
0.16571072
0.16418204
0.13932898
0.17563046
0.19658158
0.17983654
0.18591121
0.20282062
0.19013135
0.08543890
0.04362317
0.02910212
0.02248194
0.02065966
0.02096784
0.02167368
0.02304929
0.02408223
0.02522125
0.02589740
0.02657393
0.02704343
0.02717895
0.02696594
0.02661280
0.02621539
0.02607089
0.02624738
0.02665168
0.02797751
0.02985056
0.03185953
0.03366987
0.03530580
0.03677981
0.03814440
0.03943240
0.04087059
0.04242662
0.04411108
0.04579970
0.04755478
0.04932633
0.05109759
0.05293053
0.05475004
0.05641135
0.05791330
0.05939331
0.06080276
0.06206810
0.06336495
0.06464502
0.06581300
0.06688333
0.06804554
0.06894594
0.06967636
0.07036787
0.07081670
0.07150866
0.07242571
0.07327501
0.07371355
0.07425178
0.07480589
0.07532548
0.07603568
0.07640573
0.07689526
0.07709742
0.07742194
0.07765770
0.07789171
0.07810228
0.07809065
0.07814071
0.07804194
0.07783935
0.07765158
0.07723541
0.07723322
0.07698900
0.07674135
0.07673448
0.07671284
0.07672541
0.07684312
0.07709083
0.07732518
0.07771733
0.07780750
0.07797140
0.07810242
0.07858712
0.07922327
0.07977237
0.08078787
0.08174697
0.08299529
0.08530794
0.08772040
0.09026009
0.09304736
0.09488472
0.09633751
0.09985046
0.10417503
0.10935436
0.11543469
0.12189741
0.12850905
0.13474311
0.14081700
0.14648523
0.15261234
0.15741374
0.15908281
0.16506123
0.17284665
0.17702209
0.17855957
0.16811881
0.19808537
0.20543661
0.18305693
0.19359656
0.21479973
0.20334821
0.09754374
0.04600639
0.02981825
0.02365859
0.02171434
0.02193338
0.02257391
0.02380581
0.02466804
0.02572141
0.02635141
0.02694615
0.02734484
0.02743360
0.02720797
0.02685348
0.02651333
0.02644827
0.02674531
0.02728207
0.02868589
0.03055014
0.03252126
0.03425820
0.03585140
0.03734743
0.03871731
0.04006362
0.04156425
0.04320214
0.04496136
0.04673231
0.04860114
0.05048630
0.05234085
0.05423917
0.05608167
0.05777076
0.05936353
0.06087736
0.06229619
0.06354864
0.06486417
0.06611845
0.06728246
0.06837838
0.06958954
0.07047979
0.07123562
0.07193948
0.07241508
0.07310227
0.07401267
0.07481706
0.07526971
0.07578004
0.07630759
0.07677186
0.07750060
0.07783257
0.07827838
0.07851816
0.07887512
0.07909440
0.07937744
0.07953826
0.07949595
0.07951347
0.07945125
0.07927863
0.07898822
0.07854442
0.07850649
0.07831943
0.07812855
0.07809805
0.07800712
0.07809035
0.07819325
0.07841258
0.07859154
0.07894602
0.07905061
0.07919749
0.07933881
0.07985669
0.08057429
0.08110727
0.08213812
0.08313270
0.08428565
0.08650577
0.08871492
0.09124146
0.09389601
0.09567158
0.09726476
0.10087513
0.10524894
0.11039818
0.11652255
0.12324200
0.12997570
0.13663894
0.14306045
0.14858324
0.15507891
0.16124923
0.16485919
0.16930795
0.17481874
0.18090164
0.18799744
0.18842487
0.20133957
0.20442330
0.18524975
0.19773482
0.22397279
0.21693636
0.11173518
0.04817520
0.03101998
0.02476147
0.02280147
0.02292073
0.02339158
0.02446126
0.02522981
0.02611224
0.02671043
0.02727617
0.02758938
0.02760810
0.02740711
0.02702461
0.02676622
0.02677812
0.02717146
0.02782915
0.02930625
0.03116252
0.03309148
0.03476539
0.03633895
0.03786366
0.03925657
0.04067353
0.04225169
0.04397841
0.04582110
0.04766319
0.04965969
0.05166483
0.05361811
0.05558368
0.05746034
0.05918093
0.06084926
0.06238365
0.06383167
0.06506606
0.06636635
0.06758801
0.06877196
0.06989999
0.07114792
0.07203223
0.07282329
0.07354724
0.07403470
0.07474421
0.07562347
0.07637650
0.07684780
0.07733840
0.07782552
0.07824211
0.07895860
0.07926651
0.07964662
0.07994993
0.08032675
0.08052375
0.08082890
0.08099158
0.08092075
0.08086990
0.08086029
0.08070410
0.08030680
0.07983126
0.07974342
0.07961756
0.07948517
0.07945291
0.07930291
0.07941945
0.07950750
0.07969813
0.07979527
0.08012261
0.08023190
0.08036382
0.08053063
0.08102723
0.08181166
0.08238428
0.08340704
0.08440405
0.08547157
0.08755373
0.08959873
0.09208111
0.09458350
0.09636164
0.09806704
0.10166676
0.10607863
0.11112725
0.11740599
0.12425363
0.13122657
0.13803794
0.14451570
0.15089601
0.15746086
0.16441678
0.16955929
0.17217836
0.17539139
0.18265615
0.19290493
0.20011604
0.20355260
0.19781514
0.18699996
0.19892363
0.23017936
0.23006264
0.12721753
0.05204362
0.03291575
0.02615286
0.02400062
0.02378051
0.02411723
0.02502916
0.02569610
0.02644424
0.02699498
0.02749690
0.02773951
0.02774630
0.02752379
0.02718411
0.02696598
0.02705782
0.02753268
0.02831558
0.02985041
0.03170177
0.03357944
0.03521308
0.03678885
0.03833300
0.03977625
0.04126753
0.04294246
0.04476803
0.04669550
0.04862778
0.05074435
0.05285846
0.05493471
0.05697856
0.05888417
0.06065216
0.06238010
0.06393277
0.06540384
0.06663509
0.06790545
0.06907794
0.07028034
0.07146413
0.07274132
0.07363978
0.07447095
0.07518809
0.07568320
0.07643451
0.07728596
0.07798844
0.07845597
0.07894720
0.07936854
0.07974000
0.08041429
0.08071295
0.08104917
0.08141996
0.08177728
0.08198239
0.08227213
0.08246632
0.08235923
0.08225220
0.08228241
0.08211929
0.08164341
0.08112234
0.08097310
0.08090758
0.08083894
0.08081935
0.08064816
0.08072929
0.08082977
0.08096151
0.08098148
0.08128232
0.08139288
0.08150387
0.08168160
0.08214361
0.08297076
0.08361852
0.08461474
0.08559472
0.08659941
0.08848763
0.09042166
0.09280927
0.09516415
0.09695573
0.09876496
0.10228385
0.10673369
0.11173896
0.11800686
0.12496944
0.13218406
0.13903046
0.14566550
0.15301217
0.15959932
0.16596681
0.17220737
0.17787351
0.17871515
0.18262309
0.19197235
0.20369010
0.20933242
0.19475389
0.18824365
0.19794945
0.23347492
0.24167377
0.14303170
0.05650861
0.03505826
0.02759732
0.02502863
0.02458446
0.02473852
0.02552231
0.02612115
0.02674923
0.02721057
0.02761526
0.02784671
0.02784951
0.02759823
0.02730684
0.02714251
0.02730049
0.02784623
0.02875108
0.03034062
0.03217468
0.03399523
0.03561016
0.03720550
0.03877943
0.04028838
0.04187248
0.04364463
0.04557223
0.04758631
0.04963612
0.05185737
0.05408128
0.05628994
0.05842996
0.06034891
0.06217992
0.06394705
0.06552865
0.06702885
0.06826758
0.06950415
0.07063565
0.07181769
0.07307709
0.07436861
0.07530773
0.07616719
0.07686725
0.07739774
0.07818141
0.07901092
0.07967446
0.08012697
0.08060130
0.08095339
0.08131911
0.08189537
0.08218045
0.08251432
0.08293012
0.08321221
0.08347408
0.08372982
0.08395934
0.08381341
0.08368633
0.08371119
0.08352761
0.08302425
0.08244411
0.08223895
0.08220424
0.08221179
0.08221475
0.08203343
0.08202945
0.08213542
0.08222146
0.08220746
0.08245355
0.08256100
0.08265167
0.08281229
0.08325338
0.08407128
0.08480249
0.08576664
0.08672149
0.08767329
0.08933257
0.09121069
0.09347266
0.09569992
0.09749424
0.09938504
0.10281645
0.10719334
0.11221095
0.11843170
0.12555661
0.13272980
0.13977890
0.14669852
0.15408494
0.16093436
0.16750599
0.17322923
0.18163859
0.18249880
0.18408055
0.19079743
0.20133830
0.20662275
0.19368101
0.18880359
0.19577831
0.23396950
0.25099665
0.15945990
0.06216823
0.03713009
0.02898724
0.02597875
0.02529254
0.02531387
0.02594108
0.02647417
0.02701888
0.02735998
0.02770540
0.02791680
0.02788015
0.02766694
0.02739121
0.02728456
0.02750760
0.02813114
0.02914311
0.03078522
0.03259087
0.03435305
0.03597403
0.03761051
0.03922488
0.04080825
0.04250150
0.04436809
0.04640086
0.04850472
0.05067835
0.05301534
0.05536278
0.05768347
0.05991630
0.06187253
0.06376765
0.06554538
0.06717929
0.06871904
0.06996036
0.07115553
0.07228262
0.07342148
0.07474091
0.07602933
0.07701368
0.07788846
0.07860234
0.07919185
0.07997874
0.08079165
0.08143692
0.08186954
0.08230988
0.08261686
0.08300460
0.08342501
0.08370246
0.08405460
0.08446153
0.08466181
0.08500815
0.08524546
0.08548436
0.08530526
0.08514243
0.08514123
0.08492952
0.08444429
0.08382242
0.08358663
0.08355150
0.08358039
0.08363431
0.08342927
0.08337177
0.08340429
0.08350487
0.08347602
0.08366838
0.08375006
0.08383911
0.08394131
0.08437402
0.08513851
0.08594516
0.08686122
0.08779776
0.08870509
0.09015860
0.09196200
0.09408571
0.09621890
0.09799950
0.09994737
0.10329848
0.10754037
0.11257343
0.11876794
0.12582178
0.13307144
0.14017736
0.14737263
0.15488456
0.16179686
0.16827562
0.17417421
0.18330385
0.18498663
0.18668153
0.18981970
0.20003157
0.20521420
0.19340075
0.18876945
0.19342247
0.23199105
0.25790743
0.17625830
0.06884090
0.03942297
0.03030743
0.02677515
0.02594831
0.02585256
0.02630144
0.02677680
0.02720385
0.02749592
0.02778884
0.02792476
0.02790689
0.02769902
0.02746329
0.02741606
0.02770227
0.02839815
0.02950288
0.03118093
0.03295308
0.03466450
0.03632469
0.03802381
0.03968977
0.04136338
0.04317357
0.04512627
0.04727625
0.04946758
0.05176003
0.05422943
0.05670650
0.05913112
0.06145023
0.06344077
0.06540377
0.06719026
0.06887375
0.07043789
0.07169955
0.07287612
0.07402420
0.07512357
0.07646136
0.07774859
0.07876564
0.07964036
0.08041534
0.08107184
0.08182350
0.08262816
0.08330087
0.08367413
0.08409410
0.08438762
0.08477704
0.08504924
0.08530854
0.08570170
0.08603788
0.08618911
0.08660019
0.08685947
0.08706162
0.08684190
0.08662055
0.08658711
0.08633156
0.08590574
0.08528220
0.08500929
0.08497796
0.08494883
0.08506164
0.08484848
0.08478210
0.08468576
0.08480414
0.08477768
0.08493099
0.08497236
0.08505805
0.08510675
0.08552481
0.08621656
0.08705845
0.08792582
0.08881631
0.08970200
0.09098693
0.09267471
0.09465800
0.09672487
0.09846691
0.10043642
0.10372990
0.10782294
0.11283048
0.11894773
0.12596899
0.13312797
0.14039575
0.14762575
0.15521803
0.16233408
0.16926028
0.17519491
0.18266046
0.18819441
0.19039086
0.18957597
0.20448478
0.20479768
0.19332358
0.18845636
0.19115397
0.22805395
0.26231007
0.19247653
0.07643032
0.04228100
0.03158941
0.02768592
0.02656689
0.02635931
0.02663358
0.02700302
0.02734160
0.02761816
0.02781949
0.02791256
0.02790810
0.02770941
0.02751740
0.02754249
0.02789383
0.02865047
0.02982859
0.03152274
0.03325922
0.03495521
0.03667458
0.03845295
0.04018590
0.04196668
0.04390313
0.04594063
0.04821375
0.05047903
0.05288715
0.05549394
0.05809548
0.06063236
0.06301936
0.06506698
0.06710086
0.06891836
0.07063227
0.07219655
0.07349955
0.07469815
0.07587147
0.07692469
0.07827093
0.07958644
0.08059332
0.08146865
0.08230083
0.08303585
0.08375911
0.08454933
0.08525320
0.08557280
0.08594363
0.08626492
0.08664101
0.08681345
0.08703952
0.08743742
0.08769302
0.08783970
0.08825995
0.08856730
0.08870248
0.08845523
0.08816404
0.08808706
0.08777928
0.08739675
0.08683576
0.08651262
0.08649405
0.08638640
0.08653263
0.08629480
0.08624769
0.08602800
0.08613184
0.08611823
0.08620884
0.08621776
0.08629299
0.08631801
0.08672099
0.08731357
0.08813574
0.08896078
0.08979687
0.09067760
0.09180621
0.09338680
0.09519402
0.09719882
0.09891994
0.10086337
0.10409799
0.10806268
0.11303112
0.11904411
0.12596586
0.13304587
0.14033259
0.14769926
0.15521923
0.16249565
0.16985559
0.17631741
0.18218597
0.19036315
0.19689220
0.19604896
0.19608977
0.20328629
0.19350017
0.18817735
0.18905935
0.22289332
0.26403293
0.20802854
0.08585940
0.04551980
0.03305104
0.02861711
0.02720708
0.02682202
0.02693273
0.02717315
0.02745997
0.02768272
0.02782389
0.02790136
0.02787114
0.02771860
0.02756703
0.02766120
0.02808691