/*--------------------------------*- C++ -*----------------------------------*\
  =========                 |
  \\      /  F ield         | OpenFOAM: The Open Source CFD Toolbox
   \\    /   O peration     | Website:  https://openfoam.org
    \\  /    A nd           | Version:  7
     \\/     M anipulation  |
\*---------------------------------------------------------------------------*/
FoamFile
{
    version     2.0;
    format      ascii;
    class       volSymmTensorField;
    location    "0";
    object      tauij_LES;
}
// * * * * * * * * * * * * * * * * * * * * * * * * * * * * * * * * * * * * * //

dimensions      [0 2 -2 0 0 0 0];

internalField   nonuniform List<symmTensor>
15600
(
(0.02172034 -0.00066546 0.00000000 0.00037193 0.00000000 0.01826889)
(-0.00422261 0.00045852 0.00000000 -0.00005564 0.00000000 -0.00259181)
(0.00133107 -0.00121740 0.00000000 0.00075434 0.00000000 0.00205927)
(0.00052100 -0.00018317 0.00000000 -0.00037468 0.00000000 0.00129157)
(0.00007371 -0.00023098 0.00000000 0.00052439 0.00000000 0.00144654)
(0.00002839 -0.00019213 0.00000000 0.00053804 0.00000000 0.00221765)
(0.00004160 -0.00001843 0.00000000 -0.00001394 0.00000000 0.00096124)
(0.00005143 -0.00009528 0.00000000 0.00023963 0.00000000 0.00190888)
(0.00001381 0.00003026 0.00000000 -0.00010365 0.00000000 0.00062522)
(0.00016086 -0.00019075 0.00000000 0.00024593 0.00000000 0.00179503)
(0.00013691 -0.00021061 0.00000000 0.00031942 0.00000000 0.00104638)
(0.00016742 -0.00025118 0.00000000 0.00039118 0.00000000 0.00220797)
(-0.00001712 0.00012992 0.00000000 -0.00031308 0.00000000 0.00024034)
(0.00013883 -0.00017863 0.00000000 0.00023378 0.00000000 0.00097988)
(0.00007479 -0.00006924 0.00000000 0.00004579 0.00000000 0.00153602)
(0.00018804 -0.00017144 0.00000000 0.00016459 0.00000000 0.00204122)
(0.00006273 -0.00004324 0.00000000 0.00002799 0.00000000 0.00148151)
(0.00012205 -0.00022045 0.00000000 0.00035985 0.00000000 0.00339708)
(0.00053270 -0.00036590 0.00000000 0.00026837 0.00000000 0.00324652)
(0.00089490 -0.00056129 0.00000000 0.00035174 0.00000000 0.00295515)
(0.00158207 -0.00030481 0.00000000 0.00008793 0.00000000 0.00333254)
(0.00145201 -0.00000618 0.00000000 0.00000128 0.00000000 0.00228411)
(0.00072655 -0.00000229 0.00000000 -0.00000550 0.00000000 0.00092423)
(0.00079145 -0.00000216 0.00000000 -0.00000560 0.00000000 0.00089593)
(0.00088617 -0.00000161 0.00000000 -0.00000484 0.00000000 0.00091809)
(0.00094781 -0.00000175 0.00000000 -0.00000722 0.00000000 0.00092365)
(0.00112227 -0.00000084 0.00000000 -0.00000515 0.00000000 0.00101383)
(0.00125612 -0.00000112 0.00000000 -0.00000790 0.00000000 0.00105405)
(0.00146802 0.00000002 0.00000000 -0.00000654 0.00000000 0.00115336)
(0.00166496 0.00000074 0.00000000 -0.00000797 0.00000000 0.00126074)
(0.00191091 0.00000193 0.00000000 -0.00000798 0.00000000 0.00139998)
(0.00216137 0.00000340 0.00000000 -0.00000947 0.00000000 0.00155262)
(0.00239056 0.00000473 0.00000000 -0.00001154 0.00000000 0.00172364)
(0.00262457 0.00000638 0.00000000 -0.00001262 0.00000000 0.00191429)
(0.00289125 0.00000884 0.00000000 -0.00001392 0.00000000 0.00213304)
(0.00310159 0.00001091 0.00000000 -0.00001595 0.00000000 0.00237072)
(0.00336704 0.00001375 0.00000000 -0.00001542 0.00000000 0.00264911)
(0.00354794 0.00001528 0.00000000 -0.00001951 0.00000000 0.00288579)
(0.00382666 0.00002109 0.00000000 -0.00000904 0.00000000 0.00325654)
(0.00387876 0.00001785 0.00000000 -0.00002451 0.00000000 0.00340228)
(0.00408051 0.00002246 0.00000000 -0.00001898 0.00000000 0.00368013)
(0.00417687 0.00002308 0.00000000 -0.00002318 0.00000000 0.00387650)
(0.00428240 0.00002464 0.00000000 -0.00002929 0.00000000 0.00411115)
(0.00442657 0.00002630 0.00000000 -0.00002208 0.00000000 0.00438549)
(0.00456618 0.00002761 0.00000000 -0.00002156 0.00000000 0.00463845)
(0.00471913 0.00002791 0.00000000 -0.00003015 0.00000000 0.00481413)
(0.00480793 0.00002699 0.00000000 -0.00003022 0.00000000 0.00494886)
(0.00494280 0.00002881 0.00000000 -0.00003060 0.00000000 0.00511696)
(0.00508243 0.00002785 0.00000000 -0.00003287 0.00000000 0.00525355)
(0.00508078 0.00003062 0.00000000 -0.00002152 0.00000000 0.00545675)
(0.00507923 0.00002745 0.00000000 -0.00002888 0.00000000 0.00553570)
(0.00507034 0.00002615 0.00000000 -0.00003984 0.00000000 0.00556920)
(0.00519488 0.00002707 0.00000000 -0.00003010 0.00000000 0.00570187)
(0.00527056 0.00002894 0.00000000 -0.00004117 0.00000000 0.00580499)
(0.00522788 0.00002761 0.00000000 -0.00003233 0.00000000 0.00593571)
(0.00527316 0.00002524 0.00000000 -0.00004371 0.00000000 0.00596333)
(0.00527029 0.00002515 0.00000000 -0.00003681 0.00000000 0.00600433)
(0.00529697 0.00002348 0.00000000 -0.00003244 0.00000000 0.00600540)
(0.00538559 0.00002297 0.00000000 -0.00003784 0.00000000 0.00602373)
(0.00543670 0.00002537 0.00000000 -0.00003242 0.00000000 0.00616196)
(0.00535866 0.00002285 0.00000000 -0.00003706 0.00000000 0.00625206)
(0.00532976 0.00002199 0.00000000 -0.00003995 0.00000000 0.00625340)
(0.00537863 0.00001956 0.00000000 -0.00003101 0.00000000 0.00633197)
(0.00542031 0.00001599 0.00000000 -0.00002045 0.00000000 0.00633724)
(0.00536710 0.00001684 0.00000000 -0.00003527 0.00000000 0.00617903)
(0.00529125 0.00001806 0.00000000 -0.00003865 0.00000000 0.00614207)
(0.00529656 0.00001580 0.00000000 -0.00002626 0.00000000 0.00621025)
(0.00519361 0.00001743 0.00000000 -0.00004497 0.00000000 0.00618312)
(0.00529025 0.00001160 0.00000000 -0.00001802 0.00000000 0.00632081)
(0.00515584 0.00001333 0.00000000 -0.00003192 0.00000000 0.00622602)
(0.00495237 0.00001074 0.00000000 -0.00003928 0.00000000 0.00605295)
(0.00501903 0.00000735 0.00000000 -0.00002926 0.00000000 0.00597858)
(0.00498987 0.00000763 0.00000000 -0.00003545 0.00000000 0.00583142)
(0.00498003 0.00000721 0.00000000 -0.00003170 0.00000000 0.00570203)
(0.00488840 0.00000666 0.00000000 -0.00003034 0.00000000 0.00557277)
(0.00472320 0.00000704 0.00000000 -0.00003064 0.00000000 0.00548986)
(0.00459725 0.00000819 0.00000000 -0.00004340 0.00000000 0.00536626)
(0.00457776 0.00000627 0.00000000 -0.00003084 0.00000000 0.00536817)
(0.00453044 0.00000166 0.00000000 -0.00002030 0.00000000 0.00536788)
(0.00448051 0.00000513 0.00000000 -0.00003543 0.00000000 0.00521537)
(0.00452261 0.00000073 0.00000000 -0.00001812 0.00000000 0.00524602)
(0.00436192 0.00000440 0.00000000 -0.00003572 0.00000000 0.00501057)
(0.00437164 0.00000139 0.00000000 -0.00002521 0.00000000 0.00500783)
(0.00426949 0.00000167 0.00000000 -0.00002590 0.00000000 0.00492672)
(0.00423238 0.00000321 0.00000000 -0.00002918 0.00000000 0.00484877)
(0.00420000 0.00000342 0.00000000 -0.00002876 0.00000000 0.00479933)
(0.00409741 0.00000241 0.00000000 -0.00002729 0.00000000 0.00475140)
(0.00409285 0.00000330 0.00000000 -0.00002893 0.00000000 0.00474808)
(0.00401982 0.00000461 0.00000000 -0.00003015 0.00000000 0.00472738)
(0.00395176 0.00000551 0.00000000 -0.00002803 0.00000000 0.00475887)
(0.00394822 0.00000336 0.00000000 -0.00002458 0.00000000 0.00476522)
(0.00397612 0.00000274 0.00000000 -0.00001570 0.00000000 0.00486134)
(0.00392136 0.00000794 0.00000000 -0.00003099 0.00000000 0.00484969)
(0.00398523 0.00000916 0.00000000 -0.00003039 0.00000000 0.00497002)
(0.00417593 0.00001032 0.00000000 -0.00002751 0.00000000 0.00520262)
(0.00444736 0.00001371 0.00000000 -0.00003290 0.00000000 0.00545707)
(0.00504703 0.00001839 0.00000000 -0.00003376 0.00000000 0.00583487)
(0.00603364 0.00002504 0.00000000 -0.00004476 0.00000000 0.00652895)
(0.00703981 0.00030518 0.00000000 0.00001466 0.00000000 0.01428990)
(0.00139009 0.00036554 0.00000000 0.00013298 0.00000000 0.00669934)
(-0.00009215 -0.00006060 0.00000000 -0.00004232 0.00000000 -0.00022602)
(0.00000509 -0.00000299 0.00000000 -0.00001416 0.00000000 0.00008116)
(-0.00026065 -0.00037462 0.00000000 -0.00053673 0.00000000 -0.00253869)
(-0.00007945 -0.00004517 0.00000000 -0.00001747 0.00000000 -0.00126344)
(0.00000553 0.00000920 0.00000000 0.00001390 0.00000000 0.00001731)
(-0.00011237 -0.00010429 0.00000000 -0.00010059 0.00000000 -0.00136467)
(0.00000240 -0.00004176 0.00000000 -0.00014060 0.00000000 -0.00054728)
(0.00010029 0.00013608 0.00000000 0.00020240 0.00000000 -0.00062088)
(-0.00004947 -0.00014384 0.00000000 -0.00033978 0.00000000 -0.00306708)
(-0.00015803 -0.00034845 0.00000000 -0.00068006 0.00000000 -0.00208829)
(-0.00001740 -0.00002482 0.00000000 -0.00003350 0.00000000 0.00066396)
(0.00012431 0.00015579 0.00000000 0.00023191 0.00000000 -0.00107651)
(0.00016368 0.00019015 0.00000000 0.00014406 0.00000000 -0.00255910)
(0.00004917 0.00009920 0.00000000 0.00020311 0.00000000 -0.00232207)
(-0.00003240 -0.00002867 0.00000000 -0.00000039 0.00000000 -0.00394651)
(-0.00017534 -0.00024688 0.00000000 -0.00040052 0.00000000 -0.00605444)
(-0.00047830 -0.00031821 0.00000000 -0.00005752 0.00000000 -0.00673445)
(0.00047904 0.00002982 0.00000000 -0.00009589 0.00000000 -0.00023276)
(-0.00302164 0.00008677 0.00000000 0.00004168 0.00000000 -0.00110204)
(0.00638376 -0.00018855 0.00000000 0.00022683 0.00000000 0.01369661)
(0.02979382 -0.00111765 0.00000000 0.00087016 0.00000000 0.02462284)
(-0.00001549 -0.00003977 0.00000000 0.00002337 0.00000000 0.00006619)
(0.00217789 -0.00187207 0.00000000 0.00143693 0.00000000 0.00351372)
(0.00102955 -0.00059742 0.00000000 -0.00007973 0.00000000 0.00296941)
(0.00024507 -0.00055020 0.00000000 0.00111596 0.00000000 0.00239942)
(0.00014645 -0.00038933 0.00000000 0.00089275 0.00000000 0.00273539)
(0.00007559 -0.00012622 0.00000000 0.00023610 0.00000000 0.00161145)
(0.00003531 -0.00016996 0.00000000 0.00059376 0.00000000 0.00275085)
(0.00013819 -0.00018271 0.00000000 0.00026731 0.00000000 0.00171945)
(0.00024820 -0.00037368 0.00000000 0.00062817 0.00000000 0.00325769)
(0.00035190 -0.00049044 0.00000000 0.00068915 0.00000000 0.00211489)
(0.00058359 -0.00077767 0.00000000 0.00109438 0.00000000 0.00399039)
(0.00022357 -0.00023575 0.00000000 0.00026146 0.00000000 0.00213798)
(0.00043412 -0.00052886 0.00000000 0.00068020 0.00000000 0.00278727)
(0.00055431 -0.00075725 0.00000000 0.00105348 0.00000000 0.00442607)
(0.00068703 -0.00080626 0.00000000 0.00103308 0.00000000 0.00616906)
(0.00046949 -0.00061703 0.00000000 0.00084850 0.00000000 0.00547925)
(0.00099025 -0.00109188 0.00000000 0.00130704 0.00000000 0.00800283)
(0.00170363 -0.00131000 0.00000000 0.00116156 0.00000000 0.01053025)
(0.00287105 -0.00167036 0.00000000 0.00113505 0.00000000 0.00989417)
(0.00359916 -0.00088849 0.00000000 0.00040865 0.00000000 0.00883852)
(0.00337459 -0.00003921 0.00000000 0.00009597 0.00000000 0.00608663)
(0.00273173 0.00001366 0.00000000 0.00003567 0.00000000 0.00357303)
(0.00309164 0.00000909 0.00000000 0.00003878 0.00000000 0.00348355)
(0.00343292 0.00000932 0.00000000 0.00003621 0.00000000 0.00343726)
(0.00391505 0.00001262 0.00000000 0.00003971 0.00000000 0.00356095)
(0.00455208 0.00001252 0.00000000 0.00004576 0.00000000 0.00380396)
(0.00522814 0.00001499 0.00000000 0.00004650 0.00000000 0.00399657)
(0.00602448 0.00002265 0.00000000 0.00005557 0.00000000 0.00431877)
(0.00680808 0.00003115 0.00000000 0.00006197 0.00000000 0.00470239)
(0.00754386 0.00003347 0.00000000 0.00006559 0.00000000 0.00512916)
(0.00838793 0.00004414 0.00000000 0.00007386 0.00000000 0.00565766)
(0.00914559 0.00005765 0.00000000 0.00008133 0.00000000 0.00626116)
(0.00988726 0.00006642 0.00000000 0.00009136 0.00000000 0.00693295)
(0.01062695 0.00007970 0.00000000 0.00010244 0.00000000 0.00765126)
(0.01127720 0.00009445 0.00000000 0.00011732 0.00000000 0.00848554)
(0.01191940 0.00010090 0.00000000 0.00012631 0.00000000 0.00933637)
(0.01248451 0.00011244 0.00000000 0.00013910 0.00000000 0.01020859)
(0.01301741 0.00011926 0.00000000 0.00015946 0.00000000 0.01115423)
(0.01342330 0.00012255 0.00000000 0.00016147 0.00000000 0.01190832)
(0.01384202 0.00013549 0.00000000 0.00018361 0.00000000 0.01268388)
(0.01402698 0.00013419 0.00000000 0.00018428 0.00000000 0.01330500)
(0.01431565 0.00013663 0.00000000 0.00019358 0.00000000 0.01407517)
(0.01458219 0.00013122 0.00000000 0.00020324 0.00000000 0.01477577)
(0.01493767 0.00013254 0.00000000 0.00022031 0.00000000 0.01553544)
(0.01535561 0.00012576 0.00000000 0.00022697 0.00000000 0.01608823)
(0.01565481 0.00011788 0.00000000 0.00023267 0.00000000 0.01655033)
(0.01601074 0.00011925 0.00000000 0.00024133 0.00000000 0.01699395)
(0.01638349 0.00011124 0.00000000 0.00024892 0.00000000 0.01742324)
(0.01632623 0.00012225 0.00000000 0.00025359 0.00000000 0.01788983)
(0.01630277 0.00010552 0.00000000 0.00024874 0.00000000 0.01817512)
(0.01638085 0.00009523 0.00000000 0.00026449 0.00000000 0.01851270)
(0.01668845 0.00008990 0.00000000 0.00028948 0.00000000 0.01888295)
(0.01681274 0.00009695 0.00000000 0.00027088 0.00000000 0.01914323)
(0.01670187 0.00008473 0.00000000 0.00029867 0.00000000 0.01950161)
(0.01696564 0.00007332 0.00000000 0.00028078 0.00000000 0.01972353)
(0.01697195 0.00007013 0.00000000 0.00029100 0.00000000 0.01981736)
(0.01698626 0.00005821 0.00000000 0.00027949 0.00000000 0.01973267)
(0.01721446 0.00004393 0.00000000 0.00028070 0.00000000 0.01988405)
(0.01728128 0.00006172 0.00000000 0.00028207 0.00000000 0.02018062)
(0.01717596 0.00004023 0.00000000 0.00028828 0.00000000 0.02048580)
(0.01716724 0.00003503 0.00000000 0.00029384 0.00000000 0.02058049)
(0.01730009 0.00002377 0.00000000 0.00029697 0.00000000 0.02073023)
(0.01737511 0.00001185 0.00000000 0.00028634 0.00000000 0.02062716)
(0.01738859 0.00001193 0.00000000 0.00027057 0.00000000 0.02040033)
(0.01719963 0.00000861 0.00000000 0.00028265 0.00000000 0.02034879)
(0.01713402 0.00000100 0.00000000 0.00030573 0.00000000 0.02054473)
(0.01694125 -0.00000550 0.00000000 0.00028525 0.00000000 0.02059371)
(0.01699880 -0.00001892 0.00000000 0.00029865 0.00000000 0.02066797)
(0.01669617 -0.00001485 0.00000000 0.00028336 0.00000000 0.02043645)
(0.01630044 -0.00004097 0.00000000 0.00027039 0.00000000 0.02007892)
(0.01643196 -0.00005386 0.00000000 0.00027573 0.00000000 0.01975560)
(0.01647960 -0.00005705 0.00000000 0.00026208 0.00000000 0.01942248)
(0.01646898 -0.00004611 0.00000000 0.00025704 0.00000000 0.01906986)
(0.01615439 -0.00005031 0.00000000 0.00025485 0.00000000 0.01868212)
(0.01573291 -0.00005470 0.00000000 0.00024394 0.00000000 0.01839554)
(0.01558826 -0.00006217 0.00000000 0.00024744 0.00000000 0.01825455)
(0.01536685 -0.00005681 0.00000000 0.00022517 0.00000000 0.01810940)
(0.01520481 -0.00007329 0.00000000 0.00024067 0.00000000 0.01797483)
(0.01534252 -0.00008314 0.00000000 0.00023050 0.00000000 0.01783428)
(0.01531388 -0.00007457 0.00000000 0.00023859 0.00000000 0.01765133)
(0.01508154 -0.00007936 0.00000000 0.00021796 0.00000000 0.01723918)
(0.01497818 -0.00007948 0.00000000 0.00021883 0.00000000 0.01704107)
(0.01480093 -0.00008849 0.00000000 0.00021565 0.00000000 0.01688750)
(0.01468803 -0.00008099 0.00000000 0.00020792 0.00000000 0.01670169)
(0.01463323 -0.00007988 0.00000000 0.00021255 0.00000000 0.01663392)
(0.01431841 -0.00008094 0.00000000 0.00020285 0.00000000 0.01652067)
(0.01425792 -0.00007593 0.00000000 0.00020163 0.00000000 0.01659133)
(0.01402942 -0.00007085 0.00000000 0.00019995 0.00000000 0.01661425)
(0.01379387 -0.00006353 0.00000000 0.00021131 0.00000000 0.01671130)
(0.01378211 -0.00007660 0.00000000 0.00021411 0.00000000 0.01687036)
(0.01364684 -0.00006640 0.00000000 0.00020846 0.00000000 0.01695766)
(0.01366270 -0.00006822 0.00000000 0.00020275 0.00000000 0.01728955)
(0.01379991 -0.00006215 0.00000000 0.00019697 0.00000000 0.01780198)
(0.01429436 -0.00007011 0.00000000 0.00022411 0.00000000 0.01863187)
(0.01505160 -0.00008218 0.00000000 0.00022183 0.00000000 0.01966394)
(0.01668347 -0.00009967 0.00000000 0.00023557 0.00000000 0.02116769)
(0.01898092 -0.00008313 0.00000000 0.00027447 0.00000000 0.02410483)
(0.01771612 0.00145254 0.00000000 0.00059607 0.00000000 0.03605696)
(0.01013793 0.00366695 0.00000000 0.00165637 0.00000000 0.02772429)
(0.00257539 0.00161998 0.00000000 0.00100744 0.00000000 0.00841506)
(0.00068653 0.00053156 0.00000000 0.00040005 0.00000000 0.00660103)
(-0.00026713 -0.00056472 0.00000000 -0.00100337 0.00000000 -0.00041968)
(-0.00009530 -0.00023178 0.00000000 -0.00046973 0.00000000 -0.00182775)
(-0.00006446 -0.00004101 0.00000000 0.00001621 0.00000000 0.00013209)
(-0.00020446 -0.00054801 0.00000000 -0.00119346 0.00000000 -0.00273361)
(0.00000552 -0.00013662 0.00000000 -0.00038639 0.00000000 -0.00027962)
(-0.00006540 0.00000142 0.00000000 0.00012626 0.00000000 -0.00080147)
(0.00004920 -0.00012886 0.00000000 -0.00048349 0.00000000 -0.00134675)
(-0.00027434 -0.00061760 0.00000000 -0.00120266 0.00000000 0.00036966)
(-0.00002749 -0.00002118 0.00000000 0.00003425 0.00000000 0.00300823)
(-0.00012133 -0.00010512 0.00000000 -0.00005741 0.00000000 -0.00230069)
(0.00010460 0.00006800 0.00000000 -0.00013066 0.00000000 -0.00427792)
(-0.00016470 -0.00018864 0.00000000 -0.00020971 0.00000000 -0.00430633)
(-0.00027610 -0.00044399 0.00000000 -0.00071674 0.00000000 -0.01109769)
(-0.00016822 -0.00026711 0.00000000 -0.00045165 0.00000000 -0.00546289)
(-0.00054990 -0.00039360 0.00000000 -0.00015213 0.00000000 -0.00602859)
(-0.00163357 -0.00136976 0.00000000 -0.00105454 0.00000000 -0.00725804)
(-0.00030357 -0.00001141 0.00000000 -0.00000479 0.00000000 -0.00011919)
(0.01124954 -0.00023460 0.00000000 0.00042920 0.00000000 0.01869191)
(0.03929332 -0.00179225 0.00000000 0.00170477 0.00000000 0.03177769)
(0.00795294 -0.00102849 0.00000000 0.00019212 0.00000000 0.00489797)
(0.00381125 -0.00316261 0.00000000 0.00280850 0.00000000 0.00637960)
(0.00195770 -0.00156859 0.00000000 0.00101874 0.00000000 0.00557735)
(0.00083975 -0.00135765 0.00000000 0.00223772 0.00000000 0.00369018)
(0.00035415 -0.00070107 0.00000000 0.00140705 0.00000000 0.00369916)
(0.00011992 -0.00029654 0.00000000 0.00065755 0.00000000 0.00263052)
(0.00005960 -0.00033671 0.00000000 0.00122296 0.00000000 0.00345859)
(0.00028319 -0.00045809 0.00000000 0.00078241 0.00000000 0.00309095)
(0.00039209 -0.00068130 0.00000000 0.00130978 0.00000000 0.00488790)
(0.00065579 -0.00088277 0.00000000 0.00123930 0.00000000 0.00359473)
(0.00102756 -0.00136137 0.00000000 0.00192751 0.00000000 0.00621904)
(0.00062630 -0.00088581 0.00000000 0.00131868 0.00000000 0.00488066)
(0.00102522 -0.00130666 0.00000000 0.00177406 0.00000000 0.00615180)
(0.00144355 -0.00183594 0.00000000 0.00248445 0.00000000 0.00813945)
(0.00169829 -0.00196504 0.00000000 0.00252938 0.00000000 0.01091928)
(0.00175416 -0.00199133 0.00000000 0.00248915 0.00000000 0.01050119)
(0.00240372 -0.00227076 0.00000000 0.00255813 0.00000000 0.01440499)
(0.00313665 -0.00226126 0.00000000 0.00214394 0.00000000 0.01690884)
(0.00426060 -0.00214531 0.00000000 0.00161698 0.00000000 0.01570442)
(0.00519145 -0.00121619 0.00000000 0.00081730 0.00000000 0.01383773)
(0.00533564 -0.00006553 0.00000000 0.00032751 0.00000000 0.01023765)
(0.00557212 0.00007385 0.00000000 0.00020718 0.00000000 0.00732710)
(0.00639338 0.00005060 0.00000000 0.00020630 0.00000000 0.00700742)
(0.00741212 0.00005258 0.00000000 0.00021854 0.00000000 0.00699202)
(0.00855270 0.00005845 0.00000000 0.00023173 0.00000000 0.00717158)
(0.00985414 0.00005153 0.00000000 0.00024445 0.00000000 0.00755228)
(0.01141018 0.00006084 0.00000000 0.00026326 0.00000000 0.00796503)
(0.01297257 0.00007963 0.00000000 0.00028592 0.00000000 0.00853730)
(0.01451492 0.00010539 0.00000000 0.00032081 0.00000000 0.00924392)
(0.01596459 0.00011109 0.00000000 0.00036452 0.00000000 0.01009815)
(0.01741698 0.00013793 0.00000000 0.00040399 0.00000000 0.01108708)
(0.01865753 0.00017401 0.00000000 0.00044575 0.00000000 0.01221251)
(0.01972413 0.00018961 0.00000000 0.00049809 0.00000000 0.01340452)
(0.02078273 0.00021922 0.00000000 0.00055050 0.00000000 0.01471914)
(0.02159160 0.00024551 0.00000000 0.00061255 0.00000000 0.01613313)
(0.02242542 0.00025183 0.00000000 0.00067061 0.00000000 0.01761584)
(0.02305427 0.00026595 0.00000000 0.00072387 0.00000000 0.01907584)
(0.02375503 0.00026586 0.00000000 0.00077850 0.00000000 0.02063880)
(0.02428378 0.00027169 0.00000000 0.00083666 0.00000000 0.02191594)
(0.02471945 0.00028828 0.00000000 0.00088356 0.00000000 0.02313880)
(0.02491760 0.00028018 0.00000000 0.00094019 0.00000000 0.02425479)
(0.02527034 0.00027091 0.00000000 0.00099075 0.00000000 0.02551015)
(0.02556612 0.00024784 0.00000000 0.00104686 0.00000000 0.02660998)
(0.02589036 0.00023319 0.00000000 0.00110542 0.00000000 0.02765433)
(0.02658609 0.00020882 0.00000000 0.00115315 0.00000000 0.02866701)
(0.02698123 0.00017673 0.00000000 0.00118804 0.00000000 0.02936245)
(0.02757218 0.00017414 0.00000000 0.00122698 0.00000000 0.03010454)
(0.02811345 0.00015692 0.00000000 0.00126135 0.00000000 0.03083870)
(0.02800060 0.00017635 0.00000000 0.00128132 0.00000000 0.03146320)
(0.02781457 0.00013412 0.00000000 0.00131003 0.00000000 0.03187618)
(0.02790747 0.00009543 0.00000000 0.00132436 0.00000000 0.03248276)
(0.02834419 0.00007573 0.00000000 0.00134450 0.00000000 0.03307959)
(0.02837615 0.00008284 0.00000000 0.00139216 0.00000000 0.03344914)
(0.02832824 0.00005629 0.00000000 0.00139562 0.00000000 0.03402149)
(0.02884735 0.00002316 0.00000000 0.00140328 0.00000000 0.03447001)
(0.02892781 0.00001776 0.00000000 0.00139695 0.00000000 0.03464317)
(0.02898148 -0.00001230 0.00000000 0.00140374 0.00000000 0.03463253)
(0.02925354 -0.00006085 0.00000000 0.00142535 0.00000000 0.03498304)
(0.02934147 -0.00001536 0.00000000 0.00144274 0.00000000 0.03542019)
(0.02930777 -0.00007424 0.00000000 0.00145119 0.00000000 0.03579012)
(0.02943815 -0.00007922 0.00000000 0.00144830 0.00000000 0.03604403)
(0.02974591 -0.00010679 0.00000000 0.00143917 0.00000000 0.03632627)
(0.02995477 -0.00013591 0.00000000 0.00143507 0.00000000 0.03620815)
(0.02992610 -0.00014553 0.00000000 0.00144001 0.00000000 0.03584082)
(0.02975761 -0.00014524 0.00000000 0.00142920 0.00000000 0.03587901)
(0.02945204 -0.00015265 0.00000000 0.00140814 0.00000000 0.03606542)
(0.02921184 -0.00018370 0.00000000 0.00143439 0.00000000 0.03619344)
(0.02927002 -0.00021067 0.00000000 0.00143061 0.00000000 0.03625622)
(0.02891679 -0.00020081 0.00000000 0.00143103 0.00000000 0.03582543)
(0.02863288 -0.00026769 0.00000000 0.00139053 0.00000000 0.03547586)
(0.02882795 -0.00029576 0.00000000 0.00136783 0.00000000 0.03496723)
(0.02906739 -0.00030455 0.00000000 0.00134241 0.00000000 0.03454724)
(0.02912278 -0.00026325 0.00000000 0.00131537 0.00000000 0.03410706)
(0.02864665 -0.00026657 0.00000000 0.00127830 0.00000000 0.03358535)
(0.02813294 -0.00029157 0.00000000 0.00126025 0.00000000 0.03306871)
(0.02787325 -0.00029817 0.00000000 0.00125243 0.00000000 0.03268712)
(0.02756525 -0.00030106 0.00000000 0.00123050 0.00000000 0.03260234)
(0.02744566 -0.00033387 0.00000000 0.00122328 0.00000000 0.03229699)
(0.02781922 -0.00036677 0.00000000 0.00118634 0.00000000 0.03223732)
(0.02789639 -0.00031828 0.00000000 0.00116864 0.00000000 0.03190416)
(0.02760301 -0.00034557 0.00000000 0.00115002 0.00000000 0.03134003)
(0.02756899 -0.00033637 0.00000000 0.00112929 0.00000000 0.03107608)
(0.02740791 -0.00036357 0.00000000 0.00109965 0.00000000 0.03087895)
(0.02729253 -0.00034948 0.00000000 0.00109337 0.00000000 0.03073739)
(0.02729890 -0.00033505 0.00000000 0.00106649 0.00000000 0.03078990)
(0.02688558 -0.00033617 0.00000000 0.00104719 0.00000000 0.03074775)
(0.02664571 -0.00032304 0.00000000 0.00105528 0.00000000 0.03094787)
(0.02627800 -0.00031388 0.00000000 0.00104945 0.00000000 0.03116660)
(0.02584847 -0.00028403 0.00000000 0.00104458 0.00000000 0.03132430)
(0.02559263 -0.00031929 0.00000000 0.00103859 0.00000000 0.03153164)
(0.02529831 -0.00030371 0.00000000 0.00103378 0.00000000 0.03175676)
(0.02536684 -0.00033169 0.00000000 0.00105149 0.00000000 0.03249937)
(0.02554127 -0.00033967 0.00000000 0.00107902 0.00000000 0.03367879)
(0.02615144 -0.00036443 0.00000000 0.00110275 0.00000000 0.03518277)
(0.02731237 -0.00044203 0.00000000 0.00114195 0.00000000 0.03748324)
(0.02949901 -0.00054804 0.00000000 0.00122159 0.00000000 0.04069807)
(0.03166840 -0.00046853 0.00000000 0.00135119 0.00000000 0.04637424)
(0.02760928 0.00259608 0.00000000 0.00176897 0.00000000 0.05771649)
(0.01981124 0.00757865 0.00000000 0.00407500 0.00000000 0.05125403)
(0.01161770 0.00796704 0.00000000 0.00600799 0.00000000 0.03742894)
(0.00336915 0.00353483 0.00000000 0.00423113 0.00000000 0.02539104)
(0.00074781 0.00107593 0.00000000 0.00170433 0.00000000 0.01329382)
(0.00048912 0.00002572 0.00000000 -0.00060216 0.00000000 0.00388342)
(0.00064350 0.00079788 0.00000000 0.00104702 0.00000000 0.00761007)
(0.00005708 -0.00053643 0.00000000 -0.00147030 0.00000000 0.00362105)
(-0.00006621 -0.00028181 0.00000000 -0.00053690 0.00000000 0.00198894)
(-0.00015391 -0.00012515 0.00000000 -0.00008118 0.00000000 -0.00169465)
(0.00028941 -0.00009563 0.00000000 -0.00076543 0.00000000 0.00670569)
(-0.00010829 -0.00029824 0.00000000 -0.00056265 0.00000000 0.00645343)
(-0.00009842 -0.00005319 0.00000000 0.00017983 0.00000000 0.00536648)
(-0.00029618 -0.00032680 0.00000000 -0.00035487 0.00000000 -0.00431339)
(-0.00006334 -0.00019340 0.00000000 -0.00057535 0.00000000 -0.00586158)
(-0.00049700 -0.00068825 0.00000000 -0.00100350 0.00000000 -0.01074548)
(-0.00038829 -0.00068694 0.00000000 -0.00122680 0.00000000 -0.01000352)
(-0.00018402 -0.00033612 0.00000000 -0.00059218 0.00000000 -0.00500355)
(-0.00050986 -0.00039112 0.00000000 -0.00021889 0.00000000 -0.00366095)
(-0.00124741 -0.00095413 0.00000000 -0.00071567 0.00000000 -0.00672986)
(0.00513089 -0.00015675 0.00000000 -0.00007691 0.00000000 0.00194810)
(0.01864666 -0.00026796 0.00000000 0.00074968 0.00000000 0.02460696)
(0.05070395 -0.00275611 0.00000000 0.00298560 0.00000000 0.03970635)
(0.01971543 -0.00255667 0.00000000 0.00058400 0.00000000 0.01173852)
(0.00656486 -0.00529184 0.00000000 0.00507523 0.00000000 0.01113103)
(0.00337962 -0.00325345 0.00000000 0.00313660 0.00000000 0.00945526)
(0.00128593 -0.00190961 0.00000000 0.00297540 0.00000000 0.00509039)
(0.00068879 -0.00116988 0.00000000 0.00212215 0.00000000 0.00508755)
(0.00038358 -0.00073729 0.00000000 0.00142462 0.00000000 0.00393751)
(0.00015970 -0.00062492 0.00000000 0.00208368 0.00000000 0.00415076)
(0.00059531 -0.00094812 0.00000000 0.00157892 0.00000000 0.00470039)
(0.00067201 -0.00121547 0.00000000 0.00243818 0.00000000 0.00655575)
(0.00117072 -0.00162742 0.00000000 0.00238423 0.00000000 0.00622102)
(0.00163481 -0.00222007 0.00000000 0.00325456 0.00000000 0.00929671)
(0.00154370 -0.00213963 0.00000000 0.00315201 0.00000000 0.00803458)
(0.00211018 -0.00262214 0.00000000 0.00354692 0.00000000 0.01037873)
(0.00265078 -0.00319201 0.00000000 0.00426470 0.00000000 0.01323131)
(0.00314125 -0.00343431 0.00000000 0.00440725 0.00000000 0.01610094)
(0.00337462 -0.00347597 0.00000000 0.00417418 0.00000000 0.01690450)
(0.00384275 -0.00333003 0.00000000 0.00379166 0.00000000 0.02073048)
(0.00452724 -0.00289969 0.00000000 0.00293062 0.00000000 0.02158348)
(0.00551594 -0.00243143 0.00000000 0.00217737 0.00000000 0.02044084)
(0.00647176 -0.00126658 0.00000000 0.00125309 0.00000000 0.01758706)
(0.00707514 -0.00005283 0.00000000 0.00069834 0.00000000 0.01350253)
(0.00827083 0.00016912 0.00000000 0.00053461 0.00000000 0.01049209)
(0.00975621 0.00011867 0.00000000 0.00052765 0.00000000 0.00998352)
(0.01148642 0.00011114 0.00000000 0.00054966 0.00000000 0.00996532)
(0.01333999 0.00011299 0.00000000 0.00057712 0.00000000 0.01020679)
(0.01532798 0.00009377 0.00000000 0.00061577 0.00000000 0.01068717)
(0.01755630 0.00010815 0.00000000 0.00065823 0.00000000 0.01125433)
(0.01971276 0.00013110 0.00000000 0.00071662 0.00000000 0.01200046)
(0.02175192 0.00017572 0.00000000 0.00079743 0.00000000 0.01296147)
(0.02350484 0.00017693 0.00000000 0.00089393 0.00000000 0.01412978)
(0.02509695 0.00020722 0.00000000 0.00098953 0.00000000 0.01542320)
(0.02636368 0.00024895 0.00000000 0.00109151 0.00000000 0.01689313)
(0.02743752 0.00025985 0.00000000 0.00120275 0.00000000 0.01848098)
(0.02839698 0.00028368 0.00000000 0.00131933 0.00000000 0.02021066)
(0.02911791 0.00029663 0.00000000 0.00145777 0.00000000 0.02200944)
(0.02984324 0.00028412 0.00000000 0.00158571 0.00000000 0.02384999)
(0.03034564 0.00027756 0.00000000 0.00170362 0.00000000 0.02567162)
(0.03100978 0.00024283 0.00000000 0.00182344 0.00000000 0.02756376)
(0.03154013 0.00024751 0.00000000 0.00193759 0.00000000 0.02916115)
(0.03177827 0.00024061 0.00000000 0.00205997 0.00000000 0.03053750)
(0.03203763 0.00021585 0.00000000 0.00215737 0.00000000 0.03199425)
(0.03241503 0.00017951 0.00000000 0.00226208 0.00000000 0.03349719)
(0.03274529 0.00013517 0.00000000 0.00237166 0.00000000 0.03483615)
(0.03314214 0.00009962 0.00000000 0.00247899 0.00000000 0.03611204)
(0.03387470 0.00003708 0.00000000 0.00258729 0.00000000 0.03726962)
(0.03438856 -0.00001218 0.00000000 0.00265734 0.00000000 0.03818457)
(0.03504232 -0.00003524 0.00000000 0.00274043 0.00000000 0.03906674)
(0.03564623 -0.00005211 0.00000000 0.00280558 0.00000000 0.03992196)
(0.03557150 -0.00003102 0.00000000 0.00284800 0.00000000 0.04066845)
(0.03537913 -0.00007772 0.00000000 0.00289682 0.00000000 0.04131991)
(0.03535416 -0.00016370 0.00000000 0.00294394 0.00000000 0.04198418)
(0.03572226 -0.00020981 0.00000000 0.00300526 0.00000000 0.04258795)
(0.03604978 -0.00018780 0.00000000 0.00304913 0.00000000 0.04341990)
(0.03596089 -0.00023119 0.00000000 0.00308295 0.00000000 0.04393895)
(0.03648482 -0.00029684 0.00000000 0.00311489 0.00000000 0.04436762)
(0.03667497 -0.00029577 0.00000000 0.00309575 0.00000000 0.04470252)
(0.03678557 -0.00032725 0.00000000 0.00310482 0.00000000 0.04484881)
(0.03700941 -0.00041150 0.00000000 0.00315796 0.00000000 0.04521274)
(0.03722173 -0.00035050 0.00000000 0.00318515 0.00000000 0.04575161)
(0.03727721 -0.00043723 0.00000000 0.00320684 0.00000000 0.04616130)
(0.03753681 -0.00044123 0.00000000 0.00320382 0.00000000 0.04647186)
(0.03780127 -0.00048959 0.00000000 0.00320843 0.00000000 0.04667112)
(0.03814830 -0.00051478 0.00000000 0.00319674 0.00000000 0.04658052)