/*--------------------------------*- C++ -*----------------------------------*\
  =========                 |
  \\      /  F ield         | OpenFOAM: The Open Source CFD Toolbox
   \\    /   O peration     | Website:  https://openfoam.org
    \\  /    A nd           | Version:  7
     \\/     M anipulation  |
\*---------------------------------------------------------------------------*/
FoamFile
{
    version     2.0;
    format      ascii;
    class       volVectorField;
    location    "0";
    object      U_LES;
}
// * * * * * * * * * * * * * * * * * * * * * * * * * * * * * * * * * * * * * //

dimensions      [0 1 -1 0 0 0 0];

internalField   nonuniform List<vector>
15600
(
(-0.02774569 0.00137081 0.00000000)
(0.00482273 -0.00122204 0.00000000)
(-0.01006139 0.00872580 0.00000000)
(-0.00599396 0.00365914 0.00000000)
(-0.00338941 0.00609312 0.00000000)
(-0.00547914 0.01035689 0.00000000)
(-0.00378581 0.00555914 0.00000000)
(-0.00491672 0.01091187 0.00000000)
(-0.00375247 0.00500167 0.00000000)
(-0.00759786 0.01155385 0.00000000)
(-0.00489717 0.00773389 0.00000000)
(-0.00816915 0.01232594 0.00000000)
(-0.00448302 0.00286588 0.00000000)
(-0.00415752 0.00574371 0.00000000)
(-0.00524671 0.00626211 0.00000000)
(-0.00515767 0.00618374 0.00000000)
(-0.00232475 0.00281644 0.00000000)
(-0.00113505 0.00067066 0.00000000)
(0.00519047 -0.00373959 0.00000000)
(0.01249950 -0.00787023 0.00000000)
(0.02231892 -0.00416031 0.00000000)
(0.02079042 0.00003848 0.00000000)
(0.00820607 0.00008143 0.00000000)
(0.00529892 0.00005504 0.00000000)
(0.00260854 0.00005208 0.00000000)
(0.00010822 0.00004545 0.00000000)
(-0.00297204 0.00005819 0.00000000)
(-0.00593076 0.00005632 0.00000000)
(-0.00955728 0.00007063 0.00000000)
(-0.01356652 0.00008007 0.00000000)
(-0.01783166 0.00008788 0.00000000)
(-0.02241011 0.00009205 0.00000000)
(-0.02732185 0.00008984 0.00000000)
(-0.03205330 0.00008659 0.00000000)
(-0.03670495 0.00008613 0.00000000)
(-0.04111218 0.00007534 0.00000000)
(-0.04494730 0.00007580 0.00000000)
(-0.04854691 0.00006174 0.00000000)
(-0.05114041 0.00006446 0.00000000)
(-0.05404655 0.00003806 0.00000000)
(-0.05575899 0.00003709 0.00000000)
(-0.05745066 0.00003309 0.00000000)
(-0.05900892 0.00002104 0.00000000)
(-0.05931638 0.00001323 0.00000000)
(-0.05964610 0.00001033 0.00000000)
(-0.06008549 0.00000391 0.00000000)
(-0.05992158 -0.00000387 0.00000000)
(-0.05943088 -0.00000491 0.00000000)
(-0.05893786 -0.00000542 0.00000000)
(-0.05787894 -0.00001556 0.00000000)
(-0.05733669 -0.00001422 0.00000000)
(-0.05707524 -0.00000956 0.00000000)
(-0.05599871 -0.00001161 0.00000000)
(-0.05548585 -0.00001653 0.00000000)
(-0.05400070 -0.00002784 0.00000000)
(-0.05284402 -0.00002625 0.00000000)
(-0.05118457 -0.00002672 0.00000000)
(-0.04954030 -0.00002472 0.00000000)
(-0.04858567 -0.00001986 0.00000000)
(-0.04687455 -0.00003888 0.00000000)
(-0.04502948 -0.00004054 0.00000000)
(-0.04346680 -0.00002997 0.00000000)
(-0.04121864 -0.00004174 0.00000000)
(-0.03886240 -0.00004275 0.00000000)
(-0.03776735 -0.00002487 0.00000000)
(-0.03667407 -0.00002369 0.00000000)
(-0.03492856 -0.00003879 0.00000000)
(-0.03359553 -0.00003140 0.00000000)
(-0.03073516 -0.00005144 0.00000000)
(-0.02883167 -0.00004716 0.00000000)
(-0.02678130 -0.00003581 0.00000000)
(-0.02469117 -0.00003643 0.00000000)
(-0.02297613 -0.00003141 0.00000000)
(-0.02146088 -0.00002291 0.00000000)
(-0.02002069 -0.00003148 0.00000000)
(-0.01822971 -0.00003175 0.00000000)
(-0.01712310 -0.00001847 0.00000000)
(-0.01539512 -0.00002820 0.00000000)
(-0.01386422 -0.00003072 0.00000000)
(-0.01287184 -0.00002192 0.00000000)
(-0.01147752 -0.00002472 0.00000000)
(-0.01060344 -0.00002087 0.00000000)
(-0.00953079 -0.00001466 0.00000000)
(-0.00890683 -0.00000970 0.00000000)
(-0.00867515 -0.00000914 0.00000000)
(-0.00818536 -0.00001070 0.00000000)
(-0.00795629 -0.00000385 0.00000000)
(-0.00781898 -0.00001117 0.00000000)
(-0.00776710 0.00000107 0.00000000)
(-0.00792799 -0.00000350 0.00000000)
(-0.00816844 0.00000928 0.00000000)
(-0.00905265 0.00003165 0.00000000)
(-0.01100024 0.00003124 0.00000000)
(-0.01317958 0.00003718 0.00000000)
(-0.01614487 0.00007469 0.00000000)
(-0.02003251 0.00009019 0.00000000)
(-0.02573963 0.00013982 0.00000000)
(-0.03331093 0.00011456 0.00000000)
(-0.04636623 -0.00222905 0.00000000)
(-0.01809506 -0.00671415 0.00000000)
(0.00011775 0.00008631 0.00000000)
(-0.00002914 -0.00004534 0.00000000)
(0.00218084 0.00283570 0.00000000)
(0.00160533 0.00156280 0.00000000)
(0.00001325 0.00000142 0.00000000)
(0.00050903 0.00079447 0.00000000)
(-0.00010536 0.00014611 0.00000000)
(-0.00016211 0.00026163 0.00000000)
(-0.00092249 -0.00102264 0.00000000)
(-0.00060787 -0.00165193 0.00000000)
(0.00034802 0.00046587 0.00000000)
(-0.00092002 -0.00080741 0.00000000)
(-0.00023723 -0.00208718 0.00000000)
(-0.00345620 -0.00306445 0.00000000)
(-0.00616425 -0.00721784 0.00000000)
(-0.00937531 -0.01476713 0.00000000)
(-0.02751108 -0.02374788 0.00000000)
(0.00534332 0.00067806 0.00000000)
(-0.01749408 -0.00164934 0.00000000)
(-0.01123962 -0.00281539 0.00000000)
(-0.03151697 0.00211423 0.00000000)
(-0.00015963 0.00021313 0.00000000)
(-0.01404822 0.01168172 0.00000000)
(-0.01083689 0.00781882 0.00000000)
(-0.00587675 0.01039403 0.00000000)
(-0.00683373 0.01281555 0.00000000)
(-0.00568414 0.00931906 0.00000000)
(-0.00599024 0.01632040 0.00000000)
(-0.00746769 0.01170503 0.00000000)
(-0.01021374 0.01931245 0.00000000)
(-0.01043613 0.01573523 0.00000000)
(-0.01570465 0.02267121 0.00000000)
(-0.01149044 0.01425424 0.00000000)
(-0.01161529 0.01577784 0.00000000)
(-0.01275225 0.01844620 0.00000000)
(-0.01250055 0.01634194 0.00000000)
(-0.00789310 0.00978872 0.00000000)
(-0.00427149 0.00403404 0.00000000)
(0.00484372 -0.00592005 0.00000000)
(0.02007510 -0.01390751 0.00000000)
(0.03410567 -0.00895436 0.00000000)
(0.03246726 -0.00007395 0.00000000)
(0.02022462 0.00053735 0.00000000)
(0.01154713 0.00043209 0.00000000)
(0.00436507 0.00040144 0.00000000)
(-0.00371262 0.00043427 0.00000000)
(-0.01241478 0.00047306 0.00000000)
(-0.02138763 0.00052887 0.00000000)
(-0.03192936 0.00059740 0.00000000)
(-0.04350100 0.00067657 0.00000000)
(-0.05590911 0.00068083 0.00000000)
(-0.06888573 0.00072178 0.00000000)
(-0.08237956 0.00072656 0.00000000)
(-0.09552555 0.00069570 0.00000000)
(-0.10811049 0.00067150 0.00000000)
(-0.11971704 0.00060266 0.00000000)
(-0.13011677 0.00054742 0.00000000)
(-0.13930613 0.00048408 0.00000000)
(-0.14668151 0.00039010 0.00000000)
(-0.15296538 0.00029977 0.00000000)
(-0.15728109 0.00024996 0.00000000)
(-0.16169127 0.00022200 0.00000000)
(-0.16467641 0.00012924 0.00000000)
(-0.16637893 0.00007104 0.00000000)
(-0.16681930 0.00004396 0.00000000)
(-0.16680606 -0.00001238 0.00000000)
(-0.16610988 -0.00006133 0.00000000)
(-0.16453620 -0.00007226 0.00000000)
(-0.16267285 -0.00007792 0.00000000)
(-0.16090001 -0.00012023 0.00000000)
(-0.15882564 -0.00011712 0.00000000)
(-0.15610859 -0.00010791 0.00000000)
(-0.15314349 -0.00011865 0.00000000)
(-0.15142781 -0.00016790 0.00000000)
(-0.14716658 -0.00021721 0.00000000)
(-0.14357949 -0.00023276 0.00000000)
(-0.13904579 -0.00022661 0.00000000)
(-0.13531851 -0.00019753 0.00000000)
(-0.13201655 -0.00018179 0.00000000)
(-0.12762845 -0.00028609 0.00000000)
(-0.12199501 -0.00030487 0.00000000)
(-0.11697252 -0.00025132 0.00000000)
(-0.11160522 -0.00030869 0.00000000)
(-0.10646806 -0.00028267 0.00000000)
(-0.10243130 -0.00020397 0.00000000)
(-0.09839264 -0.00020640 0.00000000)
(-0.09341704 -0.00027884 0.00000000)
(-0.08909664 -0.00029185 0.00000000)
(-0.08281153 -0.00034091 0.00000000)
(-0.07692034 -0.00034212 0.00000000)
(-0.07099970 -0.00029978 0.00000000)
(-0.06557999 -0.00027896 0.00000000)
(-0.06071739 -0.00025855 0.00000000)
(-0.05655645 -0.00020440 0.00000000)
(-0.05229492 -0.00025093 0.00000000)
(-0.04760050 -0.00024227 0.00000000)
(-0.04355409 -0.00019187 0.00000000)
(-0.03994186 -0.00020644 0.00000000)
(-0.03601185 -0.00019820 0.00000000)
(-0.03247691 -0.00018202 0.00000000)
(-0.02910700 -0.00017906 0.00000000)
(-0.02610817 -0.00016229 0.00000000)
(-0.02354671 -0.00011241 0.00000000)
(-0.02168825 -0.00007366 0.00000000)
(-0.02082718 -0.00005934 0.00000000)
(-0.01935620 -0.00006807 0.00000000)
(-0.01874706 -0.00001126 0.00000000)
(-0.01829043 -0.00006173 0.00000000)
(-0.01801911 0.00002697 0.00000000)
(-0.01833264 0.00001671 0.00000000)
(-0.01914000 0.00009876 0.00000000)
(-0.02203998 0.00020044 0.00000000)
(-0.02691755 0.00029414 0.00000000)
(-0.03316293 0.00034224 0.00000000)
(-0.04084883 0.00052475 0.00000000)
(-0.05158486 0.00068738 0.00000000)
(-0.06708471 0.00102145 0.00000000)
(-0.08451826 0.00080976 0.00000000)
(-0.08165310 -0.00737747 0.00000000)
(-0.05389100 -0.02041395 0.00000000)
(-0.02380124 -0.01502118 0.00000000)
(-0.00875643 -0.00797718 0.00000000)
(-0.00300366 -0.00109819 0.00000000)
(0.00061210 0.00167489 0.00000000)
(0.00012946 -0.00010133 0.00000000)
(-0.00106833 0.00040405 0.00000000)
(-0.00046396 -0.00008839 0.00000000)
(-0.00010785 0.00008830 0.00000000)
(0.00037121 -0.00047695 0.00000000)
(0.00112947 -0.00083572 0.00000000)
(0.00155630 0.00243880 0.00000000)
(-0.00256663 -0.00243650 0.00000000)
(-0.00150873 -0.00485396 0.00000000)
(-0.00607589 -0.00710698 0.00000000)
(-0.01374179 -0.02163395 0.00000000)
(-0.00696572 -0.01328535 0.00000000)
(-0.02563032 -0.02275614 0.00000000)
(-0.03207960 -0.02788648 0.00000000)
(-0.00186737 -0.00038438 0.00000000)
(-0.00710003 -0.00244129 0.00000000)
(-0.03147442 0.00316398 0.00000000)
(-0.00909411 0.00275397 0.00000000)
(-0.02168517 0.01730564 0.00000000)
(-0.01682969 0.01381353 0.00000000)
(-0.01006115 0.01605667 0.00000000)
(-0.00960591 0.01734351 0.00000000)
(-0.00846899 0.01508847 0.00000000)
(-0.00792404 0.02332000 0.00000000)
(-0.01172972 0.01992392 0.00000000)
(-0.01337429 0.02889489 0.00000000)
(-0.01687696 0.02539440 0.00000000)
(-0.02366610 0.03470842 0.00000000)
(-0.01967793 0.02981925 0.00000000)
(-0.02171739 0.03120564 0.00000000)
(-0.02354015 0.03362087 0.00000000)
(-0.02224099 0.02930038 0.00000000)
(-0.01662434 0.02034627 0.00000000)
(-0.01024566 0.00967794 0.00000000)
(0.00050709 -0.00453536 0.00000000)
(0.01844771 -0.01445794 0.00000000)
(0.03429945 -0.01128934 0.00000000)
(0.03526165 0.00010852 0.00000000)
(0.02334814 0.00155413 0.00000000)
(0.01031928 0.00129543 0.00000000)
(-0.00187451 0.00131118 0.00000000)
(-0.01476060 0.00140614 0.00000000)
(-0.02845363 0.00147975 0.00000000)
(-0.04332495 0.00168744 0.00000000)
(-0.05989519 0.00183903 0.00000000)
(-0.07793217 0.00205811 0.00000000)
(-0.09693730 0.00213274 0.00000000)
(-0.11644411 0.00223378 0.00000000)
(-0.13620652 0.00223267 0.00000000)
(-0.15497873 0.00211614 0.00000000)
(-0.17258293 0.00201195 0.00000000)
(-0.18841620 0.00177937 0.00000000)
(-0.20223541 0.00159504 0.00000000)
(-0.21429656 0.00138887 0.00000000)
(-0.22415949 0.00106878 0.00000000)
(-0.23101448 0.00083716 0.00000000)
(-0.23711301 0.00066368 0.00000000)
(-0.24117956 0.00058417 0.00000000)
(-0.24403995 0.00031889 0.00000000)
(-0.24514051 0.00015246 0.00000000)
(-0.24490055 0.00006343 0.00000000)
(-0.24392434 -0.00010452 0.00000000)
(-0.24176074 -0.00023982 0.00000000)
(-0.23895474 -0.00027489 0.00000000)
(-0.23559803 -0.00029313 0.00000000)
(-0.23217430 -0.00040414 0.00000000)
(-0.22799893 -0.00038980 0.00000000)
(-0.22478771 -0.00036698 0.00000000)
(-0.22123723 -0.00038905 0.00000000)
(-0.21589521 -0.00054966 0.00000000)
(-0.21115943 -0.00065752 0.00000000)
(-0.20485395 -0.00071837 0.00000000)
(-0.19848536 -0.00069966 0.00000000)
(-0.19205864 -0.00062535 0.00000000)
(-0.18638346 -0.00061079 0.00000000)
(-0.17918346 -0.00088314 0.00000000)
(-0.17143802 -0.00091410 0.00000000)
(-0.16425029 -0.00077131 0.00000000)
(-0.15687555 -0.00091770 0.00000000)
(-0.14911982 -0.00085306 0.00000000)
(-0.14212920 -0.00065728 0.00000000)
(-0.13646089 -0.00065222 0.00000000)
(-0.13019120 -0.00081168 0.00000000)
(-0.12257961 -0.00090287 0.00000000)
(-0.11404397 -0.00102295 0.00000000)
(-0.10493386 -0.00102652 0.00000000)
(-0.09661019 -0.00091763 0.00000000)
(-0.08908464 -0.00084876 0.00000000)
(-0.08198325 -0.00079313 0.00000000)
(-0.07564495 -0.00066716 0.00000000)
(-0.06919065 -0.00077160 0.00000000)
(-0.06247830 -0.00074003 0.00000000)
(-0.05678496 -0.00058876 0.00000000)
(-0.05112792 -0.00064369 0.00000000)
(-0.04600906 -0.00059318 0.00000000)
(-0.04099691 -0.00056787 0.00000000)
(-0.03616527 -0.00053731 0.00000000)
(-0.03140875 -0.00049125 0.00000000)
(-0.02779994 -0.00034104 0.00000000)
(-0.02517863 -0.00022321 0.00000000)
(-0.02336668 -0.00018171 0.00000000)
(-0.02143698 -0.00019623 0.00000000)
(-0.02021249 -0.00002870 0.00000000)
(-0.01939188 -0.00017194 0.00000000)
(-0.01879343 0.00008499 0.00000000)
(-0.01941257 0.00008382 0.00000000)
(-0.02099788 0.00030342 0.00000000)
(-0.02507033 0.00061828 0.00000000)
(-0.03195434 0.00091697 0.00000000)
(-0.04069284 0.00108556 0.00000000)
(-0.05246440 0.00154767 0.00000000)
(-0.06774920 0.00203189 0.00000000)
(-0.08933971 0.00294647 0.00000000)
(-0.11075948 0.00210541 0.00000000)
(-0.10333214 -0.01258862 0.00000000)
(-0.07988836 -0.03367172 0.00000000)
(-0.05282492 -0.03800581 0.00000000)
(-0.02282163 -0.02667554 0.00000000)
(-0.01203203 -0.01545499 0.00000000)
(-0.00806637 -0.00552008 0.00000000)
(-0.00451543 -0.00567855 0.00000000)
(-0.00451539 -0.00333049 0.00000000)
(-0.00079444 -0.00078613 0.00000000)
(-0.00020923 -0.00015381 0.00000000)
(0.00497324 0.00247469 0.00000000)
(0.00394361 0.00282173 0.00000000)
(0.00224629 0.00447541 0.00000000)
(-0.00444928 -0.00482975 0.00000000)
(-0.00392002 -0.00830476 0.00000000)
(-0.01294310 -0.01867718 0.00000000)
(-0.00854349 -0.02041334 0.00000000)
(-0.00370461 -0.01194883 0.00000000)
(-0.01728499 -0.01614024 0.00000000)
(-0.02364857 -0.01932616 0.00000000)
(0.02969636 0.00260808 0.00000000)
(0.00335526 -0.00076120 0.00000000)
(-0.02547313 0.00459545 0.00000000)
(-0.02047731 0.00604338 0.00000000)
(-0.03342997 0.02558336 0.00000000)
(-0.02437756 0.02240466 0.00000000)
(-0.01446026 0.02165362 0.00000000)
(-0.01373056 0.02366984 0.00000000)
(-0.01253708 0.02237548 0.00000000)
(-0.01097272 0.03169188 0.00000000)
(-0.01734526 0.02980807 0.00000000)
(-0.01832060 0.04057072 0.00000000)
(-0.02600053 0.04078946 0.00000000)
(-0.03147488 0.04937367 0.00000000)
(-0.03109594 0.04838377 0.00000000)
(-0.03355029 0.04882660 0.00000000)
(-0.03534347 0.04996691 0.00000000)
(-0.03346740 0.04336936 0.00000000)
(-0.02659992 0.03153719 0.00000000)
(-0.01794382 0.01608247 0.00000000)
(-0.00517216 -0.00175392 0.00000000)
(0.01302848 -0.01395233 0.00000000)
(0.02961984 -0.01140442 0.00000000)
(0.03247240 0.00090687 0.00000000)
(0.02005879 0.00296488 0.00000000)
(0.00345852 0.00255976 0.00000000)
(-0.01265968 0.00260143 0.00000000)
(-0.02970112 0.00278824 0.00000000)
(-0.04805914 0.00295693 0.00000000)
(-0.06776755 0.00332180 0.00000000)
(-0.08921037 0.00360118 0.00000000)
(-0.11219828 0.00395482 0.00000000)
(-0.13608046 0.00406147 0.00000000)
(-0.16006497 0.00419233 0.00000000)
(-0.18373729 0.00413670 0.00000000)
(-0.20605181 0.00387125 0.00000000)
(-0.22635662 0.00361187 0.00000000)
(-0.24410901 0.00317063 0.00000000)
(-0.25938946 0.00278972 0.00000000)
(-0.27226354 0.00239790 0.00000000)
(-0.28242815 0.00178645 0.00000000)
(-0.28952578 0.00139225 0.00000000)
(-0.29464440 0.00108174 0.00000000)
(-0.29895578 0.00089959 0.00000000)
(-0.30117681 0.00045294 0.00000000)
(-0.30155340 0.00016160 0.00000000)
(-0.30071582 -0.00001188 0.00000000)
(-0.29830002 -0.00031700 0.00000000)
(-0.29507859 -0.00052739 0.00000000)
(-0.29087823 -0.00060472 0.00000000)
(-0.28624197 -0.00064728 0.00000000)
(-0.28147067 -0.00080991 0.00000000)
(-0.27663401 -0.00076021 0.00000000)
(-0.27168810 -0.00075777 0.00000000)
(-0.26610528 -0.00081273 0.00000000)
(-0.26065382 -0.00107465 0.00000000)
(-0.25377070 -0.00124735 0.00000000)
(-0.24550845 -0.00137366 0.00000000)
(-0.23758984 -0.00135396 0.00000000)
(-0.22986761 -0.00122361 0.00000000)
(-0.22199632 -0.00125801 0.00000000)
(-0.21297723 -0.00165763 0.00000000)
(-0.20365266 -0.00168145 0.00000000)
(-0.19469002 -0.00147264 0.00000000)
(-0.18533102 -0.00170712 0.00000000)
(-0.17618787 -0.00158439 0.00000000)
(-0.16784109 -0.00126712 0.00000000)
(-0.16035396 -0.00126883 0.00000000)
(-0.15250362 -0.00151305 0.00000000)
(-0.14297582 -0.00170906 0.00000000)
(-0.13268835 -0.00191424 0.00000000)
(-0.12197666 -0.00187760 0.00000000)
(-0.11212138 -0.00168712 0.00000000)
(-0.10321272 -0.00156846 0.00000000)
(-0.09456984 -0.00145865 0.00000000)
(-0.08656645 -0.00130533 0.00000000)
(-0.07839712 -0.00144320 0.00000000)
(-0.07045940 -0.00135093 0.00000000)
(-0.06365942 -0.00109864 0.00000000)
(-0.05699179 -0.00118148 0.00000000)
(-0.05090424 -0.00107640 0.00000000)
(-0.04474550 -0.00108172 0.00000000)
(-0.03860811 -0.00101700 0.00000000)
(-0.03296553 -0.00091064 0.00000000)
(-0.02849024 -0.00064423 0.00000000)
(-0.02531811 -0.00045046 0.00000000)
(-0.02292766 -0.00037561 0.00000000)
(-0.02037511 -0.00039346 0.00000000)
(-0.01863829 -0.00009293 0.00000000)
(-0.01751381 -0.00032987 0.00000000)
(-0.01662563 0.00010589 0.00000000)
(-0.01725492 0.00016834 0.00000000)
(-0.01926817 0.00053857 0.00000000)
(-0.02421798 0.00115103 0.00000000)
(-0.03249445 0.00169561 0.00000000)
(-0.04317338 0.00201578 0.00000000)
(-0.05732441 0.00287439 0.00000000)
(-0.07590259 0.00372661 0.00000000)
(-0.10060997 0.00522539 0.00000000)
(-0.12354163 0.00334771 0.00000000)
(-0.11700285 -0.01529005 0.00000000)
(-0.09697300 -0.04150367 0.00000000)
(-0.07396505 -0.05345768 0.00000000)
(-0.04668111 -0.05000479 0.00000000)
(-0.02584187 -0.03502476 0.00000000)
(-0.01613773 -0.02143415 0.00000000)
(-0.01343884 -0.01671614 0.00000000)
(-0.00376001 -0.00871813 0.00000000)
(0.00040461 -0.00208306 0.00000000)
(0.00084094 0.00081206 0.00000000)
(0.00934305 0.00981648 0.00000000)
(0.00875170 0.01168806 0.00000000)
(0.00197806 0.00758344 0.00000000)
(-0.00012196 -0.00040368 0.00000000)
(-0.00938291 -0.01743317 0.00000000)
(-0.00967363 -0.01809960 0.00000000)
(0.00950157 -0.00629345 0.00000000)
(-0.00009373 -0.00986485 0.00000000)
(-0.00679904 -0.00672728 0.00000000)
(0.06003129 0.04901218 0.00000000)
(0.08096339 0.00911264 0.00000000)
(0.02237251 0.00264132 0.00000000)
(-0.01311624 0.00629858 0.00000000)
(-0.03197346 0.00960447 0.00000000)
(-0.04628283 0.03581261 0.00000000)
(-0.03262844 0.03192844 0.00000000)
(-0.01909133 0.02702918 0.00000000)
(-0.01902224 0.03150171 0.00000000)
(-0.01818138 0.03135669 0.00000000)
(-0.01544792 0.04057462 0.00000000)
(-0.02472528 0.04149875 0.00000000)
(-0.02507267 0.05461948 0.00000000)
(-0.03561359 0.05605753 0.00000000)
(-0.03906208 0.06496526 0.00000000)
(-0.04410822 0.06754458 0.00000000)
(-0.04565070 0.06674969 0.00000000)
(-0.04645270 0.06572020 0.00000000)
(-0.04309292 0.05525039 0.00000000)
(-0.03568105 0.04070390 0.00000000)
(-0.02533145 0.02145638 0.00000000)
(-0.01176612 0.00173719 0.00000000)
(0.00582628 -0.01173201 0.00000000)
(0.02228957 -0.01028758 0.00000000)
(0.02541543 0.00210702 0.00000000)
(0.01226038 0.00466520 0.00000000)
(-0.00728854 0.00420892 0.00000000)
(-0.02668718 0.00429785 0.00000000)
(-0.04722226 0.00460669 0.00000000)
(-0.06941561 0.00490472 0.00000000)
(-0.09300116 0.00544116 0.00000000)
(-0.11819488 0.00583792 0.00000000)
(-0.14475006 0.00632757 0.00000000)
(-0.17191578 0.00644166 0.00000000)
(-0.19874198 0.00654836 0.00000000)
(-0.22467799 0.00637532 0.00000000)
(-0.24831485 0.00590571 0.00000000)
(-0.26946907 0.00542740 0.00000000)
(-0.28788764 0.00471993 0.00000000)
(-0.30341739 0.00409836 0.00000000)
(-0.31614273 0.00346044 0.00000000)
(-0.32541155 0.00251719 0.00000000)
(-0.33203622 0.00193873 0.00000000)
(-0.33695115 0.00147550 0.00000000)
(-0.33993756 0.00114647 0.00000000)
(-0.34119974 0.00051713 0.00000000)
(-0.34065703 0.00008936 0.00000000)
(-0.33882433 -0.00020248 0.00000000)
(-0.33540256 -0.00064740 0.00000000)
(-0.33097027 -0.00092804 0.00000000)
(-0.32592594 -0.00106176 0.00000000)
(-0.32012858 -0.00115020 0.00000000)
(-0.31426120 -0.00133264 0.00000000)
(-0.30845548 -0.00124152 0.00000000)
(-0.30269066 -0.00128938 0.00000000)
(-0.29645497 -0.00136302 0.00000000)
(-0.28925645 -0.00174844 0.00000000)
(-0.28129450 -0.00198762 0.00000000)
(-0.27190620 -0.00219057 0.00000000)
(-0.26291316 -0.00216554 0.00000000)
(-0.25384556 -0.00199506 0.00000000)
(-0.24491351 -0.00209795 0.00000000)
(-0.23427771 -0.00260027 0.00000000)
(-0.22389650 -0.00259931 0.00000000)
(-0.21368254 -0.00234247 0.00000000)
(-0.20341983 -0.00264786 0.00000000)
(-0.19299148 -0.00246244 0.00000000)
(-0.18373975 -0.00202782 0.00000000)
(-0.17469677 -0.00206034 0.00000000)
(-0.16568807 -0.00237170 0.00000000)
(-0.15506539 -0.00269024 0.00000000)
(-0.14359986 -0.00298148 0.00000000)
(-0.13176171 -0.00289812 0.00000000)
(-0.12088489 -0.00261310 0.00000000)
(-0.11062629 -0.00244387 0.00000000)
(-0.10121518 -0.00226759 0.00000000)
(-0.09209542 -0.00211869 0.00000000)
(-0.08268754 -0.00226340 0.00000000)
(-0.07401481 -0.00207880 0.00000000)
(-0.06638029 -0.00173681 0.00000000)
(-0.05898729 -0.00183298 0.00000000)
(-0.05210798 -0.00166494 0.00000000)
(-0.04539151 -0.00171504 0.00000000)
(-0.03838871 -0.00161564 0.00000000)
(-0.03206895 -0.00141878 0.00000000)
(-0.02709732 -0.00101342 0.00000000)
(-0.02350012 -0.00074118 0.00000000)
(-0.02054593 -0.00062593 0.00000000)
(-0.01756315 -0.00064364 0.00000000)
(-0.01530236 -0.00019103 0.00000000)
(-0.01385430 -0.00049445 0.00000000)
(-0.01273785 0.00012126 0.00000000)
(-0.01333450 0.00029265 0.00000000)
(-0.01571490 0.00083736 0.00000000)
(-0.02123954 0.00180509 0.00000000)
(-0.03040492 0.00265574 0.00000000)
(-0.04234747 0.00316381 0.00000000)
(-0.05805718 0.00449499 0.00000000)
(-0.07845256 0.00575951 0.00000000)
(-0.10481643 0.00779919 0.00000000)
(-0.12802451 0.00472270 0.00000000)
(-0.12474332 -0.01698490 0.00000000)
(-0.10815681 -0.04703646 0.00000000)
(-0.08758416 -0.06439706 0.00000000)
(-0.06607468 -0.06718595 0.00000000)
(-0.04538555 -0.05478282 0.00000000)
(-0.02751599 -0.04061173 0.00000000)
(-0.01558261 -0.02701877 0.00000000)
(-0.00303057 -0.01283474 0.00000000)
(0.00012844 -0.00035063 0.00000000)
(0.00416892 0.00440083 0.00000000)
(0.01304002 0.02233330 0.00000000)
(0.01422977 0.02061754 0.00000000)
(0.00416191 0.01454997 0.00000000)
(0.01343091 0.01279998 0.00000000)
(-0.00670503 -0.01520561 0.00000000)
(0.00594686 -0.00079598 0.00000000)
(0.02561022 0.00825587 0.00000000)
(0.00826068 0.00075899 0.00000000)
(0.00158178 -0.00293634 0.00000000)
(0.10297139 0.08824586 0.00000000)
(0.15345126 0.02141945 0.00000000)
(0.05061895 0.00761141 0.00000000)
(0.00571904 0.00810038 0.00000000)
(-0.04069141 0.01283770 0.00000000)
(-0.06077907 0.04868988 0.00000000)
(-0.04056383 0.04019399 0.00000000)
(-0.02351481 0.03253584 0.00000000)
(-0.02454447 0.03967838 0.00000000)
(-0.02428541 0.04079592 0.00000000)
(-0.02252623 0.05110992 0.00000000)
(-0.03286391 0.05418924 0.00000000)
(-0.03318595 0.06825905 0.00000000)
(-0.04479499 0.07087246 0.00000000)
(-0.04821213 0.08165613 0.00000000)
(-0.05543902 0.08401498 0.00000000)
(-0.05692274 0.08282834 0.00000000)
(-0.05476028 0.07816008 0.00000000)
(-0.05050455 0.06423066 0.00000000)
(-0.04305576 0.04759131 0.00000000)
(-0.03166926 0.02628228 0.00000000)
(-0.01881711 0.00575410 0.00000000)
(-0.00273639 -0.00877729 0.00000000)
(0.01248354 -0.00814228 0.00000000)
(0.01549148 0.00369961 0.00000000)
(0.00130074 0.00661540 0.00000000)
(-0.02043840 0.00618514 0.00000000)
(-0.04253730 0.00634636 0.00000000)
(-0.06594511 0.00682534 0.00000000)
(-0.09109958 0.00725280 0.00000000)
(-0.11767444 0.00795309 0.00000000)
(-0.14553035 0.00845585 0.00000000)
(-0.17443411 0.00905898 0.00000000)
(-0.20363307 0.00913298 0.00000000)
(-0.23173166 0.00915681 0.00000000)
(-0.25853332 0.00880441 0.00000000)
(-0.28271659 0.00807236 0.00000000)
(-0.30380243 0.00732270 0.00000000)
(-0.32170959 0.00631023 0.00000000)
(-0.33668658 0.00541355 0.00000000)
(-0.34849258 0.00448451 0.00000000)
(-0.35704298 0.00320932 0.00000000)
(-0.36288896 0.00242841 0.00000000)
(-0.36663845 0.00180610 0.00000000)
(-0.36893390 0.00130121 0.00000000)
(-0.36906765 0.00049045 0.00000000)
(-0.36779097 -0.00006619 0.00000000)
(-0.36504458 -0.00050404 0.00000000)
(-0.36091843 -0.00107400 0.00000000)
(-0.35569060 -0.00142233 0.00000000)
(-0.34993049 -0.00162193 0.00000000)
(-0.34322879 -0.00176914 0.00000000)
(-0.33640569 -0.00194804 0.00000000)
(-0.33001583 -0.00181036 0.00000000)
(-0.32333770 -0.00193942 0.00000000)
(-0.31592836 -0.00203467 0.00000000)
(-0.30786492 -0.00253349 0.00000000)
(-0.29909164 -0.00284909 0.00000000)
(-0.28917217 -0.00313859 0.00000000)
(-0.27916647 -0.00309745 0.00000000)
(-0.26936008 -0.00290689 0.00000000)
(-0.25906049 -0.00310830 0.00000000)
(-0.24759999 -0.00366982 0.00000000)
(-0.23643515 -0.00362568 0.00000000)
(-0.22541356 -0.00335001 0.00000000)
(-0.21436718 -0.00370992 0.00000000)
(-0.20329277 -0.00345321 0.00000000)
(-0.19313245 -0.00291798 0.00000000)
(-0.18318424 -0.00299056 0.00000000)
(-0.17308732 -0.00334321 0.00000000)
(-0.16163110 -0.00380665 0.00000000)
(-0.14938381 -0.00416720 0.00000000)
(-0.13675694 -0.00403930 0.00000000)
(-0.12530563 -0.00365418 0.00000000)
(-0.11419218 -0.00342962 0.00000000)
(-0.10403287 -0.00318325 0.00000000)
(-0.09402334 -0.00307076 0.00000000)
(-0.08390831 -0.00317470 0.00000000)
(-0.07473438 -0.00287902 0.00000000)
(-0.06655735 -0.00247390 0.00000000)
(-0.05871910 -0.00255417 0.00000000)
(-0.05125179 -0.00231694 0.00000000)
(-0.04410642 -0.00241427 0.00000000)
(-0.03656968 -0.00229864 0.00000000)
(-0.02980384 -0.00198691 0.00000000)
(-0.02440242 -0.00144673 0.00000000)
(-0.02047090 -0.00108239 0.00000000)
(-0.01713064 -0.00092694 0.00000000)
(-0.01378156 -0.00095737 0.00000000)
(-0.01108426 -0.00034871 0.00000000)
(-0.00940600 -0.00067192 0.00000000)
(-0.00808921 0.00010271 0.00000000)
(-0.00870387 0.00042544 0.00000000)
(-0.01138856 0.00116520 0.00000000)
(-0.01729744 0.00250335 0.00000000)
(-0.02699350 0.00370668 0.00000000)
(-0.03969144 0.00445315 0.00000000)
(-0.05644346 0.00627743 0.00000000)
(-0.07797243 0.00796350 0.00000000)
(-0.10491289 0.01049317 0.00000000)
(-0.12809451 0.00618021 0.00000000)
(-0.12805626 -0.01763293 0.00000000)
(-0.11492163 -0.05088129 0.00000000)
(-0.09611837 -0.07158495 0.00000000)
(-0.07586650 -0.07709176 0.00000000)
(-0.05469983 -0.06728650 0.00000000)
(-0.04156193 -0.05381347 0.00000000)
(-0.01830075 -0.03507637 0.00000000)
(-0.00431978 -0.01460341 0.00000000)
(0.00403493 0.00208290 0.00000000)
(0.01316811 0.01397968 0.00000000)
(0.01686572 0.03926684 0.00000000)
(0.02774915 0.04060437 0.00000000)
(0.01659350 0.03511570 0.00000000)
(0.03306464 0.03523164 0.00000000)
(0.01180708 0.00567910 0.00000000)
(0.02718026 0.01828192 0.00000000)
(0.04120983 0.03285997 0.00000000)
(0.02290413 0.01730810 0.00000000)
(0.01117032 0.00205650 0.00000000)
(0.11288726 0.10370211 0.00000000)
(0.24877708 0.04231906 0.00000000)
(0.08886098 0.01395245 0.00000000)
(0.03108707 0.00978518 0.00000000)
(-0.04309043 0.01500542 0.00000000)
(-0.07561008 0.06132130 0.00000000)
(-0.04795194 0.04824753 0.00000000)
(-0.02957832 0.04099613 0.00000000)
(-0.02998702 0.04788137 0.00000000)
(-0.03037448 0.05025732 0.00000000)
(-0.03128461 0.06273540 0.00000000)
(-0.04045235 0.06656079 0.00000000)
(-0.04322158 0.08212234 0.00000000)
(-0.05471867 0.08639405 0.00000000)
(-0.05715616 0.09645461 0.00000000)
(-0.06478064 0.09766445 0.00000000)
(-0.06465738 0.09437227 0.00000000)
(-0.06142784 0.08708447 0.00000000)
(-0.05650631 0.07094330 0.00000000)
(-0.04912760 0.05317210 0.00000000)
(-0.03835067 0.03117855 0.00000000)
(-0.02642107 0.00996697 0.00000000)
(-0.01133747 -0.00543808 0.00000000)
(0.00207440 -0.00559919 0.00000000)
(0.00379904 0.00562163 0.00000000)
(-0.01158914 0.00879219 0.00000000)
(-0.03498684 0.00846168 0.00000000)
(-0.05928739 0.00872362 0.00000000)
(-0.08498887 0.00938626 0.00000000)
(-0.11238635 0.00995679 0.00000000)
(-0.14113371 0.01079411 0.00000000)
(-0.17077122 0.01138310 0.00000000)
(-0.20118883 0.01206323 0.00000000)
(-0.23135671 0.01204297 0.00000000)
(-0.26005673 0.01192028 0.00000000)
(-0.28666908 0.01133493 0.00000000)
(-0.31037617 0.01030236 0.00000000)
(-0.33093946 0.00922474 0.00000000)
(-0.34806289 0.00788545 0.00000000)
(-0.36194470 0.00669123 0.00000000)
(-0.37286097 0.00544135 0.00000000)
(-0.38028126 0.00383657 0.00000000)
(-0.38525736 0.00284378 0.00000000)
(-0.38809653 0.00205899 0.00000000)
(-0.38932599 0.00135628 0.00000000)
(-0.38869734 0.00036791 0.00000000)
(-0.38651515 -0.00030985 0.00000000)
(-0.38298195 -0.00090764 0.00000000)
(-0.37814169 -0.00158541 0.00000000)
(-0.37248530 -0.00200942 0.00000000)
(-0.36584064 -0.00227956 0.00000000)
(-0.35865909 -0.00249065 0.00000000)
(-0.35115378 -0.00265081 0.00000000)
(-0.34411761 -0.00247274 0.00000000)
(-0.33672952 -0.00269743 0.00000000)
(-0.32866354 -0.00281061 0.00000000)
(-0.32012412 -0.00340959 0.00000000)
(-0.31048195 -0.00381203 0.00000000)
(-0.29998534 -0.00420082 0.00000000)
(-0.28928906 -0.00412168 0.00000000)
(-0.27888782 -0.00394057 0.00000000)
(-0.26773309 -0.00425034 0.00000000)
(-0.25572522 -0.00483544 0.00000000)
(-0.24393673 -0.00474004 0.00000000)
(-0.23234658 -0.00446549 0.00000000)
(-0.22083900 -0.00487226 0.00000000)
(-0.20914590 -0.00453875 0.00000000)
(-0.19833578 -0.00392129 0.00000000)
(-0.18751937 -0.00404367 0.00000000)
(-0.17673539 -0.00440905 0.00000000)
(-0.16470518 -0.00503107 0.00000000)
(-0.15193267 -0.00544748 0.00000000)
(-0.13890554 -0.00527527 0.00000000)
(-0.12695180 -0.00479962 0.00000000)
(-0.11518790 -0.00453154 0.00000000)
(-0.10453593 -0.00420119 0.00000000)
(-0.09381815 -0.00414012 0.00000000)
(-0.08318366 -0.00415615 0.00000000)
(-0.07374384 -0.00375241 0.00000000)
(-0.06518723 -0.00330571 0.00000000)
(-0.05700133 -0.00335275 0.00000000)
(-0.04903174 -0.00304103 0.00000000)
(-0.04162570 -0.00316206 0.00000000)
(-0.03383421 -0.00305365 0.00000000)
(-0.02676241 -0.00260971 0.00000000)
(-0.02100716 -0.00194956 0.00000000)
(-0.01676531 -0.00146406 0.00000000)
(-0.01309846 -0.00126945 0.00000000)