/*--------------------------------*- C++ -*----------------------------------*\
  =========                 |
  \\      /  F ield         | OpenFOAM: The Open Source CFD Toolbox
   \\    /   O peration     | Website:  https://openfoam.org
    \\  /    A nd           | Version:  7
     \\/     M anipulation  |
\*---------------------------------------------------------------------------*/
FoamFile
{
    version     2.0;
    format      ascii;
    class       volVectorField;
    location    "20000";
    object      C;
}
// * * * * * * * * * * * * * * * * * * * * * * * * * * * * * * * * * * * * * //

dimensions      [0 1 0 0 0 0 0];

internalField   nonuniform List<vector> 
15600
(
(0.0598279108762468 1.00195552661621 0)
(0.179487735227664 1.00098982732375 -1.60361986554574e-18)
(0.298980181048245 0.995041871687548 -9.31596899814997e-18)
(0.417446930650885 0.978946172537143 -1.53309095328162e-17)
(0.533245920912999 0.949496200491004 9.48441345782699e-20)
(0.645178483362424 0.907480352769988 -1.59915568093045e-18)
(0.753532035919987 0.85681294031917 0)
(0.859331591607705 0.800988441632287 2.75785242627565e-18)
(0.963692678557386 0.742537649324287 -1.10060117028333e-17)
(1.06770490598813 0.683502228185276 5.36603546244339e-18)
(1.17217050171847 0.625291616122338 7.455145334609e-18)
(1.27730032184346 0.568275863179981 -2.43020171058235e-18)
(1.38296970113352 0.512251341784576 -2.13782477971699e-18)
(1.48903632807559 0.456969788429227 4.37757284657888e-18)
(1.59536091850361 0.402175255245536 -2.15509268092793e-18)
(1.70191959933163 0.347837292001301 -1.98409525302189e-18)
(1.80895851207726 0.294464617721204 0)
(1.91688888371218 0.242935968399715 1.92921380959673e-18)
(2.02611699045191 0.194248878222213 1.57251774213304e-18)
(2.13701326237616 0.149539400382855 8.67361705117433e-18)
(2.24980198899869 0.109880284677664 4.9152860492072e-18)
(2.364447651434 0.075966080081492 0)
(2.48073929273392 0.0482290963872532 -9.58461959354903e-20)
(2.59839977592429 0.0270554766705787 0)
(2.71709231365893 0.0127786701161332 1.60886063677829e-18)
(2.83655025770752 0.00565565940868856 0)
(2.95615421901722 0.00390981920379557 -2.29893881491507e-16)
(3.07568579304396 0.00391105323242201 -2.25728340547889e-16)
(3.19534161479645 0.00391105323242206 0)
(3.31499743654895 0.00391105323242195 -1.60465712541808e-18)
(3.43465325830144 0.00391105323242198 -9.6373526479974e-20)
(3.55430908005393 0.00391105323242193 -2.40173598460098e-16)
(3.67396490180643 0.00391105323242179 -2.53036560718446e-16)
(3.79362072355892 0.00391105323242204 -9.63735264799733e-20)
(3.91327654531142 0.0039110532324219 0)
(4.03293236706391 0.00391105323242192 -1.50828359893818e-18)
(4.15258818881641 0.0039110532324219 0)
(4.2722440105689 0.0039110532324219 9.63735264799715e-20)
(4.39189983232139 0.00391105323242201 2.29519239741044e-16)
(4.51155565407389 0.00391105323242204 2.32114715311023e-16)
(4.63121147582638 0.00391105323242201 0)
(4.75086729757887 0.00391105323242203 -6.12950792223261e-18)
(4.87052311933137 0.00391105323242206 0)
(4.99017894108386 0.00391105323242201 0)
(5.10983476283636 0.00391105323242201 0)
(5.22949058458885 0.00391105323242198 -3.11294072435634e-18)
(5.34914640634134 0.00391105323242192 -2.38472567808199e-16)
(5.46880222809384 0.00391105323242184 -2.43857684304504e-16)
(5.58845804984633 0.00391105323242196 -9.63735264799737e-20)
(5.70811387159882 0.00391105323242187 -3.11294072435636e-18)
(5.82776969335132 0.00391105323242187 3.11294072435622e-18)
(5.94742551510381 0.003911053232422 0)
(6.0670813368563 0.00391105323242196 -2.35648747663282e-16)
(6.1867371586088 0.00391105323242195 -2.31026290096562e-16)
(6.30639298036129 0.00391105323242212 0)
(6.42604880211378 0.00391105323242212 0)
(6.54570462386627 0.0039110532324219 0)
(6.66536044561877 0.0039110532324219 -1.50828359893809e-18)
(6.78501626737126 0.0039110532324219 0)
(6.90467208912376 0.0039110532324219 -3.11294072435614e-18)
(7.02432791087625 0.00391105323242182 6.22588144871307e-18)
(7.14398373262874 0.00391105323242192 -9.63735264799723e-20)
(7.26363955438124 0.0039110532324219 0)
(7.38329537613374 0.0039110532324219 -1.60465712541822e-18)
(7.50295119788622 0.00391105323242206 0)
(7.62260701963872 0.00391105323242206 0)
(7.74226284139121 0.00391105323242204 -9.63735264799771e-20)
(7.86191866314371 0.00391105323242198 3.11294072435644e-18)
(7.9815744848962 0.00391105323242212 0)
(8.10123030664869 0.00391105323242185 1.50828359893819e-18)
(8.22088612840119 0.0039110532324219 0)
(8.34054195015368 0.00391105323242195 -6.12950792223282e-18)
(8.46019777190617 0.0039110532324219 2.29519239741036e-16)
(8.57985359365867 0.003911053232422 4.65993032987381e-16)
(8.69950941541116 0.00391105323242185 2.31011609227831e-16)
(8.81916523716366 0.00391105323242201 6.2258814487125e-18)
(8.93882105891615 0.00391105323242196 -7.73416504765069e-18)
(9.05847688066864 0.00391105323242205 9.6373526479975e-20)
(9.17813270242113 0.00391105323242198 0)
(9.29778852417363 0.00391105323242199 2.32632180465401e-16)
(9.41744434592612 0.00391105323242201 2.3372343613497e-16)
(9.53710016767861 0.00391105323242201 -3.11294072435628e-18)
(9.65675598943111 0.00391105323242184 0)
(9.77641181118361 0.00391105323242191 0)
(9.89606763293609 0.00391105323242195 -6.12950792223279e-18)
(10.0157234546886 0.00391105323242187 -4.71759784977335e-18)
(10.1353792764411 0.00391105323242225 -3.11294072435644e-18)
(10.2550350981936 0.00391105323242168 1.50828359893891e-18)
(10.3746909199461 0.00391105323242173 0)
(10.4943467416986 0.00391105323242229 -3.11294072435645e-18)
(10.6140025634511 0.00391105323242227 0)
(10.7336583852036 0.00391105323242177 0)
(10.8533142069561 0.00391105323242172 0)
(10.9728677450178 0.00391003734910182 0)
(11.0924712414795 0.00566870670111491 0)
(11.2119057391427 0.0128171730559042 0)
(11.3305952808784 0.0271192047457665 7.83563386162891e-18)
(11.4482513783692 0.0483169607323344 5.44292071131472e-16)
(11.5645374104262 0.0760767393167578 5.39145175562335e-16)
(11.6791768914054 0.11001238085391 1.01233049954031e-17)
(11.7919587627522 0.149691076104408 -1.69681001154609e-18)
(11.9028483977126 0.194416865203881 -1.76322109920482e-18)
(12.0120713491376 0.243116150248641 -5.60079849345093e-18)
(12.1199976623283 0.29465304247845 1.90861485182498e-18)
(12.2270340135706 0.348030600807705 -2.08222422033363e-18)
(12.3335916513222 0.402370811841825 1.95846812279868e-19)
(12.4399155145133 0.457166744980092 4.1854657308709e-18)
(12.5459809700784 0.512450497558315 -1.1360351671823e-17)
(12.6516486712234 0.568478134580683 0)
(12.7567762970356 0.625497860568573 2.55235980596739e-18)
(12.861239537251 0.683712695741789 -7.86629707179553e-18)
(12.9652513223487 0.742749201619244 2.92565189754292e-18)
(13.0696157317492 0.801194469319901 0)
(13.1754224793668 0.857005472349091 8.94944570442622e-18)
(13.2837868569647 0.907648716366673 0)
(13.3957337111158 0.949625789577646 0)
(13.5115454655324 0.979026757844972 0)
(13.6300183449715 0.995078938831651 6.2123552160353e-18)
(13.7495122700321 1.00099931821338 -1.60378828386705e-18)
(13.8691720891238 1.00195552661621 0)
(0.0598207661189104 1.00593829150435 -9.63787341915215e-20)
(0.179466359586427 1.0049764458981 0)
(0.298945475427118 0.999052225621329 -1.64399468124494e-18)
(0.417403136878522 0.983020758270468 -1.45134914549586e-18)
(0.533203734364573 0.953688323391833 -1.4576359320104e-18)
(0.645153154515778 0.911840179662589 -5.61416324711034e-18)
(0.753537670307986 0.861374999079727 0)
(0.859378267409451 0.805773298020744 -5.69056171170914e-18)
(0.963786062279471 0.747555763297223 0)
(1.06784633570236 0.688755913397459 0)
(1.17235815055247 0.630777575449291 4.73210494488783e-18)
(1.27753155363401 0.573989333362986 0)
(1.38324237715373 0.518188371305673 1.9102219419554e-19)
(1.48934887597609 0.463127415491825 4.13041592218891e-18)
(1.59571232014698 0.408551538692475 0)
(1.70230892011985 0.354430409565845 -3.82513947654894e-19)
(1.80938382106038 0.301270714541176 1.91350878883404e-19)
(1.91734660814054 0.249947683957766 3.53806604356427e-18)
(2.02660193538265 0.201454872656598 0)
(2.13751875286103 0.156923801736232 5.10137952261985e-18)
(2.25032046182162 0.117422941729169 3.16108624207578e-18)
(2.36497169465502 0.083644070290569 -1.92069842510334e-19)
(2.48126233622421 0.0560177712126567 -3.19164595787684e-18)
(2.59891635513779 0.034928645866775 4.80827755568964e-18)
(2.71759830794903 0.0207088121763179 -2.72634795506924e-18)
(2.83704261079716 0.013614226507145 0)
(2.95663242191619 0.0118753543114449 2.26352458627642e-16)
(3.07615020227083 0.0118765830087033 2.22440158983598e-16)
(3.19579173450865 0.0118765830087034 1.64790933812665e-18)
(3.31543326674647 0.0118765830087034 -6.206132831158e-18)
(3.43507479898429 0.0118765830087033 -4.75097575370561e-18)
(3.55471633122211 0.0118765830087033 2.42674527931552e-16)
(3.67435786345993 0.0118765830087033 2.31188936311432e-16)
(3.79399939569775 0.0118765830087033 6.01338057048349e-18)
(3.91364092793557 0.0118765830087033 0)
(4.0332824601734 0.0118765830087033 1.92752260674252e-19)
(4.15292399241122 0.0118765830087033 0)
(4.27256552464904 0.0118765830087035 0)
(4.39220705688686 0.0118765830087035 -2.23179229142647e-16)
(4.51184858912468 0.0118765830087034 -2.29290763138343e-16)
(4.6314901213625 0.0118765830087034 0)
(4.75113165360032 0.0118765830087034 0)
(4.87077318583814 0.0118765830087034 1.4551570774524e-18)
(4.99041471807597 0.0118765830087034 0)
(5.11005625031379 0.0118765830087033 0)
(5.22969778255161 0.0118765830087034 -1.64790933812659e-18)
(5.34933931478943 0.0118765830087034 2.32102923868034e-16)
(5.46898084702725 0.0118765830087032 2.30673958988416e-16)
(5.58862237926506 0.0118765830087033 0)
(5.70826391150289 0.0118765830087032 -7.85404216928443e-18)
(5.82790544374071 0.0118765830087033 0)
(5.94754697597853 0.0118765830087034 0)
(6.06718850821635 0.0118765830087035 2.21724072065191e-16)
(6.18683004045417 0.0118765830087034 2.27875335870861e-16)
(6.30647157269199 0.0118765830087034 1.45515707745239e-18)
(6.42611310492982 0.0118765830087034 1.64790933812664e-18)
(6.54575463716763 0.0118765830087034 3.29581867625332e-18)
(6.66539616940545 0.0118765830087032 -1.92752260674255e-19)
(6.78503770164328 0.0118765830087034 1.64790933812667e-18)
(6.9046792338811 0.0118765830087032 0)
(7.02432076611891 0.0118765830087032 -1.6479093381267e-18)
(7.14396229835673 0.0118765830087033 6.20613283115788e-18)
(7.26360383059455 0.0118765830087032 0)
(7.38324536283238 0.0118765830087034 1.45515707745241e-18)
(7.5028868950702 0.0118765830087034 1.4551570774524e-18)
(7.62252842730802 0.0118765830087034 1.64790933812665e-18)
(7.74216995954584 0.0118765830087034 0)
(7.86181149178366 0.0118765830087036 1.64790933812665e-18)
(7.98145302402148 0.0118765830087034 0)
(8.10109455625931 0.0118765830087034 -4.75097575370576e-18)
(8.22073608849712 0.0118765830087033 0)
(8.34037762073494 0.0118765830087033 0)
(8.46001915297277 0.0118765830087033 -2.24634386220103e-16)
(8.57966068521059 0.0118765830087032 -4.53567204480498e-16)
(8.69930221744841 0.0118765830087033 -2.24370600167851e-16)
(8.81894374968623 0.0118765830087032 0)
(8.93858528192405 0.0118765830087035 -1.92752260674248e-19)
(9.05822681416187 0.0118765830087034 6.01338057048384e-18)
(9.17786834639969 0.0118765830087034 1.64790933812658e-18)
(9.29750987863751 0.0118765830087033 -2.23179229142662e-16)
(9.41715141087533 0.0118765830087034 -2.25999096359755e-16)
(9.53679294311315 0.0118765830087035 0)
(9.65643447535097 0.0118765830087034 -6.20613283115767e-18)
(9.77607600758879 0.0118765830087033 0)
(9.89571753982661 0.0118765830087033 -6.01338057048369e-18)
(10.0153590720644 0.0118765830087031 0)
(10.1350006043023 0.0118765830087033 0)
(10.2546421365401 0.0118765830087038 1.64790933812701e-18)
(10.3742836687779 0.0118765830087033 1.64790933812644e-18)
(10.4939252010157 0.0118765830087033 -3.29581867625291e-18)
(10.6135667332536 0.0118765830087033 -1.64790933812646e-18)
(10.7332082654914 0.0118765830087033 -1.64790933812645e-18)
(10.8528497977292 0.0118765830087038 0)
(10.9723894544657 0.0118755715141809 -1.92751928788508e-19)
(11.0919788021028 0.013627221802968 0)
(11.2113997521196 0.0207471614657536 -1.65245145594123e-18)
(11.3300787208952 0.0349921196308433 -2.94916395112356e-18)
(11.447728371619 0.0561052849330888 -5.19917075007569e-16)
(11.5640134263374 0.0837542879433372 -5.26732462185208e-16)
(11.6786585023826 0.117554510783905 0)
(11.7914533834451 0.157074872218722 1.93739299536218e-19)
(11.9023635905023 0.201622189311058 0)
(12.0116137830649 0.250127146817326 0)
(12.1195725279571 0.301458387414715 -7.36324002753609e-18)
(12.2266448776655 0.3546229469867 -8.04371410876733e-18)
(12.3332404387649 0.408746314925703 5.76749916623256e-18)
(12.4396031585691 0.463323586099562 -6.39089907072637e-18)
(12.5457084906455 0.518386732370237 1.95888229095831e-18)
(12.6514176426681 0.574190797634501 2.05825672731928e-18)
(12.7565888601392 0.630982996929374 0)
(12.8610983288466 0.68896554114727 2.69163157557366e-18)
(12.9651581618545 0.747766471401648 5.45683077930056e-18)
(13.06956926614 0.805978503488294 5.69590392635635e-18)
(13.1754170267926 0.861566762679389 -1.8123810016373e-18)
(13.2838123249468 0.91200787125048 1.47078196353493e-17)
(13.3957759805088 0.953817395243152 3.88533921975972e-19)
(13.5115892914994 0.983101021982452 -6.38636732445982e-18)
(13.6300530578464 0.999089144848813 7.64468111251478e-18)
(13.7495336463846 1.004985898914 -4.55555253017395e-18)
(13.8691792338811 1.00593829150435 6.01338057047716e-18)
(0.0598133596283852 1.01006695662459 -1.50028692908496e-18)
(0.179444200893495 1.00910910587772 0)
(0.298909498438163 1.00320949047684 0)
(0.417357738812302 0.98724460798721 4.00853046794208e-18)
(0.533160002399329 0.958034016032131 -6.0064031692608e-18)
(0.645126897800167 0.916359719632 -4.19882029405756e-18)
(0.753543511099657 0.866104179037002 -8.61081966531882e-18)
(0.859426653077371 0.810733437185237 0)
(0.963882866910807 0.752757704945891 -2.34590561201182e-18)
(1.06799294639008 0.694202056071053 -1.20355320601884e-17)
(1.17255267350363 0.636464501263983 4.37246259554677e-18)
(1.27777125611551 0.579912104524841 -4.34425740327657e-18)
(1.38352504209072 0.524342891509464 0)
(1.48967287341916 0.469510614420416 1.91111263257475e-19)
(1.59607659466103 0.415161404064393 -3.8325825559815e-18)
(1.70271250286992 0.361265052355962 -5.34524817095957e-18)
(1.80982471036038 0.308326138672395 -1.96648988581615e-18)
(1.91782110036002 0.25721625926481 2.0891778762059e-18)
(2.02710464527134 0.208924843843943 8.20115255656171e-18)
(2.13804276094574 0.164578715380887 1.57863472020254e-18)
(2.25085792782163 0.12524190838603 -4.76602197467429e-18)
(2.36551493510861 0.0916033276888269 7.78832494761987e-18)
(2.4818045403198 0.0640917678647391 -3.08591956247269e-18)
(2.59945185814801 0.0430902321141457 0)
(2.71812283827752 0.0289294583400042 0)
(2.83755300020741 0.0218643389838176 0)
(2.95712814277553 0.0201326900933959 0)
(3.07663162415495 0.0201339132491666 0)
(3.19625834341172 0.0201339132491667 0)
(3.31588506266849 0.0201339132491667 -1.59666045557109e-18)
(3.43551178192526 0.0201339132491668 0)
(3.55513850118203 0.0201339132491668 0)
(3.67476522043881 0.0201339132491668 -1.92752452119261e-19)
(3.79439193969558 0.0201339132491667 4.78998136671325e-18)
(3.91401865895235 0.0201339132491667 -4.40447646247471e-18)
(4.03364537820912 0.0201339132491667 0)
(4.15327209746589 0.0201339132491668 5.80838446592663e-18)
(4.27289881672266 0.0201339132491668 -2.80781600690386e-18)
(4.39252553597943 0.0201339132491669 -1.21115555133261e-18)
(4.5121522552362 0.0201339132491668 -3.19332091114221e-18)
(4.63177897449298 0.0201339132491667 1.92752452119261e-19)
(4.75140569374975 0.0201339132491667 -1.92752452119258e-19)
(4.87103241300652 0.0201339132491667 0)
(4.99065913226329 0.0201339132491667 -1.4039080034518e-18)
(5.11028585152006 0.0201339132491666 -1.59666045557107e-18)
(5.22991257077683 0.0201339132491667 0)
(5.3495392900336 0.0201339132491668 0)
(5.46916600929037 0.0201339132491668 0)
(5.58879272854714 0.0201339132491667 0)
(5.70841944780391 0.0201339132491667 0)
(5.82804616706068 0.0201339132491667 -3.0005684590229e-18)
(5.94767288631745 0.0201339132491668 0)
(6.06729960557423 0.0201339132491669 1.78941290769039e-18)
(6.186926324831 0.0201339132491668 0)
(6.30655304408777 0.0201339132491667 4.40447646247489e-18)
(6.42617976334453 0.0201339132491667 -3.0005684590229e-18)
(6.54580648260131 0.0201339132491667 0)
(6.66543320185808 0.0201339132491667 -3.00056845902292e-18)
(6.78505992111485 0.0201339132491667 4.59722891459397e-18)
(6.90468664037162 0.0201339132491667 -3.00056845902289e-18)
(7.02431335962839 0.0201339132491667 -3.19332091114239e-18)
(7.14394007888516 0.0201339132491667 -3.0005684590229e-18)
(7.26356679814193 0.0201339132491667 3.0005684590229e-18)
(7.3831935173987 0.0201339132491667 -3.0005684590229e-18)
(7.50282023665547 0.0201339132491667 0)
(7.62244695591224 0.0201339132491667 0)
(7.74207367516901 0.0201339132491668 0)
(7.86170039442578 0.0201339132491669 4.4044764624749e-18)
(7.98132711368256 0.0201339132491668 0)
(8.10095383293933 0.0201339132491667 0)
(8.2205805521961 0.0201339132491667 0)
(8.34020727145287 0.0201339132491667 0)
(8.45983399070964 0.0201339132491667 1.92752452119261e-19)
(8.57946070996641 0.0201339132491667 -3.0005684590229e-18)
(8.69908742922318 0.0201339132491667 0)
(8.81871414847995 0.0201339132491667 0)
(8.93834086773672 0.0201339132491667 0)
(9.0579675869935 0.0201339132491667 0)
(9.17759430625027 0.0201339132491666 -3.00056845902291e-18)
(9.29722102550704 0.0201339132491668 0)
(9.41684774476381 0.0201339132491668 -3.19332091114221e-18)
(9.53647446402058 0.0201339132491669 3.19332091114228e-18)
(9.65610118327735 0.0201339132491669 -3.19332091114227e-18)
(9.77572790253412 0.0201339132491668 1.78941290769036e-18)
(9.89535462179089 0.0201339132491667 0)
(10.0149813410477 0.0201339132491671 0)
(10.1346080603044 0.0201339132491664 0)
(10.2542347795612 0.020133913249167 0)
(10.373861498818 0.0201339132491664 -1.92752452119285e-19)
(10.4934882180748 0.020133913249167 0)
(10.6131149373315 0.0201339132491664 -2.80781600690409e-18)
(10.7327416565883 0.020133913249167 0)
(10.8523683758451 0.0201339132491664 8.80895292495083e-18)
(10.9718936427424 0.0201329063164121 0)
(11.0914683232444 0.0218772803807962 1.59388420260978e-18)
(11.2108752293244 0.0289676483505052 0)
(11.3295432378198 0.0431534422510952 0)
(11.4471862056093 0.0641789181163415 0)
(11.5634702471821 0.0917130875828944 1.93429664384668e-19)
(11.6781211232526 0.125372931009447 4.57462385773979e-18)
(11.790929490611 0.164729158452836 0)
(11.9018610233791 0.20909146561519 1.64046095800667e-18)
(12.011139455002 0.257394976796241 1.94015742013548e-19)
(12.1191318196657 0.308513032118515 0)
(12.2262414865713 0.361456790133065 3.88573649022878e-18)
(12.3328763602635 0.415355371347342 1.1887912169022e-17)
(12.4392793601144 0.46970597029349 -6.36468646262552e-18)
(12.5454260294974 0.524540428752088 0)
(12.651178150867 0.580112732099347 0)
(12.7563945568895 0.636669069629826 -9.32289861490948e-18)
(12.860951947576 0.694410813248992 7.41760226001181e-18)
(12.965061588629 0.752967537934532 3.89912927621509e-19)
(13.0695210983643 0.8109377903125 -2.84713929644658e-18)
(13.175411374475 0.866295146057272 0)
(13.2838387258949 0.916526714594245 -1.78908068857304e-18)
(13.3958197983535 0.958162551700505 -6.01243218824328e-18)
(13.5116347229396 0.987324538322095 4.58767192951222e-18)
(13.6300890423549 1.00324625636895 0)
(13.7495558058149 1.00911851963245 -4.40189682654851e-18)
(13.8691866403716 1.01006695662459 0)
(0.0598056818166332 1.01434686672149 2.7089400650977e-18)
(0.179421230463332 1.01339315717888 1.92672228346559e-19)
(0.298872203507616 1.00751904802485 5.40464705195432e-18)
(0.417310677682221 0.991623189662394 -2.89322802367035e-18)
(0.533114668404121 0.962538904121264 -8.32825805205793e-18)
(0.645099679225107 0.921044823424876 0)
(0.753549565856132 0.871006602302263 1.90537495984946e-19)
(0.859476811248505 0.81587528020865 -7.86125981854664e-18)
(0.963983217768609 0.758150208377253 0)
(1.0681449278447 0.699847706456198 0)
(1.17275432239031 0.642359755537724 -2.39095970877428e-18)
(1.27801973959367 0.586051843961154 -1.08552026733112e-17)
(1.38381806186742 0.530722869709586 1.91022302695131e-19)
(1.4900087398349 0.476127648569653 0)
(1.5964542136167 0.422013408150466 0)
(1.70313087003934 0.368350068149566 1.91256949829454e-19)
(1.81028175073015 0.315640023708356 5.5188565589296e-18)
(1.91831297462426 0.264751103851188 1.64568161837249e-18)
(2.02762577090079 0.216668462031286 0)
(2.13858596498441 0.172514050977577 1.7145244034375e-18)
(2.25141508277437 0.133347306677455 1.66274901372976e-18)
(2.36607807604524 0.0998541559113425 6.09849969788583e-18)
(2.48236660692906 0.0724615385070105 -3.17615359548449e-18)
(2.60000697818811 0.0515508009594464 0)
(2.71866658367269 0.0374512506064887 2.71694313441265e-18)
(2.83808208666039 0.0304166769816134 -3.08786034987309e-18)
(2.95764202332853 0.0286925160476273 -2.52175936309957e-18)
(3.07713068191883 0.028693733442977 0)
(3.1967420455521 0.0286937334429769 -3.0944453663526e-18)
(3.31635340918537 0.028693733442977 0)
(3.43596477281864 0.028693733442977 2.90169271572511e-18)
(3.5555761364519 0.028693733442977 -2.70894006509761e-18)
(3.67518750008517 0.028693733442977 2.90169271572511e-18)
(3.79479886371844 0.0286937334429769 0)
(3.91441022735171 0.028693733442977 0)
(4.03402159098498 0.0286937334429769 -1.92752650627519e-19)
(4.15363295461824 0.0286937334429769 -1.92752650627517e-19)
(4.27324431825151 0.028693733442977 0)
(4.39285568188477 0.0286937334429769 0)
(4.51246704551804 0.0286937334429769 -1.92752650627516e-19)
(4.63207840915131 0.0286937334429769 0)
(4.75168977278457 0.0286937334429769 0)
(4.87130113641784 0.028693733442977 -1.9275265062751e-19)
(4.99091250005111 0.0286937334429769 8.51232549654771e-18)
(5.11052386368437 0.0286937334429769 0)
(5.23013522731764 0.0286937334429768 2.70894006509755e-18)
(5.34974659095091 0.0286937334429769 0)
(5.46935795458417 0.0286937334429769 -1.92752650627518e-19)
(5.58896931821744 0.028693733442977 -1.92752650627515e-19)
(5.7085806818507 0.0286937334429769 3.28719801698012e-18)
(5.82819204548397 0.0286937334429769 -3.09444536635258e-18)
(5.94780340911724 0.028693733442977 -2.81505805250569e-16)
(6.06741477275051 0.028693733442977 -2.82534705659937e-16)
(6.18702613638377 0.0286937334429769 3.28719801698011e-18)
(6.30663750001704 0.028693733442977 2.70894006509768e-18)
(6.4262488636503 0.0286937334429769 0)
(6.54586022728357 0.0286937334429769 3.28719801698011e-18)
(6.66547159091684 0.0286937334429769 1.92752650627518e-19)
(6.7850829545501 0.0286937334429769 -3.09444536635258e-18)
(6.90469431818337 0.0286937334429769 -2.70894006509748e-18)
(7.02430568181664 0.0286937334429769 -1.92752650627517e-19)
(7.1439170454499 0.028693733442977 -5.80338543144991e-18)
(7.26352840908317 0.0286937334429769 5.99613808207772e-18)
(7.38313977271644 0.0286937334429769 -1.9275265062752e-19)
(7.5027511363497 0.028693733442977 1.92752650627516e-19)
(7.62236249998297 0.0286937334429769 0)
(7.74197386361623 0.0286937334429769 -1.9275265062752e-19)
(7.8615852272495 0.028693733442977 2.86730932730145e-16)
(7.98119659088277 0.028693733442977 2.85243645725028e-16)
(8.10080795451604 0.0286937334429769 3.0944453663526e-18)
(8.22041931814931 0.0286937334429769 2.90169271572508e-18)
(8.34003068178257 0.0286937334429769 5.80338543145046e-18)
(8.45964204541584 0.0286937334429769 -1.92752650627522e-19)
(8.5792534090491 0.0286937334429769 -1.9275265062752e-19)
(8.69886477268237 0.0286937334429769 0)
(8.81847613631564 0.0286937334429769 0)
(8.9380874999489 0.028693733442977 -2.70894006509744e-18)
(9.05769886358217 0.0286937334429769 0)
(9.17731022721544 0.0286937334429769 0)
(9.2969215908487 0.0286937334429769 2.70894006509756e-18)
(9.41653295448197 0.0286937334429769 -5.80338543145014e-18)
(9.53614431811524 0.0286937334429769 -1.92752650627519e-19)
(9.6557556817485 0.0286937334429769 3.09444536635263e-18)
(9.77536704538177 0.0286937334429769 0)
(9.89497840901503 0.028693733442977 1.92752650627516e-19)
(10.0145897726483 0.0286937334429765 0)
(10.1342011362816 0.0286937334429772 0)
(10.2538124999148 0.0286937334429766 2.51618741446945e-18)
(10.3734238635481 0.0286937334429772 0)
(10.4930352271814 0.0286937334429766 0)
(10.6126465908146 0.0286937334429772 2.90169271572559e-18)
(10.7322579544479 0.0286937334429766 2.70894006509703e-18)
(10.8518693180812 0.0286937334429772 0)
(10.971379667997 0.028692731252212 -2.71352509041979e-18)
(11.0909391440663 0.0304295625080168 -1.92826343413458e-19)
(11.2103314917384 0.0374892755032697 2.71700973012652e-18)
(11.3289881384448 0.0516137378120155 -1.93128728678917e-19)
(11.4466241784811 0.0725483119750992 0)
(11.5629071697894 0.0999634412779509 8.95923719505939e-18)
(11.6775640583521 0.133477762852409 6.27117227642953e-18)
(11.7903864060449 0.172663843655301 -3.23971015723291e-18)
(11.9013400457451 0.216834363463768 -1.93886516938407e-19)
(12.010647750908 0.26492904875092 3.87388384369429e-18)
(12.1186749669352 0.315826109174156 -1.94125477214308e-19)
(12.2258233180788 0.368540976989489 -1.94216475769307e-19)
(12.3324989445012 0.422206536848871 -5.73933067030516e-18)
(12.4389436999767 0.476322159861834 -3.88717961749673e-19)
(12.5451332209748 0.530919552950919 2.19709274662372e-18)
(12.6509298857872 0.586251604187701 0)
(12.7561931357527 0.642563439536784 4.59586544646414e-18)
(12.8608002039426 0.700055561169978 0)
(12.9649614776536 0.758359134191554 -5.84864328395596e-19)
(13.0694711660677 0.81607874977237 1.04242249268774e-17)
(13.175405515097 0.87119674356283 5.48613521293137e-18)
(13.2838660939861 0.92121109624281 -2.89445411621712e-18)
(13.3958652213742 0.962666883964961 -1.94266373910643e-19)
(13.5116818186663 0.991702774407313 5.40277394954381e-18)
(13.6301263450805 1.00755565496432 -2.89551471948412e-18)
(13.7495787770094 1.01340253023417 1.12145684497225e-17)
(13.8691943181834 1.01434686672149 2.90169271572571e-18)
(0.0597977227443788 1.01878356233268 -2.70993765980672e-18)
(0.179397418559721 1.01783414570035 -5.60911680043324e-18)
(0.298833542355371 1.01198647718566 -1.92338588032076e-19)
(0.417261892565476 0.996162171578825 -5.40393650113322e-18)
(0.53306767369189 0.967208819454821 -2.80744780837323e-18)
(0.645071463554942 0.925901556117045 -5.20704693874949e-18)
(0.753555842415533 0.876088615255632 0)
(0.859528806854424 0.821205483394148 0)
(0.964087244760749 0.763740254385509 -4.71629248310942e-18)
(1.06830247681225 0.70570017307214 4.47614660872922e-18)
(1.17296335825568 0.648470969930947 0)
(1.27827732574158 0.592416499842135 0)
(1.38412181581163 0.537336565085164 3.861936001557e-18)
(1.49035691001833 0.48298708400485 0)
(1.59684566585989 0.429116421200084 0)
(1.70356456322484 0.375694628844672 0)
(1.81075553383092 0.323221837833148 3.30238760309047e-18)
(1.91882286768885 0.272561971946305 -1.97018551609183e-18)
(2.02816598689392 0.224695751715539 -3.24361884602979e-18)
(2.13914906818133 0.180740081207196 -3.12952236991088e-18)
(2.25199264794378 0.141749629432159 4.2566199980859e-18)
(2.36666184647745 0.10840723604509 -2.94844841655534e-18)
(2.48294926367326 0.0811379181955458 -2.88554351151849e-18)
(2.6005824338863 0.0603213049952655 0)
(2.71923024803756 0.0462852208214074 0)
(2.83863055508232 0.0392823118869895 1.92680854943257e-19)
(2.95817472881694 0.0375659132585867 1.9275251622066e-19)
(3.07764802161538 0.0375671246653599 0)
(3.19724346710414 0.03756712466536 0)
(3.3168389125929 0.03756712466536 0)
(3.43643435808166 0.03756712466536 -1.92752856461522e-19)
(3.55602980357041 0.0375671246653599 5.41986951613005e-18)
(3.67562524905917 0.0375671246653599 -5.41986951612989e-18)
(3.79522069454792 0.0375671246653599 -5.41986951612987e-18)
(3.91481614003668 0.0375671246653599 2.61355832983404e-18)
(4.03441158552544 0.03756712466536 0)
(4.1540070310142 0.03756712466536 -2.80631118629565e-18)
(4.27360247650296 0.0375671246653599 2.80631118629567e-18)
(4.39319792199172 0.0375671246653599 5.41986951612978e-18)
(4.51279336748047 0.0375671246653599 5.4198695161298e-18)
(4.63238881296923 0.0375671246653599 0)
(4.75198425845799 0.0375671246653599 5.61262237259131e-18)
(4.87157970394675 0.0375671246653599 -5.61262237259109e-18)
(4.99117514943551 0.0375671246653599 1.92752856461529e-19)
(5.11077059492426 0.0375671246653599 0)
(5.23036604041302 0.0375671246653599 0)
(5.34996148590178 0.0375671246653599 5.61262237259131e-18)
(5.46955693139054 0.0375671246653599 0)
(5.58915237687929 0.0375671246653599 -1.92752856461523e-19)
(5.70874782236805 0.03756712466536 0)
(5.82834326785681 0.03756712466536 1.92752856461525e-19)
(5.94793871334557 0.0375671246653599 2.74100311045073e-16)
(6.06753415883433 0.0375671246653598 2.75221468769209e-16)
(6.18712960432308 0.0375671246653599 0)
(6.30672504981184 0.0375671246653599 0)
(6.4263204953006 0.0375671246653599 0)
(6.54591594078935 0.0375671246653599 0)
(6.66551138627811 0.0375671246653599 0)
(6.78510683176687 0.0375671246653599 0)
(6.90470227725563 0.0375671246653598 -2.61355832983405e-18)
(7.02429772274438 0.0375671246653598 -1.92752856461522e-19)
(7.14389316823314 0.0375671246653598 -1.92752856461529e-19)
(7.2634886137219 0.0375671246653599 2.80631118629568e-18)
(7.38308405921066 0.0375671246653599 0)
(7.50267950469941 0.0375671246653599 0)
(7.62227495018817 0.0375671246653599 2.80631118629567e-18)
(7.74187039567693 0.0375671246653599 5.4198695161299e-18)
(7.86146584116569 0.0375671246653599 -2.7129399985879e-16)
(7.98106128665445 0.0375671246653599 -2.74835963056268e-16)
(8.10065673214321 0.0375671246653599 2.99906404275731e-18)
(8.22025217763196 0.0375671246653599 0)
(8.33984762312072 0.0375671246653599 0)
(8.45944306860947 0.0375671246653599 -5.22711665966837e-18)
(8.57903851409823 0.0375671246653598 1.92752856461523e-19)
(8.69863395958699 0.0375671246653599 1.92752856461522e-19)
(8.81822940507575 0.0375671246653599 -1.92752856461522e-19)
(8.93782485056451 0.0375671246653599 0)
(9.05742029605327 0.0375671246653599 0)