/*--------------------------------*- C++ -*----------------------------------*\
  =========                 |
  \\      /  F ield         | OpenFOAM: The Open Source CFD Toolbox
   \\    /   O peration     | Website:  https://openfoam.org
    \\  /    A nd           | Version:  7
     \\/     M anipulation  |
\*---------------------------------------------------------------------------*/
FoamFile
{
    version     2.0;
    format      ascii;
    class       volScalarField;
    location    "20000";
    object      Cx;
}
// * * * * * * * * * * * * * * * * * * * * * * * * * * * * * * * * * * * * * //

dimensions      [0 1 0 0 0 0 0];

internalField   nonuniform List<scalar> 
15600
(
0.0598279108762468
0.179487735227664
0.298980181048245
0.417446930650885
0.533245920912999
0.645178483362424
0.753532035919987
0.859331591607705
0.963692678557386
1.06770490598813
1.17217050171847
1.27730032184346
1.38296970113352
1.48903632807559
1.59536091850361
1.70191959933163
1.80895851207726
1.91688888371218
2.02611699045191
2.13701326237616
2.24980198899869
2.364447651434
2.48073929273392
2.59839977592429
2.71709231365893
2.83655025770752
2.95615421901722
3.07568579304396
3.19534161479645
3.31499743654895
3.43465325830144
3.55430908005393
3.67396490180643
3.79362072355892
3.91327654531142
4.03293236706391
4.15258818881641
4.2722440105689
4.39189983232139
4.51155565407389
4.63121147582638
4.75086729757887
4.87052311933137
4.99017894108386
5.10983476283636
5.22949058458885
5.34914640634134
5.46880222809384
5.58845804984633
5.70811387159882
5.82776969335132
5.94742551510381
6.0670813368563
6.1867371586088
6.30639298036129
6.42604880211378
6.54570462386627
6.66536044561877
6.78501626737126
6.90467208912376
7.02432791087625
7.14398373262874
7.26363955438124
7.38329537613374
7.50295119788622
7.62260701963872
7.74226284139121
7.86191866314371
7.9815744848962
8.10123030664869
8.22088612840119
8.34054195015368
8.46019777190617
8.57985359365867
8.69950941541116
8.81916523716366
8.93882105891615
9.05847688066864
9.17813270242113
9.29778852417363
9.41744434592612
9.53710016767861
9.65675598943111
9.77641181118361
9.89606763293609
10.0157234546886
10.1353792764411
10.2550350981936
10.3746909199461
10.4943467416986
10.6140025634511
10.7336583852036
10.8533142069561
10.9728677450178
11.0924712414795
11.2119057391427
11.3305952808784
11.4482513783692
11.5645374104262
11.6791768914054
11.7919587627522
11.9028483977126
12.0120713491376
12.1199976623283
12.2270340135706
12.3335916513222
12.4399155145133
12.5459809700784
12.6516486712234
12.7567762970356
12.861239537251
12.9652513223487
13.0696157317492
13.1754224793668
13.2837868569647
13.3957337111158
13.5115454655324
13.6300183449715
13.7495122700321
13.8691720891238
0.0598207661189104
0.179466359586427
0.298945475427118
0.417403136878522
0.533203734364573
0.645153154515778
0.753537670307986
0.859378267409451
0.963786062279471
1.06784633570236
1.17235815055247
1.27753155363401
1.38324237715373
1.48934887597609
1.59571232014698
1.70230892011985
1.80938382106038
1.91734660814054
2.02660193538265
2.13751875286103
2.25032046182162
2.36497169465502
2.48126233622421
2.59891635513779
2.71759830794903
2.83704261079716
2.95663242191619
3.07615020227083
3.19579173450865
3.31543326674647
3.43507479898429
3.55471633122211
3.67435786345993
3.79399939569775
3.91364092793557
4.0332824601734
4.15292399241122
4.27256552464904
4.39220705688686
4.51184858912468
4.6314901213625
4.75113165360032
4.87077318583814
4.99041471807597
5.11005625031379
5.22969778255161
5.34933931478943
5.46898084702725
5.58862237926506
5.70826391150289
5.82790544374071
5.94754697597853
6.06718850821635
6.18683004045417
6.30647157269199
6.42611310492982
6.54575463716763
6.66539616940545
6.78503770164328
6.9046792338811
7.02432076611891
7.14396229835673
7.26360383059455
7.38324536283238
7.5028868950702
7.62252842730802
7.74216995954584
7.86181149178366
7.98145302402148
8.10109455625931
8.22073608849712
8.34037762073494
8.46001915297277
8.57966068521059
8.69930221744841
8.81894374968623
8.93858528192405
9.05822681416187
9.17786834639969
9.29750987863751
9.41715141087533
9.53679294311315
9.65643447535097
9.77607600758879
9.89571753982661
10.0153590720644
10.1350006043023
10.2546421365401
10.3742836687779
10.4939252010157
10.6135667332536
10.7332082654914
10.8528497977292
10.9723894544657
11.0919788021028
11.2113997521196
11.3300787208952
11.447728371619
11.5640134263374
11.6786585023826
11.7914533834451
11.9023635905023
12.0116137830649
12.1195725279571
12.2266448776655
12.3332404387649
12.4396031585691
12.5457084906455
12.6514176426681
12.7565888601392
12.8610983288466
12.9651581618545
13.06956926614
13.1754170267926
13.2838123249468
13.3957759805088
13.5115892914994
13.6300530578464
13.7495336463846
13.8691792338811
0.0598133596283852
0.179444200893495
0.298909498438163
0.417357738812302
0.533160002399329
0.645126897800167
0.753543511099657
0.859426653077371
0.963882866910807
1.06799294639008
1.17255267350363
1.27777125611551
1.38352504209072
1.48967287341916
1.59607659466103
1.70271250286992
1.80982471036038
1.91782110036002
2.02710464527134
2.13804276094574
2.25085792782163
2.36551493510861
2.4818045403198
2.59945185814801
2.71812283827752
2.83755300020741
2.95712814277553
3.07663162415495
3.19625834341172
3.31588506266849
3.43551178192526
3.55513850118203
3.67476522043881
3.79439193969558
3.91401865895235
4.03364537820912
4.15327209746589
4.27289881672266
4.39252553597943
4.5121522552362
4.63177897449298
4.75140569374975
4.87103241300652
4.99065913226329
5.11028585152006
5.22991257077683
5.3495392900336
5.46916600929037
5.58879272854714
5.70841944780391
5.82804616706068
5.94767288631745
6.06729960557423
6.186926324831
6.30655304408777
6.42617976334453
6.54580648260131
6.66543320185808
6.78505992111485
6.90468664037162
7.02431335962839
7.14394007888516
7.26356679814193
7.3831935173987
7.50282023665547
7.62244695591224
7.74207367516901
7.86170039442578
7.98132711368256
8.10095383293933
8.2205805521961
8.34020727145287
8.45983399070964
8.57946070996641
8.69908742922318
8.81871414847995
8.93834086773672
9.0579675869935
9.17759430625027
9.29722102550704
9.41684774476381
9.53647446402058
9.65610118327735
9.77572790253412
9.89535462179089
10.0149813410477
10.1346080603044
10.2542347795612
10.373861498818
10.4934882180748
10.6131149373315
10.7327416565883
10.8523683758451
10.9718936427424
11.0914683232444
11.2108752293244
11.3295432378198
11.4471862056093
11.5634702471821
11.6781211232526
11.790929490611
11.9018610233791
12.011139455002
12.1191318196657
12.2262414865713
12.3328763602635
12.4392793601144
12.5454260294974
12.651178150867
12.7563945568895
12.860951947576
12.965061588629
13.0695210983643
13.175411374475
13.2838387258949
13.3958197983535
13.5116347229396
13.6300890423549
13.7495558058149
13.8691866403716
0.0598056818166332
0.179421230463332
0.298872203507616
0.417310677682221
0.533114668404121
0.645099679225107
0.753549565856132
0.859476811248505
0.963983217768609
1.0681449278447
1.17275432239031
1.27801973959367
1.38381806186742
1.4900087398349
1.5964542136167
1.70313087003934
1.81028175073015
1.91831297462426
2.02762577090079
2.13858596498441
2.25141508277437
2.36607807604524
2.48236660692906
2.60000697818811
2.71866658367269
2.83808208666039
2.95764202332853
3.07713068191883
3.1967420455521
3.31635340918537
3.43596477281864
3.5555761364519
3.67518750008517
3.79479886371844
3.91441022735171
4.03402159098498
4.15363295461824
4.27324431825151
4.39285568188477
4.51246704551804
4.63207840915131
4.75168977278457
4.87130113641784
4.99091250005111
5.11052386368437
5.23013522731764
5.34974659095091
5.46935795458417
5.58896931821744
5.7085806818507
5.82819204548397
5.94780340911724
6.06741477275051
6.18702613638377
6.30663750001704
6.4262488636503
6.54586022728357
6.66547159091684
6.7850829545501
6.90469431818337
7.02430568181664
7.1439170454499
7.26352840908317
7.38313977271644
7.5027511363497
7.62236249998297
7.74197386361623
7.8615852272495
7.98119659088277
8.10080795451604
8.22041931814931
8.34003068178257
8.45964204541584
8.5792534090491
8.69886477268237
8.81847613631564
8.9380874999489
9.05769886358217
9.17731022721544
9.2969215908487
9.41653295448197
9.53614431811524
9.6557556817485
9.77536704538177
9.89497840901503
10.0145897726483
10.1342011362816
10.2538124999148
10.3734238635481
10.4930352271814
10.6126465908146
10.7322579544479
10.8518693180812
10.971379667997
11.0909391440663
11.2103314917384
11.3289881384448
11.4466241784811
11.5629071697894
11.6775640583521
11.7903864060449
11.9013400457451
12.010647750908
12.1186749669352
12.2258233180788
12.3324989445012
12.4389436999767
12.5451332209748
12.6509298857872
12.7561931357527
12.8608002039426
12.9649614776536
13.0694711660677
13.175405515097
13.2838660939861
13.3958652213742
13.5116818186663
13.6301263450805
13.7495787770094
13.8691943181834
0.0597977227443788
0.179397418559721
0.298833542355371
0.417261892565476
0.53306767369189
0.645071463554942
0.753555842415533
0.859528806854424
0.964087244760749
1.06830247681225
1.17296335825568
1.27827732574158
1.38412181581163
1.49035691001833
1.59684566585989
1.70356456322484
1.81075553383092
1.91882286768885
2.02816598689392
2.13914906818133
2.25199264794378
2.36666184647745
2.48294926367326
2.6005824338863
2.71923024803756
2.83863055508232
2.95817472881694
3.07764802161538
3.19724346710414
3.3168389125929
3.43643435808166
3.55602980357041
3.67562524905917
3.79522069454792
3.91481614003668
4.03441158552544
4.1540070310142
4.27360247650296
4.39319792199172
4.51279336748047
4.63238881296923
4.75198425845799
4.87157970394675
4.99117514943551
5.11077059492426
5.23036604041302
5.34996148590178
5.46955693139054
5.58915237687929
5.70874782236805
5.82834326785681
5.94793871334557
6.06753415883433
6.18712960432308
6.30672504981184
6.4263204953006
6.54591594078935
6.66551138627811
6.78510683176687
6.90470227725563
7.02429772274438
7.14389316823314
7.2634886137219
7.38308405921066
7.50267950469941
7.62227495018817
7.74187039567693
7.86146584116569
7.98106128665445
8.10065673214321
8.22025217763196
8.33984762312072
8.45944306860947
8.57903851409823
8.69863395958699
8.81822940507575
8.93782485056451
9.05742029605327
9.17701574154203
9.29661118703078
9.41620663251953
9.53580207800829
9.65539752349705
9.77499296898581
9.89458841447456
10.0141838599633
10.1337793054521
10.2533747509408
10.3729701964296
10.4925656419183
10.6121610874071
10.7317565328958
10.8513519783846
10.9708468648658
11.0903905795223
11.2097678354688
11.3284127041686
11.4460415626643
11.5623234652287
11.6769865865338
11.7898234266971
11.9007999831688
12.0101380342476
12.1182013783476
12.2253898308483
12.3321077028949
12.4385957436277
12.5448296860237
12.6506725260381
12.7559843359802
12.8606429015085
12.9648576993318
13.0694194046105
13.1753994410732
13.2838944646497
13.3959123083731
13.5117306396471
13.6301650143132
13.7496025897054
13.8692022772556
0.059789472108243
0.179372734357052
0.29879346493286
0.41721132030732
0.533018957425718
0.645042214263225
0.753562348903117
0.859582707205311
0.964195082553958
1.06846579724613
1.17318005170561
1.27854434801614
1.38443669714693
1.49071783469233
1.59725145814439
1.70401414386334
1.81124667299827
1.91935143963562
2.02872599258709
2.13973279950116
2.25259137101581
2.36726700212364
2.48355326482853
2.60117897019621
2.71981456106108
2.8391991154902
2.95872694885223
3.07818431296421
3.1977632571807
3.31734220139718
3.43692114561367
3.55650008983015
3.67607903404664
3.79565797826312
3.91523692247961
4.0348158666961
4.15439481091259
4.27397375512907
4.39355269934555
4.51313164356204
4.63271058777853
4.75228953199502
4.8718684762115
4.99144742042799
5.11102636464447
5.23060530886096
5.35018425307744
5.46976319729393
5.58934214151042
5.7089210857269
5.82850002994339
5.94807897415988
6.06765791837636
6.18723686259284
6.30681580680933
6.42639475102582
6.5459736952423
6.66555263945879
6.78513158367528
6.90471052789177
7.02428947210825
7.14386841632473
7.26344736054122
7.3830263047577
7.50260524897419
7.62218419319068
7.74176313740717
7.86134208162365
7.98092102584014
8.10049997005662
8.22007891427311
8.33965785848959
8.45923680270608
8.57881574692257
8.69839469113905
8.81797363535554
8.93755257957203
9.05713152378851
9.176710468005
9.29628941222148
9.41586835643797
9.53544730065445
9.65502624487094
9.77460518908742
9.89418413330391
10.0137630775204
10.1333420217369
10.2529209659534
10.3724999101699
10.4920788543864
10.6116577986028
10.7312367428193
10.8508156870358
10.970294543611
11.0898219194709
11.2091835308371
11.3278161900655
11.4454376039356
11.5617183778672
11.6763879602326
11.7892398237634
11.9002401365126
12.0096096451671
12.117710440819
12.2249404637096
12.3317021289634
12.4382350406216
12.5445150317039
12.6504057384561
12.7557678872719
12.8604798366393
12.9647501193182
13.0693657469859
13.1753931445407
13.2839238746126
13.3959611203068
13.5117812490831
13.6302051001123
13.7496272747294
13.8692105278918
0.0597809192274053
0.179347145900536
0.298751919358011
0.417158895439606
0.532968456540036
0.645011893485457
0.753569093741772
0.859638582077103
0.964306870748145
1.06863510057101
1.17340468325903
1.27882115208967
1.38476311350187
1.491091981091
1.59767211578787
1.7044801939589
1.81175580403603
1.91989937472721
2.02930651293542
2.14033791461277
2.25321202706631
2.36789432638632
2.48417939230227
2.6017973593612
2.72042027916277
2.83978850391091
2.95929939830826
3.07874025021866
3.19830208867347
3.31786392712828
3.43742576558309
3.5569876040379
3.67654944249271
3.79611128094752
3.91567311940233
4.03523495785715
4.15479679631196
4.27435863476677
4.39392047322158
4.51348231167639
4.6330441501312
4.75260598858601
4.87216782704082
4.99172966549563
5.11129150395044
5.23085334240525
5.35041518086006
5.46997701931487
5.58953885776968
5.70910069622449
5.8286625346793
5.94822437313412
6.06778621158893
6.18734805004374
6.30690988849855
6.42647172695336
6.54603356540817
6.66559540386298
6.78515724231779
6.9047190807726
7.02428091922741
7.14384275768222
7.26340459613703
7.38296643459184
7.50252827304665
7.62209011150146
7.74165194995627
7.86121378841109
7.98077562686589
8.10033746532071
8.21989930377552
8.33946114223033
8.45902298068514
8.57858481913995
8.69814665759476
8.81770849604957
8.93727033450438
9.05683217295919
9.176394011414
9.29595584986881
9.41551768832362
9.53507952677843
9.65464136523324
9.77420320368805
9.89376504214287
10.0133268805977
10.1328887190525
10.2524505575073
10.3720123959621
10.4915742344169
10.6111360728718
10.7306979113266
10.8502597497814
10.9697219892277
11.0892324277563
11.2085778214346
11.3271978239207
11.4448115204427
11.5610911243907
11.6757674044979
11.7886348417409
11.8996597810274
12.0090618996407
12.1172015188067
12.2244746349349
12.331281697672
12.4378611240112
12.5441888506806
12.6501291776725
12.755543509426
12.8603107982411
12.9646385983469
13.0693101237321
13.1753866173486
13.2839543619475
13.3960117203646
13.5118337124905
13.6302466543706
13.7496528640374
13.8692190807726
0.0597720530297767
0.17932062006476
0.298708851848153
0.417104550095849
0.532916105659
0.644980461970047
0.753576085662963
0.85969650380177
0.964422754057093
1.06881060595666
1.17363754371102
1.27910809629747
1.38510148743757
1.49147983356462
1.59810818335189
1.70496331683608
1.81228358603944
1.92046738229274
2.02990829945131
2.14096519686736
2.25385541956444
2.3685446313663
2.48482845664538
2.60243840191408
2.72104818647189
2.84039948333407
2.95989281824673
3.07931655306451
3.19886065912406
3.31840476518362
3.43794887124317
3.55749297730272
3.67703708336227
3.79658118942183
3.91612529548139
4.03566940154094
4.15521350760049
4.27475761366005
4.3943017197196
4.51384582577916
4.63338993183871
4.75293403789826
4.87247814395782
4.99202225001737
5.11156635607692
5.23111046213648
5.35065456819603
5.47019867425559
5.58974278031514
5.70928688637469
5.82883099243424
5.9483750984938
6.06791920455335
6.18746331061291
6.30700741667246
6.42655152273201
6.54609562879157
6.66563973485112
6.78518384091068
6.90472794697023
7.02427205302979
7.14381615908933
7.26336026514889
7.38290437120844
7.502448477268
7.62199258332755
7.74153668938711
7.86108079544666
7.98062490150621
8.10016900756577
8.21971311362532
8.33925721968488
8.45880132574443
8.57834543180398
8.69788953786353
8.81743364392308
8.93697774998264
9.0565218560422
9.17606596210175
9.2956100681613
9.41515417422085
9.5346982802804
9.65424238633996
9.77378649239952
9.89333059845907
10.0128747045186
10.1324188105782
10.2519629166377
10.3715070226973
10.4910511287568
10.6105952348164
10.7301393408759
10.8496834469355
10.9691284605184
11.088621341255
11.2079499231434
11.3265568052314
11.4441625016916
11.5604408927899
11.6751241159904
11.7880076974511
11.8990581654138
12.0084940885847
12.1166739534859
12.2239917414862
12.330845864752
12.4374735097436
12.5438507206975
12.6498424856672
12.7553109119752
12.8601355674872
12.96452299205
13.069252462843
13.1753798510468
13.2839859661215
13.3960641740506
13.5118880977858
13.630289730882
13.7496793907559
13.8692279469702
0.059762862037667
0.17929312251081
0.298664206650428
0.417048213923416
0.532861837011873
0.644947879027515
0.753583333717992
0.859756547361001
0.964542882495834
1.06899254060154
1.1738789345093
1.27940555210164
1.38545225699476
1.49188189420662
1.59856022534691
1.70546413792101
1.81283070224834
1.92105619764627
2.03053213117727
2.14161545831263
2.25452238141278
2.36921875891402
2.48550129810152
2.60310292771342
2.72169909584256
2.84103284469972
2.9605079768765
3.07991396755164
3.19943969162697
3.31896541570231
3.43849113977764
3.55801686385298
3.67754258792831
3.79706831200365
3.91659403607899
4.03611976015432
4.15564548422965
4.27517120830499
4.39469693238032
4.51422265645566
4.63374838053099
4.75327410460632
4.87279982868166
4.99232555275699
5.11185127683233
5.23137700090766
5.35090272498299
5.47042844905833
5.58995417313366
5.709479897209
5.82900562128433
5.94853134535967
6.068057069435
6.18758279351034
6.30710851758567
6.426634241661
6.54615996573633
6.66568568981167
6.785211413887
6.90473713796234
7.02426286203767
7.14378858611301
7.26331431018834
7.38284003426368
7.50236575833901
7.62189148241434
7.74141720648968
7.86094293056501
7.98046865464035
8.09999437871568
8.21952010279101
8.33904582686635
8.45857155094168
8.57809727501702
8.69762299909235
8.81714872316769
8.93667444724302
9.05620017131835
9.17572589539369
9.29525161946902
9.41477734354435
9.53430306761969
9.65382879169502
9.77335451577036
9.89288023984569
10.012405963921
10.1319316879964
10.2514574120717
10.3709831361471
10.4905088602224
10.6100345842977
10.729560308373
10.8490860324484
10.9685131891335
11.0879878688885
11.207299023121
11.3258923041698
11.4434897074975
11.5597668413095
11.6744572619422
11.7873575790245
11.8984345108509
12.0079054769394
12.1161270618973
12.2234911582345
12.3303940659966
12.4370716960339
12.5435002040297
12.6495452913043
12.755069793813
12.8599539175346
12.9644031507712
13.0691926896744
13.1753728368763
13.2840187280475
13.3961185492688
13.5119444753733
13.630334385411
13.7497068892248
13.8692371379623
0.0597533343529258
0.179264617641914
0.298617925969674
0.416989813992399
0.532805580345256
0.64491410247781
0.753590847289743
0.85981879048324
0.964667411574772
1.06918114002704
1.17412916814438
1.27971390457202
1.38581587626087
1.49229868350353
1.59902882696305
1.70598330555102
1.81339786093166
1.92166658303856
2.03117881569448
2.14228954074397
2.25521377602558
2.36991758171928
2.4861987876949
2.60379179701784
2.72237384990599
2.84168940792222
2.96114567054809
3.08053326705983
3.20003993576568
3.31954660447153
3.43905327317738
3.55855994188323
3.67806661058909
3.79757327929494
3.91707994800079
4.03658661670664
4.1560932854125
4.27559995411835
4.3951066228242
4.51461329153005
4.6341199602359
4.75362662894175
4.8731332976476
4.99263996635346
5.11214663505931
5.23165330376516
5.35115997247101
5.47066664117686
5.59017330988271
5.70967997858857
5.82918664729442
5.94869331600027
6.06819998470612
6.18770665341197
6.30721332211782
6.42671999082367
6.54622665952953
6.66573332823538
6.78523999694123
6.90474666564708
7.02425333435293
7.14376000305878
7.26326667176464
7.38277334047049
7.50228000917634
7.62178667788219
7.74129334658804
7.86080001529389
7.98030668399974
8.0998133527056
8.21932002141144
8.3388266901173
8.45833335882315
8.577840027529
8.69734669623485
8.8168533649407
8.93636003364655
9.05586670235241
9.17537337105826
9.29488003976411
9.41438670846996
9.53389337717581
9.65340004588166
9.77290671458752
9.89241338329337
10.0119200519992
10.1314267207051
10.2509333894109
10.3704400581168
10.4899467268226
10.6094533955285
10.7289600642343
10.8484667329402
10.9678753785764
11.0873311905985
11.2066242787483
11.3252034605093
11.4427922668975
11.559068097358
11.6737659790785
11.7866836448511
11.8977880099868
12.0072953027179
12.1155601360629
12.2229722371502
12.3299257165307
12.4366551627151
12.5431368469169
12.6492372098527
12.7548198428013
12.8597656132307
12.9642789193713
13.0691307268481
13.1753655657568
13.2840526901375
13.3961749164105
13.5120029182365
13.6303806757648
13.7497353950422
13.8692466656471
0.05974345764154
0.179235068557217
0.298569949893346
0.416929274701371
0.532747262832188
0.644879088595718
0.753598636104813
0.859883313744309
0.964796502501082
1.06937664838223
1.17438856855419
1.28003355288456
1.38619281595787
1.49273074100886
1.59951459482767
1.7065214918139
1.81398579630438
1.92229932864387
2.03184919016823
2.14298831679425
2.25593049844645
2.37064200444102
2.48692182835778
2.60450590159965
2.72307332216133
2.84237002295168
2.96180672478454
3.08117525329989
3.20066216858298
3.32014908386606
3.43963599914914
3.55912291443222
3.6786098297153
3.79809674499837
3.91758366028146
4.03707057556454
4.15655749084762
4.2760444061307
4.39553132141378
4.51501823669686
4.63450515197994
4.75399206726302
4.8734789825461
4.99296589782918
5.11245281311226
5.23193972839534
5.35142664367843
5.4709135589615
5.59040047424458
5.70988738952766
5.82937430481074
5.94886122009382
6.0683481353769
6.18783505065998
6.30732196594306
6.42680888122614
6.54629579650922
6.66578271179231
6.78526962707539
6.90475654235847
7.02424345764155
7.14373037292462
7.26321728820771
7.38270420349079
7.50219111877386
7.62167803405694
7.74116494934003
7.86065186462311
7.98013877990618
8.09962569518927
8.21911261047235
8.33859952575543
8.45808644103851
8.57757335632159
8.69706027160467
8.81654718688775
8.93603410217083
9.05552101745391
9.17500793273699
9.29449484802007
9.41398176330315
9.53346867858623
9.65295559386931
9.77244250915239
9.89192942443547
10.0114163397185
10.1309032550016
10.2503901702847
10.3698770855678
10.4893640008509
10.608850916134
10.728337831417
10.8478247467001
10.9672142031729
11.086650456286
11.2059248165386
11.3244893825108
11.4420692770228
11.5583437563787
11.6730493725005
11.7859850224898
11.8971178258939
12.0066627760191
12.1149724420689
12.2224343064647
12.3294402100535
12.4362233705652
12.5427601789768
12.6489178424872
12.7545607353682
12.859570410808
12.9641501370293
13.0690664941507
13.1753580282759
13.2840878963566
13.3962333484458
13.5120635020325
13.6304286618686
13.7497649451102
13.8692565423585
0.0597332191176682
0.179204437004141
0.298520216314309
0.416866517679343
0.532686808977782
0.644842792054238
0.75360671024611
0.859950200671711
0.964930322387307
1.06957931876004
1.17465747154334
1.28036491083818
1.38658356405153
1.49317862604148
1.60001815779064
1.70707939341808
1.81459526947786
1.92295525358295
2.03254412243165
2.14371269106345
2.25667347650708
2.37139296487848
2.4876713560994
2.60524616589928
2.72379841810644
2.84307557087422
2.96249199535013
3.08184075735156
3.20130719558689
3.32077363382223
3.44024007205757
3.55970651029291
3.67917294852824
3.79863938676358
3.91810582499892
4.03757226323426
4.15703870146959
4.27650513970493
4.39597157794026
4.5154380161756
4.63490445441094
4.75437089264628
4.87383733088161
4.99330376911695
5.11277020735229
5.23223664558763
5.35170308382296
5.4711695220583
5.59063596029363
5.71010239852897
5.82956883676431
5.94903527499964
6.06850171323498
6.18796815147032
6.30743458970565
6.42690102794099
6.54636746617632
6.66583390441167
6.785300342647
6.90476678088234
7.02423321911767
7.14369965735301
7.26316609558835
7.38263253382368
7.50209897205902
7.62156541029435
7.7410318485297
7.86049828676503
7.97996472500037
8.0994311632357
8.21889760147104
8.33836403970638
8.45783047794171
8.57729691617705
8.69676335441239
8.81622979264773
8.93569623088306
9.0551626691184
9.17462910735373
9.29409554558907
9.41356198382441
9.53302842205975
9.65249486029508
9.77196129853042
9.89142773676576
10.0108941750011
10.1303606132364
10.2498270514718
10.3692934897071
10.4887599279424
10.6082263661778
10.7276928044131
10.8471592426484
10.9665288070019
11.0859447847105
11.2051997310072
11.3237491457683
11.4413198019298
11.557592880678
11.6723065145262
11.7852608075397
11.8964230909854
12.0060070780057
12.1143632191167
12.2218766698005
12.3289369180532
12.4357757606087
12.5423697125952
12.6485867757724
12.7542921360884
12.85936805757
12.9640166370313
13.0689999084313
13.1753502146756
13.2841243922811
13.3962939210175
13.5121263051899
13.6304784058424
13.7497955776826
13.8692667808823
0.0597226055270876
0.179172683328704
0.298468660850193
0.416801461684341
0.532624140521648
0.644805165865921
0.75361508016591
0.860019537852763
0.96506904446775
1.06978941352477
1.17493622521788
1.28070840739042
1.38698862638331
1.49364291840974
1.60054016773846
1.70765773259439
1.81522706944531
1.92363520698334
2.03326451210921
2.14446360128971
2.25744367202832
2.37217143518512
2.48844834121765
2.60601354822196
2.72455007641005
2.84380696505258
2.96320236935815
3.0825306407393
3.20197585179347
3.32142106284765
3.44086627390182
3.560311484956
3.67975669601018
3.79920190706435
3.91864711811853
4.0380923291727
4.15753754022688
4.27698275128105
4.39642796233523
4.51587317338941
4.63531838444358
4.75476359549776
4.87420880655193
4.99365401760611
5.11309922866029
5.23254443971446
5.35198965076864
5.47143486182281
5.59088007287699
5.71032528393116
5.82977049498534
5.94921570603951
6.06866091709369
6.18810612814786
6.30755133920204
6.42699655025621
6.54644176131039
6.66588697236457
6.78533218341874
6.90477739447292
7.02422260552709
7.14366781658127
7.26311302763544
7.38255823868962
7.50200344974379
7.62144866079797
7.74089387185214
7.86033908290632
7.9797842939605
8.09922950501467
8.21867471606885
8.33811992712302
8.4575651381772
8.57701034923138
8.69645556028555
8.81590077133973
8.9353459823939
9.05479119344808
9.17423640450225
9.29368161555643
9.4131268266106
9.53257203766478
9.65201724871896
9.77146245977313
9.8909076708273
10.0103528818815
10.1297980929357
10.2492433039898
10.368688515044
10.4881337260982
10.6075789371524
10.7270241482065
10.8464693592607
10.9658183027875
11.085213262349
11.2044480834987
11.3229817920123
11.4405428713889
11.5568144982123
11.6715364434905
11.7845100624687
11.8957029058926
12.005327359844
12.1137316785368
12.2212986052698
12.3284151889941
12.4353117533934
12.5419649422955
12.648243581128
12.7540136972489
12.8591582915629
12.9638782465577
13.0689308834923
13.1753421148413
13.2841622251565
13.39635671254
13.5121914090102
13.6305299720821
13.7498273324146
13.8692773944729
0.0597116031300366
0.179139766424497
0.298415216760098
0.416734022498271
0.532559176336437
0.644766161322041
0.753623756699371
0.860091415046684
0.965212848322661
1.07000720465186
1.17522519043592
1.28106448721267
1.38740852732499
1.49412421916206
1.6010813004381
1.70825725803116
1.81588201410307
1.92434006907869
2.03401129178129
2.14524201956334
2.25824208206537
2.37297842312722
2.48925378955519
2.60680904197835
2.72532927012693
2.84456515230848
2.96393876641932
3.08324579654761
3.20266900280768
3.32209220906776
3.44151541532783
3.56093862158791
3.68036182784798
3.79978503410805
3.91920824036813
4.0386314466282
4.15805465288828
4.27747785914835
4.39690106540843
4.5163242716685
4.63574747792857
4.75517068418864
4.87459389044872
4.99401709670879
5.11344030296886
5.23286350922894
5.35228671548901
5.47170992174909
5.59113312800916
5.71055633426923
5.8299795405293
5.94940274678938
6.06882595304946
6.18824915930953
6.3076723655696
6.42709557182967
6.54651877808975
6.66594198434982
6.78536519060989
6.90478839686997
7.02421160313004
7.14363480939012
7.26305801565019
7.38248122191026
7.50190442817033
7.62132763443041
7.74075084069048
7.86017404695056
7.97959725321063
8.09902045947071
8.21844366573078
8.33786687199085
8.45729007825092
8.576713284511
8.69613649077107
8.81555969703114
8.93498290329122
9.05440610955129
9.17382931581137
9.29325252207144
9.41267572833151
9.53209893459158
9.65152214085166
9.77094534711173
9.89036855337181
10.0097917596319
10.129214965892
10.248638172152
10.3680613784121
10.4874845846722
10.6069077909322
10.7263309971923
10.8457542034524
10.9650817707504
11.0844549422139
11.2036689009724
11.3221863278689
11.4397374796279
11.556007601329
11.6707381624992
11.7837318154005
11.8949563382997
12.0046227416048
12.1130770027687
12.2206993645395
12.3278743474732
12.4348307482401
12.5415453440839
12.6478878142734
12.7537250583993
12.8589408412367
12.9637347864573
13.0688593299788
13.1753337182873
13.2842014439588
13.3964218042999
13.5122588977736
13.6305834273425
13.7498602504141
13.86928839687
0.0597001976834281
0.179105643679059
0.298359814858259
0.416664112818001
0.532491832322804
0.644725727929539
0.753632751078584
0.860165925300763
0.965361920110765
1.07023297407981
1.17552474127474
1.28143361126592
1.38784381045761
1.49462315136497
1.60164225641188
1.70887874584336
1.81656095130947
1.92507075234821
2.0347854281915
2.14604895358515
2.25906974019844
2.37381497338842
2.49008874380152
2.60763367697046
2.72613700795752
2.84535111414834
2.96470213983224
3.08398715057716
3.20338754594401
3.32278794131087
3.44218833667773
3.56158873204459
3.68098912741144
3.8003895227783
3.91978991814516
4.03919031351202
4.15859070887888
4.27799110424573
4.39739149961259
4.51679189497945
4.6361922903463
4.75559268571316
4.87499308108001
4.99439347644687
5.11379387181373
5.23319426718058