/*--------------------------------*- C++ -*----------------------------------*\
  =========                 |
  \\      /  F ield         | OpenFOAM: The Open Source CFD Toolbox
   \\    /   O peration     | Website:  https://openfoam.org
    \\  /    A nd           | Version:  7
     \\/     M anipulation  |
\*---------------------------------------------------------------------------*/
FoamFile
{
    version     2.0;
    format      ascii;
    class       volTensorField;
    location    "20000";
    object      gradU;
}
// * * * * * * * * * * * * * * * * * * * * * * * * * * * * * * * * * * * * * //

dimensions      [0 0 -1 0 0 0 0];

internalField   nonuniform List<tensor> 
15600
(
(0.0521970332100107 -0.00277014572317125 2.79861223038626e-23 17.8753930441682 -0.051239352794029 1.00409669292627e-25 0 0 0)
(0.326068108938044 -0.0158438628537087 -4.93415397716732e-19 20.8700601311525 -0.344911965003815 -2.61717389122539e-18 -1.24150514781924e-21 5.64556555927179e-23 1.90516585876308e-39)
(1.20845129604992 -0.100912532793668 -1.16217301319112e-18 16.3320569560298 -1.19571045454098 -1.39312145318919e-17 1.23932643707993e-21 -5.63565818648718e-23 -1.90182249339408e-39)
(0.517840200336801 -0.0774258753994515 4.51084549140156e-19 3.76539882469963 -0.566775764184865 -8.7439330577029e-22 0 0 0)
(-1.96463540490051 0.644088441364767 0 -5.84784849453301 1.90148134629707 0 0 0 0)
(-2.9602132734146 1.25836142316586 -2.51843745143296e-22 -6.90618759005009 2.90713390989931 -7.30621620153776e-25 0 0 0)
(-2.51639090187466 1.25049465756746 -2.8179649216863e-21 -5.03735008078421 2.48705812668649 -6.09831534618505e-21 -3.83354714858582e-22 1.93489729428826e-22 3.31350851342896e-44)
(-2.19696913165207 1.18720927609741 1.10074992492431e-21 -4.02532810001427 2.16869371385607 6.01954890846816e-21 3.70614576879677e-22 -1.87059429357171e-22 -3.20338972782609e-44)
(-1.78545727586757 1.0020349445078 1.35286250018616e-20 -3.15581676541705 1.76912413603259 2.4654401304023e-20 -1.99761474444836e-21 1.10175163004779e-21 -6.71130395299542e-41)
(-1.51384129468857 0.844019995569458 -2.28456622027859e-17 -2.69048837608345 1.50078873470328 7.03568796963869e-19 1.87229594412967e-22 -1.14229248733866e-22 -5.73363825147171e-37)
(-1.29493207431134 0.704489338697803 9.02101951127663e-17 -2.36422435267818 1.28760816336351 2.12358583900472e-16 -2.44444204103909e-17 1.3312677721776e-17 2.18453804354057e-33)
(-1.18749247405491 0.631611679877724 -2.21821766663439e-16 -2.21933962458665 1.18158562505385 -4.54227546459389e-16 0 0 0)
(-1.11208933929007 0.581610383999791 3.79771482084444e-16 -2.1178117697666 1.10838281653559 6.79512635201548e-16 0 0 0)
(-1.08624983696497 0.561912598835691 3.55819167186071e-16 -2.09410093011446 1.08376125407367 6.88994758568994e-16 0 0 0)
(-1.10319214058484 0.567633688696345 8.94230382109252e-20 -2.14051367375177 1.10195179313947 2.30812361021558e-19 5.63908698321467e-21 -2.87075413182316e-21 1.23581388259154e-39)
(-1.14671021087403 0.583215273815581 -3.54684381705463e-16 -2.24997670332802 1.14592392965957 -7.01480237869832e-16 2.28521917568243e-17 -1.16383100869739e-17 7.12577970298819e-33)
(-1.19238474510257 0.587633310475383 -3.46783462082681e-16 -2.41229548319583 1.19232194258527 -7.08278212757367e-16 5.72670864578145e-21 -2.85472259681515e-21 1.1033048805469e-39)
(-1.23366825917679 0.575040243192601 -1.4245989521266e-20 -2.63419552543424 1.23397113068906 9.12362732759549e-22 0 0 0)
(-1.2441118944425 0.532663509801829 2.43936522872992e-16 -2.88464122693285 1.24478016022158 7.33886577661726e-16 0 0 0)
(-1.20911386361516 0.458368911052499 1.66319445996917e-16 -3.15516616799879 1.21056657410998 4.47211063574756e-16 -3.05844812579153e-17 1.17312432911129e-17 4.33721761290481e-33)
(-1.13840259208662 0.367912267285087 4.72789066139861e-17 -3.46863142441864 1.14101714501119 -4.2783038925324e-18 -7.72436936670935e-21 2.72056002420409e-21 -4.71137711723568e-36)
(-1.03319641402786 0.273735064921923 1.31976554690548e-16 -3.80986560500421 1.03651467307481 4.96139201811219e-16 -1.78574733733614e-17 4.85660689953376e-18 2.32969886905959e-33)
(-0.881181163790394 0.180187836227511 -1.93543658589785e-17 -4.14261342214246 0.885314039813971 1.70378219213804e-18 -3.79076478821987e-20 7.93306509056117e-21 -7.48136592269729e-36)
(-0.680201171882706 0.0960454578674452 -8.59903450066464e-17 -4.45702766929374 0.686746332720697 -5.6866744624679e-16 -2.04068996411466e-17 3.14119223509614e-18 -2.60082319878213e-33)
(-0.435137112029673 0.0312065266897941 3.40196732411541e-17 -4.6933821557138 0.43999929470387 -2.20739246709941e-18 0 0 0)
(-0.179937284963003 -0.00124809090556228 -2.27373896140366e-15 -5.21143088259166 0.187494122234632 1.02022448662168e-16 0 0 0)
(-0.03881281312876 -0.00238781243756979 -2.33064516281837e-15 -6.27374635356011 0.0480832734596978 1.26500005875305e-14 -3.44904518630897e-15 2.63737017494678e-17 7.04363235212289e-30)
(-0.0309590665805244 -2.84500429775425e-05 2.27236691782823e-15 -7.24193641038151 0.036675979620437 1.15486650668939e-14 -3.99688049481538e-15 2.02268885551027e-17 6.28720355752305e-30)
(-0.0209192021579994 -4.10349268151498e-06 2.3336926436961e-15 -7.84798920045683 0.027616086150244 -1.34758203510753e-16 0 0 0)
(-0.0154781264475187 -1.03031087339534e-06 7.29587990342141e-34 -8.29526315634733 0.022016330439388 3.99379015726982e-19 0 0 0)
(-0.0111808844663419 -1.3402807127467e-06 -2.7454862827223e-15 -8.60897218813016 0.017924818876681 1.42830214822626e-16 0 0 0)
(-0.00789062347073324 -5.96489458258242e-06 -2.87546503941451e-15 -8.82684927178205 0.0147144885933543 1.3771834883972e-14 -5.04383649868787e-15 8.39841223901983e-18 7.96578652220718e-30)
(-0.00508213240832057 -1.13915731501749e-05 2.74546367458519e-15 -8.96328931418539 0.0119762483403762 1.3242359717111e-14 -5.13999033558072e-15 6.87867301136833e-18 7.50095439102369e-30)
(-0.00262305133559654 -1.73291316826297e-05 2.87546503941471e-15 -9.02975314872472 0.0095362422045877 -1.40087366872264e-16 -2.16906796840959e-20 5.56232593329921e-23 -1.9460751891443e-34)
(-0.000402545488052434 -2.32751934339695e-05 2.26081368024735e-20 -9.03355337824083 0.0072818265853489 -1.05448628059696e-21 0 0 0)
(0.00162738917056824 -2.87597046153788e-05 0 -8.98055104124091 0.00517130505892724 0 0 0 0)
(0.00349553207387058 -3.35472533199266e-05 -2.76932171417565e-20 -8.8755771378615 0.00317825050880271 1.14262589024125e-21 0 0 0)
(0.00521233700710174 -3.76329309354319e-05 3.50734325156781e-15 -8.72299562684927 0.00129906094635585 -1.38852822361708e-16 -2.11959757420374e-20 4.61114950222865e-23 2.37368426688174e-34)
(0.00678012250506491 -4.10059405045622e-05 3.66226174691653e-15 -8.52703321420898 -0.000467932875894265 -1.71282962419734e-14 4.68969366297676e-15 2.7247703637977e-19 9.50969198607683e-30)
(0.00819455328305074 -4.35260155567797e-05 -3.50731225157437e-15 -8.29187770422444 -0.00211308328963966 -1.69727937631357e-14 4.57284340818121e-15 1.15205207428984e-18 9.27595721664593e-30)
(0.0094478621414058 -4.51571109354642e-05 -3.66223297551973e-15 -8.02190048357781 -0.00362335952687502 1.31899813931631e-16 1.95431049616307e-20 -3.73343863534094e-23 -2.17098957056366e-39)
(0.0105385825396976 -4.60255661953041e-05 -6.31469393407351e-20 -7.72155510369247 -0.00499062933567858 -1.27156065392217e-18 -7.13231163650161e-22 3.11492252506422e-24 4.27366440005557e-39)
(0.0114721886666626 -4.62628157560996e-05 -1.07817975517504e-21 -7.39516266631228 -0.00621706566242327 1.5836994196894e-19 -1.88298737979807e-20 3.42194638283456e-23 -2.10267482949185e-39)
(0.012256027133487 -4.59388927352337e-05 3.21469459197538e-20 -7.04681470547382 -0.00730470852781846 -9.80373253426784e-22 0 0 0)
(0.0128976591917975 -4.51281069580156e-05 0 -6.68039710902979 -0.00825775364766845 0 0 0 0)
(0.0134053769251247 -4.38992237958381e-05 -4.78215966402482e-15 -6.29956266455093 -0.00908017798174002 1.20481163667182e-16 0 0 0)
(0.0137884482494501 -4.2336310829226e-05 -4.93130624410084e-15 -5.90772705658337 -0.00977829330695176 2.55065050222739e-14 -3.37865110419186e-15 -5.60233089520012e-18 1.46700901470708e-29)
(0.0140578537125398 -4.05457282460969e-05 4.78215966402435e-15 -5.50802772876688 -0.0103595139909768 2.59033027627334e-14 -3.15558572899619e-15 -5.92742068759594e-18 1.47678880474312e-29)
(0.014223242125591 -3.85545581302314e-05 4.93130624410122e-15 -5.10330021750068 -0.0108329232878394 -1.05335507374744e-16 0 0 0)
(0.0142898751834327 -3.63404927699424e-05 -7.6984650325278e-34 -4.69618871377944 -0.0112006167044395 -4.18098424924796e-19 0 0 0)
(0.0142645873123563 -3.4013463660163e-05 0 -4.28923429970905 -0.0114667529436669 0 0 0 0)
(0.0141586574803056 -3.1657213622322e-05 -5.33213349771549e-15 -3.88469184996198 -0.01164229802218 7.65233218581195e-17 0 0 0)
(0.0139847518769285 -2.93465901083772e-05 -5.45044857668865e-15 -3.48450220385685 -0.0117373653198599 3.15842206184793e-14 -1.91804293066751e-15 -6.46544133384405e-18 1.74378659607083e-29)
(0.0137551927965355 -2.71077498001617e-05 5.33213349771522e-15 -3.09026121556173 -0.011765632270422 3.23767943457458e-14 -1.70272259589838e-15 -6.4799493496308e-18 1.7800078473243e-29)
(0.013481934340999 -2.49915270271888e-05 5.4504485766885e-15 -2.70327217854168 -0.0117361266726228 -5.8905540044408e-17 0 0 0)
(0.0131768929565016 -2.30294185275821e-05 0 -2.32451168815034 -0.0116632173175729 1.2470744488229e-19 0 0 0)
(0.0128425547763543 -2.10808486536919e-05 2.95750660788018e-21 -1.95469466629543 -0.01154970254871 1.93252187087252e-21 0 0 0)
(0.0124780730596394 -1.91804041627381e-05 -2.96175358347869e-21 -1.59469162095539 -0.0113921165081152 -8.22894800213813e-20 2.69416763354689e-22 1.85236457842339e-25 1.79642004573154e-44)
(0.0120875243077155 -1.73571946351096e-05 -2.95750660788026e-21 -1.24524230466057 -0.0111977184893106 -4.61114658672625e-20 -2.6941676335472e-22 -1.8523645784236e-25 -1.79642004573174e-44)
(0.0116782058936078 -1.57770012262438e-05 2.9617535834789e-21 -0.906988238279041 -0.0109713679495532 -5.31314582555254e-24 0 0 0)
(0.0112601086005111 -1.45183866670118e-05 -3.12985963908039e-21 -0.580277395861619 -0.0107348733773667 -5.61471446520226e-24 0 0 0)
(0.0108365642886936 -1.3402774383535e-05 3.13379159401071e-21 -0.26523922371743 -0.0104904562667477 -4.87286745422069e-20 -7.54242660190592e-23 -4.43493338531292e-25 1.66317005862979e-44)
(0.0104069660115436 -1.23319534836122e-05 3.12985963907973e-21 0.0379359943709731 -0.0102321858937304 -9.33508760632289e-20 7.54242660190541e-23 4.43493338531262e-25 -1.66317005862968e-44)
(0.00997286052641932 -1.11905554828099e-05 -3.13379159401068e-21 0.329089372354455 -0.00995875600579282 -1.54037283839514e-21 0 0 0)
(0.0095386501105003 -1.0086427039823e-05 0 0.608120843845353 -0.00967335418730958 -1.45450795894928e-19 0 0 0)
(0.00910744493773547 -9.11552552013591e-06 0 0.875106652537282 -0.00938087587930939 -2.81126031319034e-21 0 0 0)
(0.00867874596424767 -8.26121583453639e-06 2.63681411812687e-34 1.1301061907246 -0.00908063309196439 2.88680252715991e-19 0 0 0)
(0.00825238266105611 -7.50766289632535e-06 2.67712988058022e-20 1.37317039607352 -0.00877494377792499 3.84204318209617e-22 0 0 0)
(0.00782933103911372 -6.86169411007767e-06 -2.67491770676325e-20 1.60434917215092 -0.0084638931744243 4.16465707742329e-19 -1.55507617622914e-21 5.75949873797684e-24 -7.4857852066193e-43)
(0.00741068704000665 -6.30977986333596e-06 -2.67712988058032e-20 1.82374610090133 -0.00815123011701452 -4.16985318265112e-19 1.55507617622924e-21 -5.75949873797722e-24 7.48578520661979e-43)
(0.00699569902540715 -5.82989040134086e-06 2.67491770676356e-20 2.03146945164403 -0.0078351947379721 -5.94952009086963e-19 0 0 0)
(0.00658305464596749 -5.43339331503845e-06 6.84131004026251e-15 2.22758473570692 -0.00751649227351284 1.47866970694311e-16 0 0 0)
(0.00617189646241753 -5.11576592767652e-06 1.37538431931749e-14 2.4121296697962 -0.00719409296841227 -4.21091135334707e-14 -1.32933178131751e-15 3.96454564146113e-18 2.3112070422197e-29)
(0.00576199030082246 -4.88079717130826e-06 6.85614087486791e-17 2.58512139463961 -0.00686915497927418 -8.57159706744031e-14 -2.84748791001487e-15 7.56645804785274e-18 9.44413955815387e-29)
(0.00535153557437644 -4.6945768566242e-06 -1.37538431931756e-14 2.74658218554804 -0.00654049418788115 -4.37238600265397e-14 -1.51150068166297e-15 3.59934065129733e-18 2.41841332805791e-29)
(0.00493795904630991 -4.58203529995607e-06 -6.90987144901178e-15 2.89643409353446 -0.00620533563963041 -1.85936238199911e-16 0 0 0)
(0.0045187561827822 -4.53120132591295e-06 0 3.03456121184271 -0.00586345075063922 0 0 0 0)
(0.00409187830227347 -4.55791374939763e-06 5.71684694396141e-20 3.16074533001419 -0.0055113290844286 1.84600079403698e-21 0 0 0)
(0.00365322019135381 -4.62323967172323e-06 7.15297382414858e-15 3.27475296763194 -0.00514875623964922 2.44695507431e-16 -6.86470801307955e-21 1.49407066476948e-23 -4.84103492976823e-34)
(0.00319932785629043 -4.77728299959097e-06 7.16171147233122e-15 3.3761453198646 -0.00476801099345942 -4.26336474829281e-14 -1.86139279479724e-15 2.63022934649567e-18 2.33477279532407e-29)
(0.00272211180624428 -4.94008491830915e-06 -7.15297382414824e-15 3.46449202525103 -0.00436940989349512 -4.46040551505303e-14 -1.9059270448738e-15 2.40177812416022e-18 2.47153922953462e-29)
(0.00221886343559396 -5.26552891824517e-06 -7.1617686408013e-15 3.53892376682932 -0.00393848257067014 -2.68540287148376e-16 0 0 0)
(0.00167343818820965 -5.4777824777648e-06 -2.31936759009862e-33 3.59882789841759 -0.00348119243263138 -1.25963283868217e-18 0 0 0)
(0.00108623362224308 -6.04985032712042e-06 -2.34765863389002e-33 3.64249273101664 -0.00296213390525137 1.27499751306687e-18 0 0 0)
(0.000420294406161952 -6.18647376040394e-06 0 3.66923994664736 -0.0024082997824146 -1.27541036935336e-18 0 0 0)
(-0.000308666614165255 -7.25030787198217e-06 0 3.67546159395244 -0.0017295345203512 0 0 0 0)
(-0.001192381585761 -6.76756150881851e-06 6.03565754135469e-20 3.66109680412875 -0.00102141945549067 1.30322785211502e-18 0 0 0)
(-0.00217181156280863 -8.76453177723248e-06 -6.0372961201091e-20 3.61790447853251 -2.08912550565422e-05 9.45069595211268e-19 -7.3822701039191e-21 1.86954469197975e-23 1.10895884289709e-42)
(-0.00349883771288652 -6.29341433283775e-06 -6.03565754135435e-20 3.54834637241433 0.000975367679500465 -2.25446346648708e-18 7.38227010391263e-21 -1.86954469197811e-23 -1.10895884289612e-42)
(-0.00495809265548041 -1.09659160453283e-05 6.03729612010919e-20 3.43148572210014 0.00269328638757648 3.14082174555359e-21 0 0 0)
(-0.00726384521730095 -2.61431091857385e-06 0 3.27941055189832 0.00423172669097728 0 0 0 0)
(-0.00959215687151357 -1.35646494565571e-05 -6.27111976759494e-20 3.03516145180701 0.00758684774290637 -1.36171108183356e-18 0 0 0)
(-0.0145334900496946 2.7790879511678e-05 6.3021895179619e-20 2.74847762433089 0.0104232407903463 3.91976624987432e-19 4.68554023680048e-21 -1.90776529400397e-23 2.10274143807925e-41)
(-0.0205193181174047 0.000600488601639019 -8.09238597759957e-18 2.23196717436182 0.0194108295314834 4.86877818629475e-19 -4.69356767485683e-21 1.91103374693569e-23 -2.10634393123684e-41)
(-0.0565930371120292 0.000342468462083046 -3.42537725916598e-17 1.63290951552486 0.0558557040390107 4.94207059207118e-17 9.24013652856276e-19 3.15276645228568e-20 2.91313834067821e-35)
(-0.144604442413365 -0.00852851241079142 5.37400217243186e-17 1.73824294814727 0.143193183684468 -5.03444332676385e-16 -7.1552763266094e-21 -9.11705193395664e-22 4.47089997218649e-36)
(-0.320116691502474 -0.0417636622273203 1.74489615869578e-14 2.26473084414251 0.325165616518067 2.61051099990857e-15 1.73391835221854e-20 2.82664051128251e-21 2.42113232761209e-33)
(-0.578409856706105 -0.112053336009393 3.90361075351454e-14 2.87388099479972 0.583317261195955 -1.06123471437824e-13 -3.61065767898818e-15 -7.32770271879745e-16 1.3161605339759e-28)
(-0.943931633104992 -0.239882979494846 1.01912724487872e-14 3.63275474504145 0.948606557202643 -1.08830989992064e-13 -4.54130895029825e-15 -1.18542954619799e-15 1.37806507625946e-28)
(-1.42885342757184 -0.445521587533173 -1.7706925944164e-14 4.50735528504562 1.43063552743335 -4.50611826688162e-16 4.29374900964527e-17 1.36236400401772e-17 7.11530708173213e-33)
(-2.0748399525281 -0.7610371160785 9.88154021812182e-16 5.57459757952967 2.06865498360456 -1.92486065729314e-15 -1.21402909014875e-20 -4.26383684049557e-21 1.84058377738411e-35)
(-2.89576298194091 -1.2017165723539 -4.62696645219244e-16 6.88154629680804 2.8765178585553 1.92176399830459e-15 -6.77993182517368e-17 -2.83347987749769e-17 -1.87125128219936e-32)
(-3.83596306255221 -1.73576312847006 -7.95618348734185e-16 8.36186709420365 3.80037108222948 1.17814948987926e-15 -8.35281849762057e-17 -3.79577142729778e-17 -1.19348817443939e-32)
(-4.83308077227085 -2.31704877099642 -4.36642056759555e-16 9.9446407248752 4.77954477349839 6.25994145983927e-16 1.00394982753726e-16 4.82476615677314e-17 6.3996508332081e-33)
(-5.84617854962443 -2.90098617111763 -8.783309806361e-16 11.6215683712553 5.77367003033235 1.75726905162504e-15 -2.93454626390005e-20 -1.40665739936629e-20 3.84811507470599e-37)
(-6.76621320264507 -3.4101369037054 -5.0171308584359e-16 13.2499571214241 6.68202954430191 5.94255499826266e-16 1.34957522102879e-16 6.80584924808241e-17 6.15639855859847e-33)
(-7.59766913441342 -3.86745986027016 -2.0042407408813e-16 14.7342434365751 7.50531650420247 5.96249369333103e-16 1.50326954871486e-16 7.65720284631717e-17 6.02687570210803e-33)
(-8.50820953196755 -4.39262010848313 -1.03465111232373e-15 16.26367347946 8.4041470601384 2.15819323843578e-15 2.13396076654832e-20 1.06804095549678e-20 -4.16924103983637e-36)
(-9.64293416383826 -5.07403329096178 -2.48181495802396e-19 18.0734177530422 9.52013534730433 3.55528301423889e-19 -2.55594976896769e-20 -1.32691159872028e-20 2.86415300957521e-39)
(-11.12143701543 -5.99116170057209 1.05880691605458e-15 20.3427160459044 10.9704216066053 -1.93166271269893e-15 -2.10315406299194e-16 -1.1341667882082e-16 1.99704912987403e-32)
(-13.2798307103023 -7.34005979686814 -1.03192428662694e-16 23.637426881247 13.069287744938 -2.35805223205632e-18 0 0 0)
(-16.2092899406247 -9.01054902205088 3.80723439173828e-16 28.6474646283754 15.9059892204862 -7.27155511176892e-16 2.98813121336654e-16 1.65910918197361e-16 -7.58851133551191e-33)
(-19.2100475272329 -10.3145735693654 6.60379956727134e-16 35.1644064216331 18.823219354852 -9.08840497009223e-16 3.35363439355104e-21 1.64984141950842e-21 4.35212203308743e-38)
(-21.6717514741143 -10.6974377738551 -1.59692112573103e-16 43.2055250461287 21.2069067921944 4.12937660283271e-16 -4.38679512762854e-16 -2.15318802699524e-16 -4.19438692026343e-33)
(-22.3094394554935 -9.43868002658024 -1.68176520006304e-16 52.1109575123584 21.8244587990003 2.58555156881291e-16 -5.14243567492678e-16 -2.15361710130928e-16 -2.54977182051782e-33)
(-19.0269202646768 -6.1002645012645 -2.56297638492733e-17 59.1562926827459 18.6126119611208 4.88792647294272e-17 -5.63311123187164e-16 -1.772252030762e-16 -4.64421517354198e-34)
(-10.4859531900366 -2.09274062133208 6.6717383221971e-17 54.3445582351798 10.3377063873819 -3.28371079055595e-16 8.7495423827106e-21 2.16562907353157e-21 -4.10217786446021e-38)
(-3.54896644464434 -0.37534584848922 3.26301489977948e-19 38.9688910686826 3.50029606269622 1.1759611678358e-20 -2.03320962586699e-21 -1.25022946403871e-22 -1.38305362681062e-39)
(-0.572846871320778 -0.0358367619635667 -1.63025881470039e-19 23.5983528667166 0.588261625298568 1.02156884337623e-17 2.03677546259211e-21 1.25242211258856e-22 1.38547922196449e-39)
(-0.0339651377736621 -0.00352682968210255 -3.28287588098294e-19 16.5699436919357 0.0196383703031133 1.17784263473745e-21 0 0 0)
(0.0896511251837414 -0.0092710589951951 -8.71249271070296e-20 20.2814639169812 -0.0795494448847946 -3.12590112463611e-22 0 0 0)
(0.310572382742459 -0.0330347914013375 7.80199910632712e-20 21.6310453821089 -0.32883210236382 4.84547624724521e-18 1.18301422215486e-17 -1.87325138767606e-19 6.58307768548786e-37)
(1.10665629554292 -0.0959414436167393 -3.50902897251988e-19 18.2734187926765 -1.07806751082204 -5.32782928839851e-18 -4.29704574671706e-21 3.59586977679029e-22 4.43299115020086e-44)
(0.882392113314499 -0.0815289824990269 -2.16135202975948e-22 7.71168128070291 -0.856506123797444 -1.94987914463135e-22 4.29613604907668e-21 -3.59510852023314e-22 -4.43205267250551e-44)
(-1.22844588291223 0.507334824624097 1.90254234814509e-22 -2.89170304493011 1.28517248226488 2.1542204389336e-24 0 0 0)
(-2.3745543861643 1.05860167393978 3.62619345264775e-21 -5.54145577749144 2.41566610609582 8.47544000042508e-21 0 0 0)
(-2.12561956508425 1.07239687952496 7.71635505867484e-21 -4.36384348535592 2.16075345002276 1.53514981869913e-20 0 0 0)
(-1.89595215070438 1.03398545545371 3.22386091624523e-16 -3.54752394844937 1.91712599325392 5.89846115566573e-16 0 0 0)
(-1.5834892258811 0.891489682767987 7.28880242963749e-20 -2.85115120805637 1.60076357800991 1.28261463165922e-19 5.49075910664997e-21 -3.08641346130776e-21 -9.901276513837e-41)
(-1.3685782368956 0.763784666838746 3.89358694699943e-16 -2.46513068183087 1.37874259463371 6.30023933681777e-16 -4.66205395785154e-22 3.01152671610595e-22 -8.46362627619143e-37)
(-1.19601009317551 0.65080289510037 -1.0619860805434e-16 -2.20386489898959 1.2038543872593 -1.9798267519941e-16 2.35609532702473e-17 -1.28315270425445e-17 -2.10364625742005e-33)
(-1.11048786835469 0.591763604829972 -1.1320788909241e-16 -2.08634179500258 1.11552844898515 -2.24957385295157e-16 8.14513394168846e-21 -4.40233096539151e-21 -1.56035078168891e-36)
(-1.05583490242099 0.55358657999629 -2.96566370676913e-16 -2.01558354896035 1.05948520192884 -6.49712478187522e-16 4.1530467762194e-17 -2.17817719850582e-17 -9.03381782603553e-35)
(-1.04572198252126 0.543437673460539 -2.44042791846344e-17 -2.01308285563353 1.04775029859801 2.61453949099018e-17 4.11345879732074e-17 -2.13482558463061e-17 -7.02462597790727e-33)
(-1.07318502059276 0.555765825003374 -8.32051372864083e-17 -2.0718218004166 1.07464874786269 4.7054386297023e-18 -1.14481840083295e-21 5.23659555341175e-22 -6.78704645999393e-36)
(-1.12319449835111 0.575021867405442 2.86306863806312e-16 -2.18615641614877 1.12387136210104 6.63455777296201e-16 -2.20350757761799e-17 1.12220439943026e-17 -6.86903819107377e-33)
(-1.1738424013589 0.581646594272141 3.65157435760689e-16 -2.34930585844495 1.17431910415029 6.6064982558243e-16 -4.7217042335088e-17 2.34663146464683e-17 -2.03264489316068e-34)
(-1.21510572599203 0.568143236974659 9.25957567929524e-17 -2.56154273337031 1.21574139692099 -6.39838104634832e-18 0 0 0)
(-1.22587614701233 0.523849851655187 -1.84900874646542e-16 -2.80234110160536 1.22648203358461 -6.79122824956212e-16 5.50665438889823e-17 -2.39212738901019e-17 -3.08951051324496e-34)
(-1.19533239950105 0.448917126501971 8.83908398302156e-17 -3.06877873923787 1.19546989992863 3.52578430053948e-16 8.87860726051702e-17 -3.42225305680748e-17 -1.1746868943534e-32)
(-1.12719457944087 0.357308525199805 -4.50212185911197e-17 -3.36946345854841 1.1273883708211 3.33307881568968e-18 -4.97408896343683e-20 1.49195673445755e-20 7.04986433875083e-36)
(-1.0218721444249 0.260792507314144 -1.66107464380588e-17 -3.68786235938775 1.02166032832613 -6.71782976806403e-17 5.17967623773446e-17 -1.41694175466558e-17 -4.17528655884208e-33)
(-0.871275467301687 0.164974733337753 -5.04303428813937e-17 -3.99920112597219 0.870414191186717 4.5407835036608e-18 1.0904425418472e-19 -2.30567183017738e-20 -6.82220881614433e-36)
(-0.674272955855634 0.0793353269387995 1.36119646330793e-16 -4.2933401644942 0.674849053461599 9.07979211101868e-16 -1.97399959730836e-17 3.0963602477996e-18 4.16092775010764e-33)
(-0.454201044506528 0.0158189789896825 -1.3955398407673e-20 -4.60832121104606 0.447846194060499 -7.00684917594337e-19 0 0 0)
(-0.225086980220854 -0.0127443888884851 3.19056253153307e-15 -5.1291118536033 0.220343260964638 -1.59113605459444e-16 0 0 0)
(-0.0944091496256039 -0.00754898670995417 3.19535296074368e-15 -5.84983174617599 0.0922957322778741 3.56388271247248e-14 3.35640023433954e-15 -2.56265998947164e-17 -6.8593466804882e-30)
(-0.0727013152644709 -0.00132434056748218 -3.18922883610068e-15 -6.42632980543892 0.0658250806137221 3.69415282747244e-14 3.82733730354817e-15 -1.93329639949293e-17 -6.00222114035204e-30)
(-0.048375121325167 -0.000971689582742303 -3.19750458537473e-15 -6.77695125441319 0.0429353489710586 1.82841645525922e-16 -9.91746889243786e-20 3.80971107333296e-22 2.08750339732044e-34)
(-0.0345774450514416 -0.00064417401740922 5.27074527675659e-20 -7.01156414443429 0.0287255982221579 3.36157171779711e-19 5.11664646331762e-20 -1.58766467946266e-22 1.70504970626617e-39)
(-0.0237698306359439 -0.000484789703772958 3.75391408797682e-15 -7.15393125551728 0.0180725227063077 -1.94947685119669e-16 0 0 0)
(-0.0153858059271066 -0.00038990851799071 3.87225256055778e-15 -7.22747852869463 0.00972824542693218 4.30393160517052e-14 4.89963784915265e-15 -8.15203923374488e-18 -7.74874132519074e-30)
(-0.00822100533620694 -0.000332994290931898 -3.75397129413496e-15 -7.24278610653032 0.00268778398094473 4.54376872553886e-14 4.9255598197821e-15 -6.58703025678183e-18 -7.17327707768429e-30)
(-0.00194277923087692 -0.000294622791254669 -3.87225256055756e-15 -7.20788698488139 -0.00344562381884394 1.88271913317299e-16 -5.65169567147869e-20 3.78646609199474e-23 2.52803656633466e-34)
(0.00370641805027194 -0.000266515478576034 3.06151426190015e-20 -7.12832997862687 -0.0089070246155479 -3.90863468366991e-19 0 0 0)
(0.00884171954709804 -0.000243420611596926 0 -7.00915948073694 -0.0138021113272384 4.19574206558097e-19 0 0 0)
(0.0135328192748818 -0.000223047555206412 1.05259927013045e-33 -6.85446033833323 -0.0182196288729293 -4.17195027742658e-19 0 0 0)
(0.0178090220917185 -0.000203753731417738 -4.76776744908331e-15 -6.66786655597971 -0.0221906165534669 1.88131941165079e-16 0 0 0)
(0.0216796089320526 -0.000184667844819563 -4.9359932752895e-15 -6.45282216155611 -0.0257327900815231 -5.50297837841586e-14 -4.54726179773535e-15 -2.67470270950295e-19 -9.23297640215279e-30)
(0.0251394188040097 -0.00016495658898788 4.76776891928515e-15 -6.21266312327822 -0.0288450329475764 -5.78118035010292e-14 -4.38894823433688e-15 -1.10686155143853e-18 -8.89088954050949e-30)
(0.0281788233844198 -0.000144758921211866 4.93590735627452e-15 -5.95068875304136 -0.0315237008693423 -1.77557419327665e-16 -1.83969557830877e-21 9.45079727571103e-24 -3.22247909871945e-34)
(0.0308027242286663 -0.000124956445882863 4.24029699445489e-20 -5.67008117947318 -0.0337782513692915 -6.31159499457125e-20 -9.5753056282315e-20 -1.57764007125269e-22 -8.25838812143586e-39)
(0.033029564882905 -0.000106089921057427 8.5919014673603e-20 -5.37382232575185 -0.0356339176578625 5.03407786652817e-19 4.68710277554559e-20 8.29609854604212e-23 2.74502419581724e-39)
(0.0348807022415213 -8.82211901374249e-05 -4.38731713765277e-20 -5.06468284393641 -0.0371152422051273 5.58427651526067e-19 0 0 0)
(0.0363775022772618 -7.14020903169231e-05 2.51588612496501e-20 -4.74524469052469 -0.0382482406197516 -5.60595141903897e-19 0 0 0)
(0.0375426682890206 -5.57021497743575e-05 6.64889921548829e-15 -4.4178992769017 -0.0390582577926112 -1.66972867812689e-16 1.88057103985396e-20 5.19725276973018e-23 -2.1704236200939e-34)
(0.0384008976318822 -4.12630445090805e-05 6.84501597540514e-15 -4.08484951124794 -0.0395732443788553 7.52045800603033e-14 3.26957266198793e-15 5.42315029450107e-18 -1.42084927095085e-29)
(0.0389794220019459 -2.81588507834347e-05 -6.64884456214076e-15 -3.74809866715229 -0.0398217285627723 7.78637868161992e-14 3.03447258613866e-15 5.70038073915733e-18 -1.41921462448343e-29)
(0.0393010602239523 -1.60071147894668e-05 -6.84506897163648e-15 -3.40946724405102 -0.0398300936430534 1.47382912084701e-16 3.1276620269688e-20 1.0899988898414e-22 -2.23446905767041e-34)
(0.0393799499961481 -4.50316252781932e-06 -5.46533481171217e-20 -3.07066281873862 -0.0396127818268041 3.26621837014536e-19 -1.49968533773126e-20 -5.47612064501886e-23 8.75360103903924e-40)
(0.0392349257088233 5.87630233838966e-06 2.7837370455914e-20 -2.73328878074249 -0.0391893812476408 -3.44100787806687e-19 0 0 0)
(0.0388942535772039 1.48217776431209e-05 7.62689102041806e-15 -2.39875093175085 -0.0385902742408327 -1.09456193575837e-16 0 0 0)
(0.0383886671598129 2.22304673450701e-05 7.81134965572264e-15 -2.06825705366907 -0.0378444743320915 8.40463262267115e-14 1.8534410995042e-15 6.24854412100911e-18 -1.68583236135089e-29)
(0.0377478247322487 2.82018479284014e-05 -7.62690697071845e-15 -1.74280699727662 -0.0369837494482642 8.61159203914523e-14 1.63979394471827e-15 6.24089522860418e-18 -1.71385563966619e-29)
(0.0370005493671136 3.27426294099544e-05 -7.81134135258837e-15 -1.42322413660136 -0.03603314842226 8.40724054582933e-17 -4.33781749489168e-21 -2.62931392120412e-23 1.27493578089793e-34)
(0.036173643756942 3.63003477668079e-05 1.60800289692805e-20 -1.11013519971459 -0.0350213892326389 -1.95454680445995e-19 1.5717482587867e-21 1.25831231745791e-23 -6.881896997739e-41)
(0.035271581105536 3.99166677505453e-05 -1.68491956712527e-20 -0.804055076569753 -0.0339522523575907 1.74353149506078e-22 -2.87844576202634e-22 -3.25752233156475e-25 1.37503038858256e-40)
(0.0342935848098707 4.33303274191702e-05 -1.29728790566871e-22 -0.505599360140604 -0.0328218680820262 5.80616377810327e-20 -1.28390368258397e-21 -1.22573709414217e-23 -6.86840688808578e-41)
(0.0332506735255887 4.60172368206263e-05 8.54606144532707e-21 -0.215272117870404 -0.0316477801305656 -8.92167892859179e-21 0 0 0)
(0.0321613598037312 4.71806712817295e-05 0 0.0664840934919523 -0.0304502033375088 -5.55323706137367e-20 0 0 0)
(0.031049371375531 4.7077790055205e-05 0 0.339431526111077 -0.0292497203935705 -5.73044789631458e-20 0 0 0)
(0.0299217482560056 4.73702694885687e-05 -9.46535776133305e-21 0.603437480837986 -0.0280400006586196 1.04202039785473e-19 0 0 0)
(0.0287771583067178 4.81910286786634e-05 -1.01436506556878e-22 0.858332513843421 -0.0268202951977451 -5.20956917964289e-20 2.62193053572371e-22 -9.97914021078736e-24 -7.8072764399722e-41)