/*--------------------------------*- C++ -*----------------------------------*\
  =========                 |
  \\      /  F ield         | OpenFOAM: The Open Source CFD Toolbox
   \\    /   O peration     | Website:  https://openfoam.org
    \\  /    A nd           | Version:  7
     \\/     M anipulation  |
\*---------------------------------------------------------------------------*/
FoamFile
{
    version     2.0;
    format      ascii;
    class       volScalarField;
    location    "20000";
    object      k;
}
// * * * * * * * * * * * * * * * * * * * * * * * * * * * * * * * * * * * * * //

dimensions      [0 2 -2 0 0 0 0];

internalField   nonuniform List<scalar> 
15600
(
2.08142930601015e-06
2.01156164224827e-06
1.38891380246682e-06
6.99306392698086e-07
2.48962337184245e-07
1.10923491845025e-07
1.01762564596352e-07
7.4711702801336e-08
5.37067617357646e-08
4.46351731111352e-08
4.2053000824558e-08
4.39300674689754e-08
4.87982310841318e-08
5.7109509256304e-08
7.05099329767759e-08
9.09435003161704e-08
1.20482611723009e-07
1.62123945618352e-07
2.18531383238158e-07
2.91555198806717e-07
3.83811739055782e-07
4.97708130454474e-07
6.30253871584337e-07
7.76099760971798e-07
9.31858586625591e-07
1.1078624937747e-06
1.3976168687464e-06
1.78658001424987e-06
2.15213291372954e-06
2.49396846961427e-06
2.81819651851919e-06
3.12793979939864e-06
3.42536316145203e-06
3.71212192963127e-06
3.99182105120932e-06
4.25767956267149e-06
4.50316013076169e-06
4.72620635614481e-06
4.92548276362285e-06
5.09989537776188e-06
5.24887536549731e-06
5.37253007942542e-06
5.47153870540747e-06
5.54684085406057e-06
5.59962832219062e-06
5.63127526275582e-06
5.64333354561234e-06
5.63742697576308e-06
5.61514095933685e-06
5.5779149688554e-06
5.52741431796312e-06
5.46556096514737e-06
5.3942234202625e-06
5.31521632078468e-06
5.23014230353191e-06
5.14051473143083e-06
5.04713575734832e-06
4.950432925544e-06
4.85162853109816e-06
4.75140806296252e-06
4.65095668648188e-06
4.55077780895323e-06
4.45080708534055e-06
4.35142021517096e-06
4.25289212638289e-06
4.15558339296012e-06
4.05955530215751e-06
3.96487113789947e-06
3.87156614783383e-06
3.77974917456799e-06
3.68938899262895e-06
3.6004261435637e-06
3.51275208311592e-06
3.42629797695088e-06
3.3409471005391e-06
3.25651428383032e-06
3.17281778550348e-06
3.08962665483381e-06
3.00672899025541e-06
2.92380284645367e-06
2.84055856046551e-06
2.75652867567233e-06
2.67137310170676e-06
2.58432013643083e-06
2.49504634457775e-06
2.40263009297176e-06
2.31137102108223e-06
2.21681447977705e-06
2.11818163577712e-06
2.01014187640355e-06
1.89419685989889e-06
1.75834331772894e-06
1.60822522758896e-06
1.40930245854351e-06
1.36546568454793e-06
1.65053683301302e-06
1.96789360117594e-06
2.27788079017214e-06
2.5603783750071e-06
2.82996773079091e-06
3.11628989691823e-06
3.36004359573293e-06
3.49944150642399e-06
3.54264762296855e-06
3.49755986470674e-06
3.33754101187864e-06
3.15701662125165e-06
3.03235055605285e-06
2.96523242054961e-06
2.98754046802246e-06
3.17077256533853e-06
3.45485924861264e-06
3.7156007395512e-06
4.04145702722933e-06
4.19309956803509e-06
3.7928165017466e-06
3.04535947406803e-06
2.36164080513226e-06
1.8888906049056e-06
1.86357646471278e-06
6.70680890635403e-05
6.50215207858478e-05
4.4928668522644e-05
2.27115003853994e-05
8.15135608891057e-06
3.621692577115e-06
3.3038333762813e-06
2.43552740509676e-06
1.75212555210691e-06
1.45270497217362e-06
1.36565959886152e-06
1.42377107553557e-06
1.57920989284349e-06
1.84554983679031e-06
2.2756835050983e-06
2.93277247873262e-06
3.8838869064714e-06
5.22639801478957e-06
7.0480471682617e-06
9.40955027394643e-06
1.23954700723533e-05
1.60858167218364e-05
2.03859263696952e-05
2.51218125722258e-05
3.01821424405128e-05
3.58769710518137e-05
4.52170686176187e-05
5.77553330748598e-05
6.95458026205979e-05
8.05672043135745e-05
9.10184141179748e-05
0.000101000569472786
0.000110584090122799
0.000119822682477333
0.0001288336192572
0.000137322889130922
0.000145135628516037
0.000152225619097482
0.000158552367859506
0.000164083400498178
0.000168802979071086
0.000172716469039446
0.000175846687056566
0.000178224439995898
0.000179888187848946
0.000180881972029586
0.000181255184651297
0.000181059297980247
0.000180344372975453
0.000179156097144391
0.000177547208485535
0.000175578290338297
0.00017330828514233
0.000170794291232382
0.000168086927336261
0.00016523378313237
0.000162260340265786
0.000159180367720311
0.000156032633929206
0.000152838873198761
0.000149636430529884
0.000146441460811547
0.00014325191186146
0.00014007994406266
0.00013693430234518
0.000133826048489552
0.00013075757299315
0.000127730927753851
0.000124747341698963
0.000121810270545476
0.000118918873261539
0.000116071306167551
0.000113264195170585
0.000110495359814927
0.000107761150362392
0.000105055757037527
0.00010237338389474
9.97067371017877e-05
9.70490232412112e-05
9.43901074038674e-05
9.17206435110256e-05
8.90259386928529e-05
8.6294820053667e-05
8.35032383129161e-05
8.06399418938959e-05
7.76683034087182e-05
7.47222744298153e-05
7.16697794077333e-05
6.84858861455595e-05
6.49981483067885e-05
6.12556700886066e-05
5.68699557673419e-05
5.20252394153205e-05
4.56124510076728e-05
4.42252841837801e-05
5.32408698186185e-05
6.34163904638279e-05
7.3329459065711e-05
8.23839119089094e-05
9.10300141297873e-05
0.00010014336067303
0.000107904372232453
0.000112410541129528
0.000113875879885626
0.000112532065138844
0.000107610353338386
0.000101963945827905
9.80020584117207e-05
9.58594858264344e-05
9.65631785028631e-05
0.000102268359653757
0.000111168554063148
0.000119435474377557
0.00012964484395959
0.000134505646223427
0.000121984616759452
9.79173737374273e-05
7.61155116364196e-05
6.10237232350749e-05
6.02812824530291e-05
0.000481579797439938
0.000470699195800812
0.000326862008971563
0.000166629298792061
6.06368315326564e-05
2.67533553346882e-05
2.4170252402205e-05
1.79106859686576e-05
1.29128580127631e-05
1.06911710301832e-05
1.00377265411551e-05
1.04414716715635e-05
1.15606141173891e-05
1.34855755257327e-05
1.6599626101759e-05
2.13641442472761e-05
2.82650008487297e-05
3.80064291981719e-05
5.12255520844615e-05
6.83498889213333e-05
8.99646711347812e-05
0.000116631043118265
0.000147653484226702
0.000181734493338253
0.000217990553792666
0.000258426500423873
0.000324011152598817
0.000411456059786465
0.000493184172333926
0.000569131471411659
0.000640779677294556
0.000708902894017468
0.000774042697215718
0.000836596157696529
0.000896628873838984
0.000951952073202677
0.00100263933423128
0.00104845712062426
0.00108921688761647
0.00112477898247645
0.0011551029101769
0.00118026843937173
0.00120044907720635
0.00121585878621437
0.00122675019374856
0.00123340437366792
0.00123612950169612
0.00123524260884234
0.00123104908865733
0.00122382978477133
0.0012139080802518
0.00120165367260702
0.00118742812882509
0.0011715813220569
0.00115442735577029
0.00113626110084088
0.00111724656211519
0.00109747468891292
0.00107719454009674
0.00105654497882031
0.00103576252440684
0.00101496063623531
0.000994149971417191
0.000973361416121861
0.000952681085883082
0.000932184134995847
0.000911892790711565
0.000891824257876292
0.00087199111166037
0.000852418517890906
0.000833106164889854
0.000814045419956436
0.000795217732844423
0.00077661096528765
0.000758204079704966
0.00073996194233934
0.000721847723501744
0.000703815324282831
0.000685820214920385
0.000667797796024276
0.000649685088779452
0.000631387412575487
0.000612825912918007
0.000593847123638487
0.000574362893714234
0.000554059196382004
0.000533557410635899
0.000512296309620308
0.000490090679369806
0.00046575232927531
0.000439585218319512
0.000408893605497881
0.000374882915297169
0.000329901937372857
0.000320337827803473
0.000379193878791183
0.00044754840251047
0.000514110451186636
0.0005751912448795
0.00063342565473537
0.000693743823877381
0.000745620317841016
0.000777486344944719
0.000789814476163471
0.000783873784515992
0.000755291745633547
0.000720181958432649
0.000694192490562733
0.000679497209474046
0.000683063008740532
0.000717631294431974
0.00077340872469316
0.000826234609859073
0.000890649970934605
0.000923632174888664
0.000849655192798719
0.00068768949514555
0.00054289871861936
0.000441410899225661
0.000437572757569606
0.00168175868425876
0.00165850800236687
0.00118122142976213
0.000622899887232799
0.000235154286027508
0.00010179665453114
9.06487772752234e-05
6.76064727380474e-05
4.89070487215831e-05
4.04688002840012e-05
3.79692820472987e-05
3.93829914899116e-05
4.34900098484774e-05
5.05799141119073e-05
6.20540935673476e-05
7.95857372684377e-05
0.00010488508009681
0.000140379125989894
0.000188141516559192
0.000249309970360572
0.000325406981548967
0.000417743039969082
0.000523284180045656
0.000637082402753517
0.000755776394296338
0.000885795813733019
0.00109019580573523
0.00135309087603411
0.00159145820265755
0.00180837305476143
0.00200909317995908
0.00219688627435965
0.00237386961768053
0.00254130951896425
0.00269459853599244
0.00283503861133775
0.00296269976573522
0.0030774257371438
0.00317911505168471
0.00326773809490903
0.003343446927822
0.00340661371284246
0.00345776746060968
0.00349748914877697
0.00352641203360009
0.003545207803887
0.00355458685556733
0.00355526510817042
0.00354792302843179
0.00353318783095308
0.00351177633683102
0.00348450467168506
0.00345217733217002
0.0034155730659261
0.00337540355030473
0.00333234068590328
0.00328678352123315
0.00323895818326822
0.003189466935829
0.00313863981044164
0.00308722963889053
0.00303521111599153
0.00298270892191029
0.00292986773185425
0.00287691363533761
0.0028240499259626
0.00277136248088926
0.00271891609902134
0.00266676561325664
0.00261499140843784
0.002563618359663
0.00251264514207302
0.00246204475881794
0.00241180132471117
0.00236187810556118
0.00231220208257395
0.00226268928545358
0.002213231971109
0.00216372024730741
0.00211399631901657
0.00206389476284752
0.00201317453941968
0.00196161315767256
0.00190881655133167
0.0018545076882029
0.0017979311010114
0.00173891489784836
0.00167749068168604
0.00161305473509262
0.00154224545281887
0.00146562641024159
0.00137528063232897
0.00127409257812109
0.00113899709597247
0.00110967939506513
0.00126867851766208
0.00145851181697784
0.0016443604473391
0.00181667553610937
0.00198145777483536
0.00214945803074534
0.00229751074439679
0.00239794228550295
0.00244869671207821
0.00245165832304876
0.00239613756448803
0.002316345059377
0.00225354392718171
0.00221735818603475
0.00222834504327958
0.00231690301615812
0.00246349446578406
0.00260038517828028
0.00276291066820471
0.00284288256196237
0.00266737309217224
0.00220166482829146
0.0018027833327644
0.00153393873576111
0.00154682985068905
0.00366979455586721
0.00365926905292355
0.00275638622501089
0.00157342255697207
0.000649247902282182
0.000275446721266405
0.000239518014570724
0.000179959006438265
0.000130823782592413
0.000108277884233811
0.000101514294610375
0.000104876923691086
0.000115301718395747
0.000133346996843359
0.000162446371114953
0.000206512554716787
0.000269165056892263
0.000355206403894259
0.000467794331567369
0.000607136723641229
0.000774001845493052
0.000968581808502192
0.00118270189059195
0.00140637149762707
0.00163522803224455
0.00188589156537509
0.00226134351388019
0.00271497577917057
0.00311255666167896
0.00346793164289614
0.00379090601983513
0.0040888456489292
0.00436602786435453
0.00462011772121741
0.00485105855466601
0.00506120164734254
0.00525104009764328
0.00542078111975382
0.0055706469610263
0.00570091775600543
0.0058120748001836
0.00590484691413342
0.00598012612665907
0.00603884201322556
0.00608196250566184
0.00611048336046316
0.00612542966848566
0.00612781940895546
0.00611861370390592
0.00609870120725787
0.00606907538813506
0.00603085008146541
0.00598512450440478
0.00593295460368131
0.00587531500199345
0.00581312452637594
0.00574696952524904
0.00567718780278801
0.00560474614321775
0.00553027165757422
0.00545420867850511
0.00537682420635057
0.00529833368261137
0.0052189679778212
0.00513905382507853
0.00505889266031572
0.00497863783957616
0.00489840313884861
0.00481829011275697
0.00473842964332575
0.00465888487048369
0.0045796766160466
0.00450078924623054
0.00442221753696788
0.00434392970133814
0.00426584306799386
0.00418785235874707
0.00410981911871343
0.00403159590539962
0.00395297247320203
0.00387371566030974
0.00379349222046487
0.00371197257991401
0.00362860758161516
0.0035429626820172
0.00345399062585689
0.00336033074442528
0.00326201531776317
0.00315880611919059
0.00304569592602632
0.00292313159827423
0.00277864879763122
0.00261612098727696
0.00239812968368429
0.00234466582797904
0.00257420985058573
0.00286209931321376
0.0031518940985668
0.00342866678691807
0.00369850595655679
0.00397354817936204
0.0042247664443692
0.00441448685326903
0.00453508429654077
0.00458642761327635
0.00455346711182237
0.00447503035708287
0.00441148222088737
0.00438173719048132
0.00442093636644075
0.00456867573078663
0.0048089084665408
0.00502709871278274
0.00527632727819108
0.00538552398626288
0.00515699796586723
0.00435901660580479
0.00368415414641137
0.00328590838060682
0.00338608342262969
0.00576252368261798
0.00581818852350931
0.00469988809494849
0.00297259115013355
0.00141966808886791
0.000608824469453147
0.000508698543499396
0.000385107578482273
0.000281947057418772
0.000233609148503207
0.000218660754481502
0.000224541936187149
0.000244951718741867
0.000280387196794633
0.000336999039460227
0.000421050574571873
0.000537076596673904
0.000690459892618456
0.000882396127389068
0.00110917886913595
0.0013694220713303
0.00166169524799322
0.00197436504195634
0.00229688898505979
0.0026299049566894
0.00300285467813879
0.00352826620039537
0.00412278126955627
0.00463488915491193
0.00508920090675805
0.00549833012973613
0.00587296870645162
0.00621741331757336
0.00652904441430999
0.00681214624012446
0.00706864870202208
0.00729941892166825
0.00750499429117629
0.0076858856582305
0.00784264737361363
0.00797603083913145
0.00808703678172247
0.0081768235930984
0.0082465756695398
0.00829750093956166
0.00833082481049826
0.00834779134883532
0.00834962871286285
0.00833749681717435
0.00831247290224005
0.00827573788825045
0.00822859799501752
0.00817234261838208
0.00810820061454871
0.00803731292356403
0.00796075178523788
0.00787924507683895
0.00779335378641289
0.0077043876183184
0.00761254942630485
0.00751848099470559
0.00742259271237439
0.00732516412163088
0.00722648166606476
0.00712692960319955
0.0070268674215443
0.00692649731203525
0.00682596658964039
0.00672540929343823
0.00662498720626393
0.00652479304328796
0.00642486643926676
0.00632520520053386
0.00622581497320022
0.0061266741292882
0.0060277042032421
0.00592879562423642
0.0058298025976424
0.00573056562868017
0.00563086026928418
0.005530428002092
0.00542890603800511
0.00532591993629299
0.00522087426213843
0.00511326462424219
0.0050019702957898
0.00488562069489158
0.00476249718119244
0.00463383613817419
0.00449404074208506
0.00434340998799551
0.00416778729317342
0.00397166580080991
0.00371334186579571
0.00363507144802179
0.00387586962021485
0.00420622584169345
0.00455494375800737
0.00490078114188738
0.00524584289638563
0.00559931334556781
0.00593093080081815
0.0061997647789869
0.00639365257339053
0.00650983360216843
0.00653296635099198
0.00649732077596591
0.00646954159733903
0.00647447357604776
0.00655838813271808
0.00675927496290747
0.00707611466644469
0.0073658235229252
0.00769044765141551
0.00783460185328729
0.00762599314160544
0.00660482567418588
0.00567040378513755
0.005149578359554
0.00530976119972859
0.00749448543933557
0.007612373037751
0.00655484114695766
0.00455444292962723
0.00254701278937562
0.00117265716524127
0.000922721558157349
0.000702663727718991
0.00051953425608818
0.000431294870273059
0.0004023801075666
0.000409573029673481
0.000441491634650007
0.000497531857843604
0.000586163058131231
0.000714593581311856
0.000886033828108117
0.00110413559552446
0.00136660757606893
0.00166668118765923
0.00200266624463258
0.00237286945816416
0.00276527527833987
0.00317219045826797
0.00360061432124135
0.00408724970470167
0.00473107812933997
0.00542216467096947
0.0060152766409434
0.00654056385368256
0.0070121854152585
0.00744290096840911
0.0078346650080283
0.00818903537263229
0.00851052082512993
0.00880105723418986
0.00906176887888679
0.00929343206483953
0.00949676666806751
0.00967253064690145
0.00982167314322218
0.00994539356798778
0.0100450479443508
0.0101220134738959
0.010177680503801
0.0102134502834668
0.0102307350378367
0.0102309265807967
0.010215343415318
0.010185214617148
0.0101418670946944
0.0100867540819697
0.0100213106796648
0.00994689586215194
0.00986477650297842
0.0097761403454709
0.00968186178443891
0.00958303276930728
0.00948042379529025
0.00937439105339356
0.00926568480340154
0.00915480637929405
0.00904208754737879
0.00892785759127548
0.00881254102391284
0.00869653811258523
0.00858008916990372
0.00846336724831399
0.00834653090859396
0.0082297632909855
0.00811317962504395
0.00799683422773177
0.00788073620128646
0.00776489965255114
0.00764931179902823
0.00753390032745047
0.00741855550599689
0.00730313058094198
0.00718746183483016
0.00707132262181883
0.00695444427453196
0.00683645705607199
0.00671696639721017
0.00659537244250312
0.00647113775233123
0.00634315708688902
0.00621032939046021
0.00606965071689692
0.0059230719117912
0.00576526854354311
0.00559638660637772
0.00540233998157259
0.00518760627396045
0.0049131306169452
0.0048124218491372
0.00503706829763873
0.00537986558606232
0.00576044996222001
0.0061509783986355
0.00654827177533259
0.00695704959111141
0.00734674624176559
0.0076760865330552
0.00793043165329422
0.00810507168247483
0.00818651148589478
0.00820371275808874
0.00822275008563159
0.00827058140260599
0.00840100541661118
0.0086471894528743
0.00902393545064698
0.00937944327514193
0.00977771695438003
0.00998023471347321
0.00983640132548194
0.00873289870320113
0.00756026134833726
0.00683119520350003
0.00697479178136588
0.00884968365002869
0.00900388372217749
0.00812480855659185
0.00608625464723763
0.00387526297908425
0.00202325979469063
0.00147859584067544
0.00112668437126458
0.000843288537920753
0.000701981579780256
0.000651783955013199
0.000656300202696511
0.000697172208066593
0.000771454803712205
0.00088890716197412
0.0010562681570914
0.00127449401869009
0.00154517790739817
0.00186345218355616
0.00222157313945616
0.00261854220691105
0.00305269821468216
0.00351305397711926
0.00399534725879953
0.00451100547159099
0.00509796142922098
0.00583442753957001
0.00659667739429522
0.00725297311821286
0.00783454880900986
0.00835654576471391
0.00883246827773503
0.00926261555256986
0.00965225766165135
0.0100053065842691
0.0103238010398217
0.0106090597688498
0.0108620470669809
0.0110836478839344
0.0112747842850503
0.0114365637488002
0.0115703466021952
0.011677652605731
0.0117600210832644
0.0118189964663978
0.0118561293840301
0.0118729754611179
0.0118710675430274
0.011851863162886
0.0118167243623919
0.0117671034108469
0.0117045788557853
0.0116307100144562
0.0115469656067015
0.0114547186932033
0.0113552542198435
0.0112498495345771
0.0111395659672877
0.0110248876600559
0.0109063685091273
0.0107848335006776
0.0106608534240879
0.0105348063836489
0.0104070588723517
0.0102780685959308
0.0101482690963921
0.0100179331090387
0.00988725594655584
0.00975641706140911
0.00962561714829583
0.00949499024399719
0.00936460326628201
0.00923447535314676
0.0091046281156584
0.00897505668192641
0.008845695033042
0.00871643478345658
0.00858713046765645
0.00845761731090876
0.00832767057588397
0.00819701751746028
0.00806528967746916
0.00793208266428697
0.00779680743889078
0.00765890892407383
0.00751732841452712
0.00737106891788812
0.00721694182365947
0.00705641374204155
0.00688507213922002
0.00670284623137458
0.00649658843627556
0.00627010888183241
0.00599002441344923
0.00587175938756374
0.00607262701113432
0.00641411361121028
0.00681173777643315
0.00723189431234819
0.00766616770792486
0.00811458271923024
0.00854615521716656
0.00892026167428723
0.00922119198742347
0.00944299441935355
0.00957445046455936
0.00964076935585099
0.00970522254614462
0.00979492617914512
0.00996804255543042
0.0102534508204114
0.0106769587236071
0.0110903137722789
0.0115541135273486
0.0118237265319617
0.0117582719501753
0.0106836098959691
0.00936256444267664
0.00835132246335402
0.00835823170350656
0.00992706408463492
0.0100580248149584
0.00940939125950446
0.00746764057683762
0.0052493904155744
0.00311865750737062
0.00214875247390006
0.00162618554722547
0.00123221408659708
0.00102909309105992
0.000950570499447157
0.000947024853959421
0.000991884316012869
0.00107916691535966
0.00121900288958427
0.00141709443865215
0.00167241100978809
0.00198485500614901
0.00234795627187073
0.00275404438895511
0.00320279875032127
0.00369259012119238
0.00421391475821101
0.00476531915075923
0.00536035795405218
0.00603472344539976
0.00684674433935044
0.00766719033503213
0.00837740757070102
0.00900753768055647
0.00957348372780167
0.0100882356875175
0.0105526583753156
0.0109734389918441
0.0113542871846067
0.0116973733347997
0.0120041827686179
0.0122758428399448
0.0125133815525767
0.0127178645125656
0.0128905366455777
0.0130328995710418
0.0131466195665325
0.013233382141077
0.013294870893706
0.0133327717466427
0.0133487704611812
0.0133445286643068
0.0133216323011745
0.0132815655700222
0.013225894463354
0.0131563108389128
0.0130744860867174
0.0129819870538377
0.012880281467494
0.0127708326180355
0.0126553243318076
0.0125344042941823
0.0124086126210277
0.0122786368606739
0.0121453611976392
0.0120094150706616
0.011871219302385
0.0117311745384027
0.0115897682742686
0.0114474634895387
0.011304561783805
0.0111612788000387
0.0110178129516941
0.0108743808309935
0.0107311331655647
0.0105881483156135
0.0104454547417099
0.0103030813246088
0.010161030730244
0.0100192431770003
0.00987761249952315
0.00973599571965788
0.00959422893937126
0.00945209127715055
0.0093093092318104
0.0091655193801274
0.00902031329603082
0.00887311922622144
0.00872337349596638
0.00857007511854042
0.00841227607912721
0.00824708586054333
0.00807490247687926
0.00789260231147218
0.00769980102759158
0.00748469410964509
0.00725005612651474
0.00696898877449062
0.00683811487156067
0.00701500953766144
0.0073488368786194
0.00775485068293701
0.0081949184920226
0.00865584372738339
0.00913316421590982
0.00959528196585261
0.0100025748926331
0.010339088343693
0.0105981610077267
0.0107705707479552
0.0108791377193657
0.0109838259505859
0.0111112951848972
0.0113216570882778
0.0116411176845558
0.0121013003408876
0.0125634784791837
0.0130808341814294
0.0134134002723583
0.0134188724855452
0.0124223802853722
0.0110620007994976
0.00981159340825122
0.00955001959136022
0.0108652427681888
0.0109069951797398
0.0104484745557196
0.0086599556559547
0.00660236691804017
0.0043775733468469
0.00290878671670612
0.002168171951764
0.0016578965659978
0.00138890525979474
0.00127717673315822
0.00126128617655664
0.00130592806493847
0.00140178163762172
0.00155854823285564
0.00178077713620747
0.00206595995524203
0.00241265977161363
0.00281346505819747
0.00326117998296309
0.00375597081950933
0.00429625770912068
0.00487397988989246
0.00548958984570336
0.00615705043873964
0.00690838510742762
0.00778526018145321
0.00865716566523616
0.00941613351211571
0.0100904665893299
0.01069672589088
0.0112467013588309
0.0117428560099236
0.0121922781316069
0.0125986458290326
0.0129642722146792
0.0132907967963755
0.0135794973604884
0.013831533323573
0.0140481026533171
0.0142305760600762
0.0143805857819974
0.0144999355278353
0.0145904483401701
0.0146539387078398
0.0146922199640244
0.0147071004851354
0.0147003636155095
0.0146737176392861
0.0146287623826118
0.0145671705920958
0.0144907403196678
0.0144012475942106
0.014300350014802
0.0141896019968911
0.0140708763184332
0.0139457733251354
0.0138147498760939
0.013678456888316
0.0135376826659216
0.0133933625334315
0.0132461782628374
0.013096590871569
0.01294503327364
0.0127920209657083
0.0126380441938776
0.0124834309490969
0.0123284159131186
0.0121732152854514
0.0120180607896556
0.011863118513848
0.0117084774897926
0.0115541750159671
0.0114002472703297
0.0112467043687471
0.0110934926857496
0.0109405088498135
0.0107876131457697
0.0106346439639662
0.0104813854433957
0.0103275655212295
0.0101728278295415
0.010016763863557
0.00985882220756933
0.00969843727288702
0.00953466919395812
0.00936660040137477
0.00919182152982969
0.0090094986781291
0.00881788953599404
0.0086162603464821
0.00839430499607843
0.00815367073487685
0.00787367286791619
0.00773417770654267
0.00788935234646884
0.00821268909298674
0.00862176087139946
0.00907514069767076
0.00955539461380295
0.0100539197324109
0.0105384263980205
0.0109704658522572
0.0113343355712384
0.011623046758551
0.0118289186251592
0.0119732264942862
0.0121126119573632
0.0122732314585179
0.0125153998472308
0.0128642342174134
0.013353352487105
0.0138561969279915
0.0144158234796722
0.0148030662418797
0.0148666336360889
0.0139562950746086
0.0126209838949067
0.0112363445599278
0.010702651641904
0.0117941398767927
0.0116991785646813
0.011305745450354
0.0096886192621273
0.00783401971423789
0.00572653087540383
0.00376615700136969
0.00273827004509061
0.00210050894249512
0.0017629853516066
0.00161544153750041
0.00158478029060205
0.00162684608894956
0.00172864777000137
0.00189872165272332
0.00214052780185936
0.00245058778470496
0.00282647829286203
0.00326031299935412
0.00374549125224013
0.00428251031168721
0.00486984896613573
0.00550063119195322
0.00617640243918429
0.00691045061651766
0.00773082401265411
0.00866582491341132
0.00958550640706346
0.0103901585736808
0.0111061345969085
0.0117506022052896
0.0123335905211836
0.0128598602896926
0.0133363524272313
0.013766795206975
0.0141536509741729
0.0144987080987725
0.0148033885282902
0.0150689767907574
0.0152967972603023
0.0154883399646478
0.0156453621710433
0.0157698005714236
0.0158636113015774
0.0159287353058565
0.0159671090989804
0.0159806595243706
0.0159712876215141
0.0159408206667507
0.0158909702351681
0.0158235117028264
0.0157403451196182
0.0156433465258514
0.0155342593546015
0.0154148056003947
0.0152872588838479
0.0151528341873683
0.0150120508761103
0.0148656505094835
0.0147145034239366
0.0145595915939174
0.0144016450425308
0.0142411630984585
0.0140786097157445
0.0139145274705135
0.0137494326064612
0.0135836776772547
0.0134175154328127
0.0132511790912958
0.0130849151813937
0.0129189042677733
0.0127532454693143
0.0125879845434741
0.0124231650915997
0.0122588047371449
0.0120948559285103
0.011931218469201
0.0117677564547707
0.0116043116768478
0.0114406741016369
0.0112765747051199
0.0111116653798084
0.0109455405439805
0.0107776706242243
0.0106074936224276
0.0104341308739715
0.0102566897497733
0.0100731027332027
0.00988190536108187
0.00968212241442112
0.00947286171715285
0.0092453321740486
0.00900014583325372
0.00872209969477287
0.0085768983153588
0.00871318496432955
0.00902495697193981
0.00943365991631935
0.00989564830983662
0.0103897793296058
0.0109036905865494
0.011404449879901
0.0118549274087867
0.0122399863533708
0.0125525726324857
0.0127860966986294
0.012960732788636
0.0131298896781773
0.0133193571947121
0.0135884170390867
0.0139623241186645
0.0144742500092396
0.0150109364780384
0.0156035942899076
0.0160372823614596
0.0161471531306014
0.0153150730358616
0.0140278062150461
0.0125981343965164
0.0118621890538187
0.0127367404670996
0.0125089449778713
0.012049803966046
0.0106027015959793
0.00892963394822649
0.00709286192236171
0.00474543762129265
0.00334328642366002
0.00255360724088623
0.00214218184192605
0.00195740425900712
0.00191056258975514
0.00194889537714962
0.00205522138483645
0.00223624538324561
0.00249445790669131
0.00282586380326234
0.00322739950456863
0.00369102716387573
0.00421074431997218
0.00478727734991068
0.00541914879710646
0.00610034919203847
0.00683289006608015
0.00762877509823021
0.00851228940256501
0.00950111601801943
0.0104664901576096
0.0113149786161528
0.0120710888876266
0.012752398883305
0.0133672059719992
0.0139225837654315
0.0144251626158482
0.0148787649227604
0.0152860078718808
0.0156488270074865
0.0159687859877176
0.0162472912737173
0.0164857910678202
0.0166858916058987
0.0168494729370543
0.0169786033585653
0.0170753704583802
0.017141839741479
0.0171800691296991
0.0171921020381311
0.0171799551916981
0.0171455733575139
0.0170907778072931
0.0170174443642478
0.0169275728449551
0.0168231365439309
0.0167059607673961
0.0165781465311319
0.0164419474296034
0.0162983627191249
0.0161480276081228
0.0159917625873036
0.0158305087309893
0.0156652920867257
0.0154968880984413
0.0153258329398827
0.0151526208002909
0.0149778209507866
0.0148019749104345
0.0146254583838559
0.0144485414046537
0.0142714736984239
0.0140945165251018
0.013917864321631
0.0137416258093993
0.0135658548830097
0.0133906027371369
0.0132158946430155
0.013041689042466
0.0128678891596266
0.0126943633107655
0.0125209576091775
0.0123474684672343
0.0121736311352107
0.0119991065411478
0.0118234944396481
0.0116462878466326
0.0114669330992498
0.0112846113743388
0.0110984553947331
0.0109066632264428
0.010707466724308
0.0105003176575894
0.0102842913642089
0.0100520391075828
0.00980332743390112
0.00952756743323395
0.00937868293164919
0.00949880038635301
0.00979882057306844
0.0102048686707823
0.0106719543688116
0.0111757074018099
0.0117003889051352
0.0122125770464413
0.0126766246061293
0.0130781643652848
0.0134102401134699
0.0136669480333054
0.0138675392631228
0.0140622758447537
0.0142767486416718
0.0145683365544753
0.0149632996455412
0.01549292283226
0.0160577882920946
0.0166761927025891
0.0171494424101014
0.017296293069987
0.0165306654182618
0.0152944423784646
0.0138696563966839
0.0130113984474304
0.0136785275680042
0.0133482113956701
0.0127484075043884
0.0114554780231594
0.00989023864827123
0.00839852480556306
0.00584652429941347
0.00400041634898521
0.00302114555428243
0.0025258706646963
0.00230122592586382
0.00223675669691951
0.00227050973480927
0.00238039522178681
0.00257066037964037
0.00284291159849942
0.00319300373770957
0.00361754246381602
0.00410855622319303
0.00466060056523474
0.00527456648798512
0.0059489843074363
0.00667840688922013
0.00746486589398698
0.00831878397045592
0.00926108946069579
0.0103009692308828
0.0113108751081064
0.0122021375586149
0.0129975569852083
0.0137146886969226
0.0143609372267844