/*--------------------------------*- C++ -*----------------------------------*\
  =========                 |
  \\      /  F ield         | OpenFOAM: The Open Source CFD Toolbox
   \\    /   O peration     | Website:  https://openfoam.org
    \\  /    A nd           | Version:  7
     \\/     M anipulation  |
\*---------------------------------------------------------------------------*/
FoamFile
{
    version     2.0;
    format      ascii;
    class       volScalarField;
    location    "20000";
    object      k_diff;
}
// * * * * * * * * * * * * * * * * * * * * * * * * * * * * * * * * * * * * * //

dimensions      [0 2 -3 0 0 0 0];

internalField   nonuniform List<scalar> 
15600
(
0.000696787821709025
0.000674986878917617
0.000464244694145055
0.000233584283766649
8.39539310375558e-05
3.70667929188672e-05
3.26585786131418e-05
2.2419483035639e-05
1.47556618042348e-05
1.10469021228913e-05
9.35386665605366e-06
8.85524959806527e-06
8.98667155505135e-06
9.67655173728621e-06
1.10586202055719e-05
1.32274260665089e-05
1.62103262925167e-05
2.01477842928284e-05
2.50880307431422e-05
3.09924042396375e-05
3.80477501050921e-05
4.65276604452779e-05
5.62318914197156e-05
6.69306063419076e-05
7.87236766877518e-05
9.29542472096981e-05
0.00011734494212634
0.000149997360010608
0.000180685743138852
0.000209381046509398
0.000236598935703161
0.000262602333394976
0.000287574078454917
0.000311653195013212
0.00033514637170991
0.00035726728001935
0.0003776248074007
0.000396101871999461
0.00041259211308043
0.000427010188878355
0.00043931444989764
0.000449518305963227
0.000457680697542993
0.000463881548709597
0.000468220827063994
0.000470813167018689
0.000471787223876865
0.000471277152403981
0.000469413475686874
0.000466315436126126
0.000462120646616322
0.000456987131308007
0.000451068673150665
0.000444514196776503
0.000437455778264726
0.000430017509051045
0.000422265963955036
0.000414237196436481
0.000406032290724594
0.000397707960305468
0.000389361455850247
0.000381034928655172
0.00037272304942429
0.00036445754908119
0.000356261202329173
0.000348162681694963
0.000340168305344351
0.000332283397240833
0.000324511160602204
0.000316860553470909
0.000309329388208534
0.000301912840615413
0.000294602119122318
0.000287391519908857
0.000280271525751857
0.000273227011139913
0.000266242864711789
0.000259300104829694
0.000252381019776159
0.000245459260086069
0.000238510457868614
0.00023149644946866
0.000224388048588703
0.000217122888749156
0.000209671415710446
0.000201937175798557
0.000194267024174598
0.000186319762618278
0.00017803025744307
0.00016895020821132
0.00015920633305223
0.000147788906868418
0.000135173443667539
0.000118454458712682
0.000114669145297016
0.000138769100631095
0.000168628311814142
0.000201642697604634
0.000237289564062037
0.000277917661803539
0.000327756797835071
0.000381506764048036
0.000430485149796583
0.000472429973458404
0.000505058535925027
0.000521118376633079
0.000533386639067333
0.000556866904464553
0.000595722785470967
0.000661400677334144
0.000778880322808655
0.000940097236548891
0.00110444060059845
0.0012840259911235
0.00138969990776315
0.00127397484156275
0.00101410735101989
0.000788377963226134
0.000633721814434955
0.000626518665567956
0.0037284315333545
0.00365117677680252
0.00252313040653764
0.00128008167759629
0.000466990055542819
0.000204157485076879
0.000177811535531152
0.000122774331171074
8.10255028008383e-05
6.05979556443145e-05
5.1271041711552e-05
4.84280632188945e-05
4.90565702453369e-05
5.27226557445031e-05
6.01457482392057e-05
7.18460448426548e-05
8.79683175870061e-05
0.000109268713813644
0.00013602118035283
0.000168003831035647
0.000206198940740742
0.000252105079693468
0.000304686159202702
0.000362651148402844
0.000426352842524589
0.000502576086485498
0.000632070847765018
0.000805255810667161
0.000968049816312456
0.00112026342712023
0.00126471738334389
0.00140286925778203
0.00153573645086838
0.00166404695061237
0.00178725602541874
0.00190057013281132
0.00200485861416892
0.00209953473032662
0.00218411546002488
0.00225822334192424
0.00232169113727987
0.002374606135853
0.00241725656337272
0.00245002705997802
0.00247339427378961
0.00248790641793459
0.00249417857256048
0.00249285415227595
0.00248456068649322
0.00246988492819623
0.00244950685936322
0.00242420440034814
0.00239474174713662
0.00236185806936747
0.00232622026814464
0.00228845218207548
0.00224891061355417
0.00220780028983815
0.00216564966462127
0.00212275539050683
0.00207961010449961
0.00203645925864086
0.00199334756294614
0.0019502998847495
0.00190751903731766
0.00186516138242434
0.00182327632562035
0.00178190020102851
0.00174106010221944
0.00170080672513141
0.00166114057681179
0.00162204381743951
0.00158347876711746
0.0015454197995697
0.00150782403628455
0.00147062062771239
0.00143373442454078
0.00139707273503843
0.00136054526079307
0.00132402383319802
0.00128738155215915
0.00125043230804907
0.0012130167326505
0.00117483738144955
0.00113571244367017
0.00109497374839854
0.00105363556051356
0.00101084937402077
0.0009662413870764
0.000917461381196814
0.000865108779833003
0.000803872653314789
0.000736128391962535
0.000646829481153341
0.00062710061669332
0.000743845433181274
0.000895283735791782
0.00106353516708973
0.00124642681729984
0.00145444785179267
0.00170570545048804
0.00197819472802092
0.0022325909577411
0.00245520762880909
0.00263470821823699
0.00273968792387488
0.00282113575895397
0.00295036142299431
0.00315327695039809
0.00348568460479852
0.00405626655558554
0.00483656596791347
0.00563678313974203
0.00649291523008984
0.00702535909212989
0.00656462239211685
0.00527676963063974
0.00418231642129651
0.00342251384450347
0.00339951247450122
0.00810636943356869
0.00806503666746858
0.00577369394571966
0.00307266329799311
0.00118082138882936
0.000496055492524981
0.0004227121674245
0.00029424446857429
0.000195176133731303
0.000146088858057144
0.000123718224947528
0.000116481095046857
0.000117636712861968
0.000125979423698051
0.000143152538397469
0.00017028170309982
0.000207552065429967
0.000256478570105337
0.000317414652157575
0.0003895132041425
0.000474668151115273
0.000575984134169556
0.00069108835960464
0.000816821702831437
0.000952837439355797
0.00111330907479113
0.0013822076697289
0.00173853916689316
0.00207098137677823
0.0023838395650416
0.00268210512512622
0.00296938130083761
0.00324768555890225
0.00351729899391968
0.0037594531946895
0.00398837590240423
0.0042014801059886
0.00439756722099035
0.00457553817243173
0.00473445423522005
0.00487372840646651
0.0049932023214677
0.00509305876114619
0.00517367450717024
0.00523561856998191
0.0052796308469393
0.00530661366613395
0.00531757295313362
0.00531353922270758
0.0052955353393578
0.00526478657005273
0.00522272310335397
0.00517079713793563
0.00511043303525861
0.00504296950803961
0.00496967876935018
0.00489142149964379
0.00480875998751395
0.00472286768604504
0.00463442810916493
0.00454520823955809
0.00445456535910838
0.00436299669472053
0.00427098163350749
0.0041789634465819
0.0040873458756434
0.00399635130077979
0.00390614485329472
0.00381687044659489
0.00372869371270669
0.00364169924350611
0.00355591838858453
0.00347134023966014
0.00338796154876704
0.00330574927634806
0.00322461649268979
0.0031444531330006
0.00306511862318239
0.00298646545271912
0.00290828950071313
0.00283036739010955
0.00275238978388788
0.00267405517475889
0.00259487518107803
0.00251446858626813
0.00243206922538648
0.0023441876825459
0.00225376278250907
0.00216005104973353
0.00205851803253468
0.00195004410265791
0.00182394984251312
0.00168461647772728
0.00150133097735398
0.00146188625474731
0.00165946644299818
0.00193638423463949
0.00225224613253633
0.00260045351820248
0.00299311544213298
0.003452821002885
0.00395203100152842
0.00443188866371795
0.00486294903405174
0.0052287086087008
0.00548906048693642
0.00570086452939874
0.00597694559101878
0.00636845045955733
0.00696243033824832
0.00788536750330818
0.00911292819736219
0.0103137599742871
0.0115006186650907
0.0121830084661371
0.0117446430685464
0.00965141660460466
0.00813924611414218
0.00726558256713859
0.00749656380604513
0.00909554199529864
0.00947395058573824
0.00769684700435607
0.00482549474200309
0.00220728301450974
0.00087607586751037
0.000711285884588678
0.000499206526319493
0.000333353608521582
0.00025006366862764
0.000211990470273551
0.000198596099569929
0.000199364420837169
0.000211828632403649
0.000238322086834599
0.00027998068416974
0.000336129208918832
0.000407778897834192
0.000493861803868335
0.000591688201727675
0.000703210590949255
0.000832371382952861
0.000976240654768101
0.00113158808326276
0.00130045999332653
0.00151359843182418
0.00187568485574891
0.00233857009963078
0.0027609575749079
0.00316581372590738
0.0035511492524328
0.00392217936588409
0.00427981105967987
0.00459620883759056
0.00490082229847716
0.00518585983158384
0.00545024166073569
0.0056925273776492
0.00591153660890149
0.00610637838643285
0.00627660813579021
0.00642227093982181
0.00654378891926913
0.00664180038062358
0.00671713128607616
0.0067707688081706
0.00680384308780132
0.00681758020579299
0.00681322856853552
0.0067920215179586
0.00675534315415832
0.00670474463700175
0.00664179973242827
0.00656802662888033
0.00648488036500294
0.00639374726457343
0.00629573571798737
0.00619162665392789
0.00608345963788948
0.0059730872590569
0.00585786266344356
0.00574032803627954
0.00562100448794259
0.00550040007212351
0.00537909511557977
0.00525763460726223
0.00513641770298611
0.00501576031247276
0.00489595503640436
0.00477729398381074
0.00466000398845418
0.00454424363111241
0.00443012622616853
0.00431775839613858
0.00420722023306778
0.00409853684506949
0.00399169855638104
0.00388666729789294
0.00378339347521737
0.00368178337232265
0.00358171824761941
0.00348301031207281
0.00338547864634615
0.00328879527363718
0.00319274294835249
0.00309662971031147
0.00299750569023751
0.00289351076762619
0.00278823452246751
0.00267742849406209
0.00256273425387622
0.00243228477520709
0.00229451569759607
0.0021114009948295
0.00206143414720875
0.0022110845634094
0.00245802099009092
0.0027621662311382
0.00311391327478741
0.00351186072637325
0.00396641688017679
0.00446340582772347
0.00495550722260367
0.00540610448162205
0.00580090340330381
0.00611000961791287
0.00635129487775638
0.00662587008258743
0.00698104041987509
0.00748250364009931
0.00815770051312425
0.00904845529684665
0.00979152163247089
0.0104190380735952
0.0105344885292479
0.0105186530859896
0.00846826055054429
0.00722876573418799
0.007233947957775
0.00810202678657257
0.003576353867285
0.00480887844144163
0.00574288728526888
0.00496082052388172
0.00336668506523541
0.00138805034196324
0.00101645901563274
0.000713196831692413
0.000478831034138237
0.000359744309138335
0.000304462660063336
0.000282710569359613
0.000280437369476389
0.000293195846982962
0.000322983088934186
0.000369468191770797
0.000429736980074761
0.000503031539417
0.000586731885849368
0.000678651710487801
0.000783953022574774
0.000908992817153999
0.00105293454974501
0.00121804665665872
0.00142010661550877
0.00171551288261857
0.00218577711207762
0.00270915224940267
0.00315445876865886
0.00357356559793666
0.00395710807099797
0.0043140979387307
0.00463261994695382
0.00491926191355913
0.00518991516230089
0.005435657127721
0.00565668064243662
0.00585302722193074
0.00602488805290664
0.00617261898057994
0.00629682049298187
0.00639836904540022
0.00647834011903262
0.00653788877723741
0.00657821207596561
0.00660054123413447
0.00660613070373664
0.00659624610838782
0.0065721241219604
0.00653493653497831
0.0064858772044959
0.00642620200462251
0.00635715831212094
0.0062799012339848
0.00619553306062672
0.00610507941075788
0.00600946745265577
0.00591071140628207
0.00581093810645121
0.00570498857970472
0.00559672938106391
0.0054865208548037
0.00537477680505801
0.00526187359552989
0.00514820816523027
0.00503416531753434
0.00492005314519348
0.00480611195343008
0.00469257131099457
0.00457965668718678
0.00446756242380266
0.00435643170344651
0.00424638069127804
0.00413752076797027
0.00402995305080378
0.00392374144915897
0.00381892386852005
0.00371552208462913
0.00361355578904161
0.0035130171108793
0.00341388873884271
0.00331609843996882
0.00321961194278368
0.00312426246625625
0.00303006535696531
0.00293658972622297
0.00284791138179936
0.00275065802838941
0.00265493848187204
0.00255693428157407
0.0024601152603022
0.00235381932183096
0.0022540603802814
0.00212231738645759
0.00202759000524851
0.00206841199662311
0.00222710077981149
0.00245776417193368
0.00274662923682049
0.00308163492006684
0.00346569621319475
0.00389811626070417
0.00434757240251798
0.00477718565642695
0.00516799942346041
0.00548247830169421
0.00568961174365191
0.00586365730055194
0.00604114679496982
0.00629665518888382
0.00663132954780492
0.00722943744246276
0.00775389219465482
0.00837614870994503
0.00856846079552103
0.00884874639958064
0.00646437738262355
0.00401688835635953
0.00298240443657023
0.00265192990169928
-0.00148711584514048
-0.000942269703160907
0.00207173864757152
0.0032166057232088
0.00386494930376809
0.0021629086015428
0.00135169045013377
0.000925546662590577
0.000620139641839078
0.000464301607044287
0.000389664933353839
0.000356668401809564
0.000347055176808499
0.000353921307288368
0.000378164104955037
0.000417912756073106
0.00046975103063059
0.000534174474019165
0.000610822762252276
0.000701505996932748
0.000814181540658688
0.000953288512995387
0.0011168887982967
0.0013120821137516
0.00156210060112994
0.00192187268295067
0.00241641743551599
0.0028802988941706
0.00325562504473423
0.00360499919762623
0.00391755755288323
0.00420615882255003
0.00444266275095546
0.00467833765042844
0.00488909653439511
0.00507772303303802
0.00524488685013455
0.00539111179524616
0.00551692914722961
0.00562293445907628
0.00570983231845346
0.00577849322056334
0.00582992332414347
0.00586517920383363
0.00588532219326747
0.00589142159228632
0.0058845447473648
0.00586576183509335
0.00583612446651478
0.00579662370004885
0.00574822356120236
0.00569191372727263
0.00562867853122032
0.0055594102486711
0.00548496299431079
0.00540611550150977
0.00532404111661749
0.00524469585362809
0.00515772240201456
0.00506888338229761
0.00497843011148824
0.00488668750325133
0.00479396756136178
0.00470053584039988
0.00460664912917597
0.00451255550452501
0.00441846085428543
0.00432451517207586
0.00423086077547341
0.00413763044190017
0.00404493989968329
0.00395286465778662
0.00386146282502881
0.00377078746867787
0.00368088679389873
0.00359178220824751
0.00350347367432848
0.00341595092811482
0.00332920310668552
0.00324319939639208
0.00315790167789456
0.0030732248860527
0.002989119911383
0.00290542067899403
0.00282212926607266
0.00273884573374783
0.00265837321374998
0.00257533732532822
0.00249032572735959
0.00240280346295589
0.00231683371572286
0.0022222805989918
0.00213699477506536
0.0020246951474962
0.0018872615104115
0.0018628768044463
0.00196991814821367
0.00215721622479018
0.00240548472456641
0.00270026019887431
0.0030413976389473
0.00343462046991285
0.00386335510116214
0.00430139992663243
0.00473275624205901
0.00512592558897004
0.00542807025270135
0.00568278755124752
0.00589906438646312
0.00617246961487169
0.00651578515896837
0.00723676297573976
0.00802127041541653
0.00919438147107183
0.0100184101291356
0.0109347916012896
0.00858866061962158
0.00432792186780317
0.000971128578476277
-0.000536617563625956
-0.00204885079361445
-0.0023517800003321
-0.000388137974291263
0.00121429353795787
0.00298443859339471
0.00322218423139734
0.00176464815154936
0.00114486984281623
0.000757492476297124
0.000560401821294635
0.000462478571614368
0.000416007284677725
0.000396428163308235
0.000394891630244914
0.00041199189625148
0.00044632918082456
0.000496412132270722
0.000564348580295028
0.000649291671494706
0.000751805988084107
0.000876756030262794
0.00102437692992121
0.00119322160446463
0.0013939581734958
0.001646776256757
0.00199153650442469
0.00241146933520187
0.00276846241774973
0.00306779911611443
0.0033513622626899
0.00360656224138908
0.00383755461047245
0.00403983528083634
0.00423360560594873
0.00440700278629232
0.0045617631319519
0.00469843693226151
0.00481750736347269
0.00491943507271402
0.00500474021812335
0.00507401210310337
0.00512797654585834
0.00516748852225343
0.00519346065746443
0.00520680692657959
0.00520844903307276
0.00519930339314357
0.00518029242209736
0.00515233638945674
0.0051163076774286
0.00507302864140025
0.00502332900646018
0.0049680379320284
0.00490789816576929
0.00484362340663293
0.00477585076800665
0.00471054934260311
0.00464073801502343
0.00456740605412607
0.00449267549367329
0.00441676531812782
0.0043399657042684
0.00426254601792379
0.0041847269640833
0.00410670258973315
0.00402865487758573
0.00395074233832736
0.00387307663467445
0.00379576253079265
0.00371888952807803
0.00364253530349101
0.00356674349666583
0.00349154575636873
0.00341696717646616
0.00334302845541958
0.00326972921882095
0.00319704985798786
0.00312496451151774
0.00305344560164622
0.00298245168076195
0.00291193236750012
0.00284180268796107
0.00277200215194039
0.00270238744868771
0.00263293712811621
0.00256333080821553
0.0024929383501995
0.0024275248282786
0.0023564499037832
0.00228346448066066
0.00221196363045259
0.00213361449328298
0.00206345065038495
0.00197531823681704
0.00183372215062453
0.00176949930245211
0.00182903650858266
0.0019714287580112
0.00217612195979575
0.00242714804331019
0.00272022478079861
0.00306313454440189
0.00345013642330128
0.00386564571688379
0.00429938826699955
0.00473574497914584
0.00512603098935342
0.005500335682579
0.00584543021817476
0.00625974856618547
0.00672671436929186
0.00758635312905315
0.00853113286705351
0.00996438854017399
0.0110498070564252
0.0125692255423534
0.011522416240606
0.00752901827656722
0.00221082041226572
-0.000371985703779938
-0.000755508742503627
-0.00200605046772235
-0.00089778877342425
0.000135684255686943
0.00158251375963512
0.00359997678408746
0.00219759031865286
0.00137627832533789
0.000899803812178069
0.000656059711683222
0.000531053435747219
0.000471330315375522
0.000443516914911319
0.0004371356800581
0.000452603131322511
0.000488651011690132
0.000543548200405794
0.000617195421209085
0.000705363872677544
0.000806721172384238
0.0009247460577659
0.00105946923179142
0.0012122608757368
0.00139428061417392
0.00161889836770644
0.00191545254308455
0.00225202350385165
0.00253239026364407
0.00278473453363325
0.0030270984950514
0.00324812686420488
0.00343766238729544
0.00362672545176487
0.00379526117531226
0.00394629652488272
0.00408102074380519
0.00419987863953936
0.00430330624508167
0.00439170263138324
0.00446553359866352
0.00452531175886832
0.00457166757867566
0.00460535659991132
0.00462719727466482
0.00463800695280006
0.00463861019413226
0.00462982258658833
0.00461246490508014
0.00458736759780074
0.00455532571998058
0.00451706939326651
0.00447332067420302
0.00442480255194714
0.0043721568074569
0.00431600147200982
0.00425905176616102
0.00420418261086469
0.00414213020484464
0.00407893090162815
0.00401461392218697
0.00394936347317581
0.00388344051345145
0.00381709252382711
0.00375051955904195
0.0036838829731939
0.0036173276796351
0.00355098768400119
0.00348495823489945
0.00341932864599561
0.00335416867473281
0.00328953892749983
0.00322547073383031
0.00316198782561801
0.00309910653216853
0.00303683849459044
0.00297517831305946
0.00291410353079104
0.00285358909953322
0.00279360774491699
0.00273412343933208
0.00267509040849662
0.00261644050411764
0.0025581209916316
0.00250003095526354
0.00244214847957842
0.00238426062512826
0.00232602437929811
0.00227288302674853
0.00221371941546743
0.00215437458742522
0.0020966704933292
0.00203483686997561
0.0019798761294439
0.00191901317759048
0.0017938238029709
0.00170686574427562
0.00172672068915235
0.00182621135511427
0.00198733848469
0.0021931740738602
0.00243553565135034
0.00272280922257698
0.00305657320178517
0.00342830274086031
0.00383114182295543
0.0042604775198153
0.00467494698088523
0.00509852385727056
0.00550850895759175
0.00599748702875951
0.00651167938638338
0.00736241317748471
0.0082548570846935
0.00959065786955953
0.0105546634331509
0.0120851393300207
0.0121531390610695
0.0103844374357381
0.00511289001622581
0.00105619846798629
0.00119934386183205
-0.000535653738315504
-0.000550714596675267
-0.00045944693594711
0.00102358466265539
0.00311610400873064
0.00251350594007577
0.00159379866028555
0.00104154687355979
0.000755585118005837
0.000604091311702371
0.000533023684924878
0.000499650443499668
0.000491121832525555
0.000506306432907268
0.000542467302445287
0.000596160813180338
0.000664975259637366
0.000743543163934474
0.000831150355939548
0.000931648038796011
0.0010459247941808
0.00117683264569362
0.00133359937900994
0.00152405738913215
0.0017731447002707
0.00204628324035007
0.00227855875153088
0.00250181843089217
0.00271732538256748
0.00291740737758813
0.00308895177117219
0.00325809053428947
0.00340953633822461
0.00354533363051184
0.00366638061679234
0.00377307151352769
0.0038658284743152
0.00394502310229398
0.00401110125457795
0.00406453805298448
0.00410590834744369
0.00413590456149662
0.00415528338976197
0.00416479672201266
0.00416520161489421
0.00415724105919016
0.00414165876321087
0.00411921614994455
0.00409065199423697
0.00405662971024564
0.0040177894063294
0.00397477097227406
0.00392813765086366
0.00387843130827326
0.00383333281441899
0.00378193471540361
0.00372754388431618
0.00367214794386745
0.00361582103338933
0.00355871407320057
0.0035010604516017
0.0034430926817059
0.00338499871984628
0.00332691854251243
0.00326897112094812
0.00321127430364406
0.00315391468952597
0.00309697397273059
0.00304051080905386
0.002984576377672
0.00292919677017968
0.00287439435520107
0.00282018360383091
0.00276657379081547
0.0027135603074176
0.00266112369474271
0.00260924510023923
0.00255790336317828
0.00250707244354469
0.00245671645345169
0.00240678718765523
0.0023572454904363
0.00230803289371619
0.00225913463998721
0.00221043822469128
0.00216172540021121
0.00211715484527486
0.002068543484599
0.00202039686183328
0.0019738809997002
0.00192588330107424
0.0018833551823011
0.00184556831285434
0.00174210693529166
0.00164536577973945
0.00163644518861459
0.00169935019522081
0.00182075960505088
0.00198394086170643
0.00217797941186891
0.00241181319122664
0.00269246769770741
0.00301609502630437
0.00337762609300461
0.00377799892811651
0.00418035224419536
0.00460172434903592
0.00501673744998596
0.00550656373866962
0.00599318774620868
0.00673704095434005
0.00748148302919704
0.00858035472102084
0.00932888028533083
0.0106262986901328
0.0110302512761611
0.0111713496314805
0.00755848459757841
0.00393101314668373
0.00385204154462062
0.00185450571221422
0.000456602764379899
-0.000292554107513601
8.28377830157036e-05
0.00206265115474779
0.00282543681881006
0.00178093397159625
0.00116362313727533
0.000845630918370193
0.000675629057223045
0.000595302895401392
0.000557244798955467
0.000545802448507633
0.000557469186509258
0.000588009067488679
0.000633218581020319
0.000690060236081468
0.00075385785637731
0.000824976004593298
0.000907360189179719
0.0010021684715231
0.00111239552299412
0.00124500889630508
0.00140465163227516
0.00161483037890519
0.00184168762025331
0.00204165799366885
0.00224440971554253
0.00244026312907023
0.00262598554786155
0.00278271571175743
0.00293708355239677
0.00307559115898559
0.00319973928108471
0.00331026190283445
0.00340753485087179
0.00349198780398964
0.00356398687831867
0.00362398042934659
0.00367243186640603
0.00370988590572136
0.00373699397612111
0.00375447023204872
0.00376301951285538
0.00376334887865663
0.00375614535317689
0.00374208944144391
0.00372188444914399
0.00369622455378947
0.00366572149426528
0.00363094793416067
0.00359247306769495
0.00355079357758383
0.00350915316731005
0.0034698779182666
0.00342271915399836
0.00337453746624916
0.00332547327916738
0.00327561917981125
0.00322509358491896
0.00317410247468941
0.00312286612288845
0.00307156402005661
0.00302031961250606
0.0029692305959607
0.00291840207334803
0.00286791515730603
0.00281784695529635
0.00276824832014662
0.00271916379310315
0.00267061684846562
0.0026226307810353
0.00257522052592482
0.00252839509184438
0.00248215227228556
0.00243647723665971
0.00239135845269309
0.0023467821198025
0.00230273229794383
0.00225918356397728
0.00221610598729874
0.00217347441248938
0.00213126696524799
0.00208947728204929
0.00204807669422208
0.00200690794033034
0.0019648450322397
0.00192888437903837
0.00188978425854143
0.00185211791703446
0.00181520716331608
0.00178239095274051
0.00176227021477146
0.00167946240063726
0.00158085184742211
0.00155238130990966
0.00158525966902098
0.00167138461672216
0.00179530956543001
0.00194472281572056
0.00212951869542272
0.00236113741808667
0.00263893605645338
0.002958904545182
0.00332410958188108
0.00369994149656556
0.00409460406486279
0.0044833912782329
0.00493148021817714
0.00535045250071935
0.00594412868879878
0.00652121533518174
0.00736533530179994
0.00793999509644927
0.00899616330474234
0.00939832084918741
0.0103453818409929
0.00865817001504326
0.0060521395468542
0.0053046818177142
0.00381900958437003
0.00138216871142339
0.000390015201137279
-0.000162523825910575
0.00102290399729072
0.00309473076894258
0.00196639817502996
0.00126223281277883
0.000910782219296902
0.00073565807929553
0.00064762121845122
0.000604931659335399
0.000589295442948001
0.000594823642622736
0.00061653144168222
0.0006505540462739
0.000694136616905355
0.000743607059473277
0.000799906108664962
0.000866590865951678
0.000944658116893259
0.00103677066199875
0.00114816137354601
0.00128194411482269
0.00146101801305441
0.00165276445483464
0.00182875862978062
0.00201521881720389
0.00219517430445973
0.00236428862026438
0.00251382227188127
0.0026562715375442
0.00278415044460122
0.00289862854837419
0.00300034273227991
0.00308966796707179
0.00316705456296262
0.00323287670230652
0.00328759984765759
0.00333169339081702
0.00336568944356693
0.00339021286452103
0.00340594740581712
0.00341356252624369
0.00341372650494611
0.00340708116486625
0.00339425232931063
0.00337589112449992
0.00335265413026358
0.00332511129294297
0.00329377689980837
0.00325915667688136
0.00322168694923199
0.00318987977532554
0.0031512792455971
0.00310928596638792
0.00306636555153265
0.00302267571233522
0.00297831444218994
0.00293336789465354
0.00288801421936413
0.00284246277280939
0.00279688648142944
0.00275139450398399
0.002706065202925
0.00266099245006202
0.00261625345546135
0.00257192207317282
0.00252804260660174
0.00248465390860035
0.00244177789532353
0.00239943966568083
0.00235765535175083
0.00231643415504297
0.00227577648768424
0.00223567244925648
0.00219611768267643
0.00215710556741729
0.00211862914463625
0.00208067273146025
0.00204322204705371
0.00200626505730233
0.00196980998592512
0.0019338588268538
0.00189844973208651
0.00186345804092683
0.00182826477975677
0.00179814999768522
0.00176617121322481
0.00173562101973798
0.00170761676388463
0.00168250299141801
0.00167554066953652
0.00161038408515595
0.0015141449128371
0.00147285571779003
0.00148132939750482
0.00153619187303976
0.00162404628683179
0.0017324384719664
0.00187272475928029
0.00206002443830491
0.00229580155878548
0.0025767688345632
0.0029061362928446
0.00325033158104736
0.00360756279666082
0.00395570889756717
0.00434042614018678
0.00467298047648204
0.00510052909582615
0.00551880320734511
0.00613122255355257
0.00660303923218914
0.00747642080572251
0.00782515766546038
0.00891435847001424
0.00850482857959649
0.00702682111727956
0.00579291522802988
0.0049725332913222
0.00257000202475351
0.00144516452423656
-0.000303305209075691
0.000340581426713407
0.00292509245841964
0.00210003396381573
0.00135312184252062
0.000969148680298391
0.000782584392173769
0.000687168747549068
0.000639630977334061
0.000619208694158599
0.000617774085518599
0.00063010472186269
0.000653154998871369
0.000684671766130463
0.000721791678173754
0.000765598024967971
0.000819041872888541
0.00088282742541138
0.000959253933869799
0.00105238804270802
0.00116469377320448
0.00131843962290619
0.00148218144420993
0.00163883202490068
0.00181124751631751
0.00197765681594872
0.00212723774806958
0.0022754128204562
0.00240763165469653
0.0025262456177812
0.00263221000439103
0.00272610312199153
0.00280830892240401
0.00287930714162748
0.00293948864078776
0.00298934599752343
0.00302936759165944
0.00306008597941333
0.00308210948766742
0.00309609953821143
0.00310269801459218
0.00310254205282183
0.00309623577576112
0.00308435588161063
0.00306750441567597
0.003046304691894
0.00302129186391248
0.0029929278769941
0.00296165928958074
0.00293070975455562
0.00290326276493521
0.00286692438494672
0.00282944751458085
0.00279114490366423
0.00275218278002461
0.00271265675763319
0.00267262053831889
0.00263222370557146
0.00259166552298619
0.00255111357490669
0.00251066370652608
0.0024703754958205
0.0024303322443122
0.00239060826208145
0.00235127480637594
0.00231236995952498
0.00227392702438196
0.00223596682656379
0.00219851667783498
0.00216159405024156
0.00212520815529881
0.00208936177850629
0.00205404987751266
0.00201927482325741
0.00198503660080119
0.00195133589082428
0.00191816579829578
0.00188552520255834
0.00185341424894996
0.00182186544126127
0.00179088922168068
0.00176057537232457
0.00173081986126516
0.00170133471739524
0.00167648133059533
0.00165027914525094
0.00162562617041858
0.00160488519066714
0.00158608227673569
0.00158891349768328
0.00153817700584445
0.00144633507063658
0.0013968883421806
0.00138555875530909
0.00141267317220746
0.00146730524635235
0.00153796926765854
0.00163796411109068
0.00178540808360875
0.00198288803254845
0.00222762978600194
0.00252186279509839
0.00283249558057556
0.00314738440660783
0.00344820737662082
0.00375859446028906
0.00399612122377833
0.00425353306948273
0.00452959436220614
0.00494426930949122
0.00538139513890522
0.00613459255802597
0.0064551217327007
0.00744933506593447
0.00764242628887046
0.00710795144635068
0.005600259202283
0.0055111618339145
0.00318158386313598
0.00268544600745622
-0.000267364057881644
-0.000182367713098539
0.00193545647565024
0.00231689658455239
0.00144403932168064
0.00102168049072667
0.000821129662033485
0.000717285419533136
0.0006642322873156
0.000638717638216447
0.000630378878479505
0.000633861009903994
0.000647000408565471
0.000668021623022283