/*--------------------------------*- C++ -*----------------------------------*\
  =========                 |
  \\      /  F ield         | OpenFOAM: The Open Source CFD Toolbox
   \\    /   O peration     | Website:  https://openfoam.org
    \\  /    A nd           | Version:  7
     \\/     M anipulation  |
\*---------------------------------------------------------------------------*/
FoamFile
{
    version     2.0;
    format      ascii;
    class       volScalarField;
    location    "20000";
    object      p;
}
// * * * * * * * * * * * * * * * * * * * * * * * * * * * * * * * * * * * * * //

dimensions      [0 2 -2 0 0 0 0];

internalField   nonuniform List<scalar> 
15600
(
-2.58400679313544e-08
0.00969857373832421
0.00931369208681604
0.0324124143129962
0.0533626400617914
0.0662197666286726
0.0716812944348348
0.0766860754211598
0.0796174148524972
0.0821142341581898
0.0837751653915191
0.0852617693256145
0.0864736814951646
0.0875387792404485
0.0884541028518917
0.0893345736084288
0.0901594814916198
0.0909938340039226
0.0918789226039043
0.0927840734019312
0.0936817069541164
0.0946501321828056
0.0956747747022029
0.0967452892562249
0.0979450079247242
0.0984482174899216
0.0992727007311078
0.101502957847467
0.104422830115584
0.107976928238097
0.112013046642335
0.116459311512441
0.121248655591965
0.126328094017727
0.131649966745702
0.137170134316355
0.142847338627287
0.148641889245892
0.154516166604979
0.160434211404021
0.166362260396737
0.172269335150274
0.178127802827006
0.183913165992918
0.189604175752194
0.19518264489243
0.200633443149395
0.205944293203574
0.211105643592233
0.216110134406418
0.220952724881221
0.225630712782808
0.230143281176039
0.234491427209963
0.23867731354362
0.242704393571593
0.24657662377558
0.250298361234258
0.253874876540341
0.257311749317504
0.260615351155725
0.263791908857671
0.266847804036721
0.269789411412346
0.272623213242627
0.275355689659932
0.277993053690151
0.280541551089565
0.283007183480571
0.285395973206712
0.287713633764081
0.289965865396365
0.292158179234142
0.294296059364813
0.29638485724591
0.298429824702036
0.300436314931948
0.302409559034906
0.304355048180206
0.306278073751068
0.308184595972803
0.310080117517131
0.311971773021476
0.313865074627271
0.315769932615581
0.317690837015879
0.319644525883211
0.321630624993355
0.323683508889268
0.325785548713887
0.328019013885828
0.330308878697777
0.332871381385204
0.335426329867326
0.338627037700771
0.342102755475162
0.344762983390627
0.34718156200252
0.349004117469865
0.350120591746304
0.350341851365397
0.349146187390255
0.346117625955277
0.341133761665945
0.334142518492608
0.325088090023978
0.314833722128223
0.303425358433562
0.28996309141744
0.273398251360699
0.252157825739535
0.221330637741242
0.176774490987296
0.120209880285234
0.049662840556878
-0.0252598028229141
-0.0857241092775456
-0.0793872502662139
-0.0546852944057165
-0.0168606995058707
-4.7821642721655e-06
0.00970266437025799
0.00933134870169348
0.0323191319472638
0.0532038985675934
0.0660884544109723
0.0715898746329776
0.0766116541012751
0.0795672555486142
0.0820784854394974
0.0837522638632284
0.0852450525293791
0.0864626622725961
0.0875321082310654
0.088450422351818
0.0893325264531473
0.0901585208865724
0.0909925450540092
0.0918770250702621
0.0927824057622232
0.0936800940037376
0.0946480277811531
0.0956723896085022
0.0967433683333917
0.0979453347489356
0.0984533666193463
0.0992871511257919
0.101519996731225
0.10444037718022
0.10799506487823
0.11203148853143
0.116477859608038
0.121267096019515
0.126346235431875
0.131667636355331
0.13718718374473
0.142863635756232
0.148657321126564
0.154530640845904
0.160447656776048
0.166374626763487
0.172280591911376
0.178137936777732
0.183922179483838
0.189612084767651
0.195189477036152
0.20063923549067
0.205949090331104
0.211109496156981
0.216113098164471
0.220954858732685
0.225632076504688
0.230143934105212
0.234491426869085
0.238676715063271
0.242703248980395
0.246574983624531
0.250296274588915
0.253872388371335
0.257308898943356
0.26061217220326
0.263788434585647
0.266844071000095
0.269785452033617
0.272619051218761
0.275351345953856
0.277988547804785
0.280536900063201
0.283002402085261
0.285391073651616
0.28770862656549
0.289960759234948
0.292152981131508
0.294290774408715
0.296379489045097
0.2984243755226
0.300430785522871
0.302403948709833
0.304349354738997
0.306272293720297
0.308178724485808
0.310074148143759
0.311965698155622
0.313858884538117
0.315763617462522
0.317684382478813
0.31963791994208
0.321623847196517
0.323676559203948
0.325778399120588
0.328011712736897
0.330301376053283
0.332864006348087
0.335418657322493
0.338619644359566
0.342100746537075
0.344764733534657
0.347183906637271
0.349000388453967
0.350102926890986
0.350297756114533
0.349061146556686
0.345983630227798
0.340949502770426
0.333910570996211
0.324823410208146
0.314546191172543
0.303101455604562
0.289578688185111
0.27292105777245
0.251515624453883
0.22045425709123
0.175708402425772
0.119052562716399
0.0486267615468916
-0.0258404703327051
-0.0856407519725381
-0.0791818415526995
-0.0545928178464419
-0.0168417167472259
-1.75026894084263e-06
0.00972355142869692
0.00937739000761749
0.0322478724968928
0.0530576143893785
0.0659658370653798
0.0715013415219768
0.0765384748752704
0.0795170153700694
0.0820424870744751
0.0837290210088103
0.0852281835455281
0.0864515810133845
0.0875255559462097
0.0884469064944757
0.0893304540802848
0.0901570279685115
0.0909898487302375
0.0918723132751118
0.0927760901659982
0.0936718335787385
0.0946370499797909
0.0956587662709973
0.0967281497839003
0.0979293674284668
0.0984449413427976
0.0992969236462373
0.101534711352466
0.104456124182815
0.10801164424312
0.112048348236679
0.116494673366083
0.121283565527632
0.126362122076151
0.131682757025137
0.137201386178079
0.142876788354397
0.148669319703351
0.154541410343952
0.160457149837651
0.166382820880445
0.172287485263085
0.178143546487112
0.183926539019386
0.189615241579783
0.195191489487487
0.200640170178281
0.205949019685637
0.21110849802754
0.216111253920663
0.220952249747656
0.22562878188074
0.230140029007282
0.234486981935044
0.238671795204105
0.242697914222588
0.246569292301285
0.250290281930465
0.253866142846645
0.257302441494657
0.260605551494306
0.26378169928198
0.266837248854097
0.269778564970967
0.272612120914572
0.275344390009439
0.277981581296026
0.280529935858035
0.282995450371171
0.285384142063043
0.287701720709223
0.289953883320753
0.292146137777807
0.294283964550953
0.296372712177945
0.298417630028034
0.300424068922698
0.302397257083389
0.304342683431583
0.306265636412534
0.308172075093277
0.310067497725221
0.311959040117978
0.313852205496102
0.315756913593981
0.317677634201018
0.319631136393967
0.321616977772536
0.323669655269971
0.325771350485164
0.328004721996716
0.330294145518445
0.332857300958974
0.335410732236818
0.338610456376947
0.342095411282372
0.344759561514469
0.347176459210784
0.348983597091753
0.350068510116897
0.350233180796423
0.348953309280931
0.345827193400836
0.340745588953456
0.333664284286318
0.324550023769366
0.314250815806075
0.302766382384563
0.289179401250719
0.272424741317413
0.250855442772179
0.219587186542594
0.174713321801518
0.11806572533169
0.0479151298894014
-0.0259244474971775
-0.0850591615027024
-0.0787436623773756
-0.0544440101273834
-0.0168115669251083
1.90291530917841e-05
0.0097738304386311
0.00947790714532327
0.032212207786858
0.0529206042699624
0.0658561134611959
0.071420885870984
0.0764698176398731
0.079468870481212
0.0820073879205513
0.0837061601127468
0.0852115697431404
0.0864407274225579
0.0875193005097826
0.0884436116252414
0.0893280608457232
0.0901541441025522
0.0909840352515734
0.0918617762726868
0.0927604520840393
0.0936505813208123
0.0946090902536377
0.0956242030119726
0.0966884010219137
0.097883490527083
0.0984136265576091
0.0992985196801596
0.10154410113907
0.104467530880675
0.108024081024277
0.112060690419504
0.11650631767226
0.121294052414668
0.12637116699155
0.131690157288778
0.137206966034468
0.142880431215796
0.148670959870852
0.154541030656848
0.160454777097946
0.166378517019775
0.172281337170899
0.178135662910388
0.183917046323588
0.189604279638274
0.195179206371126
0.200626717808462
0.205934550394731
0.211093165548181
0.21609521084816
0.22093564077516
0.225611740287591
0.230122674759739
0.234469421951063
0.238654122136647
0.242680209099191
0.246551632503502
0.250272739544434
0.25384878407337
0.257285342314447
0.260588750974849
0.263765207150385
0.266821090712699
0.269762765833145
0.272596698018068
0.275329354099135
0.277966939769912
0.280515694019055
0.282981610119441
0.285370702021973
0.287688676756064
0.28994123052632
0.292133869918657
0.294272073985857
0.296361189720908
0.298406466046368
0.300413254071861
0.302386781038902
0.304332536210048
0.306255806566045
0.30816255361294
0.310058272574004
0.3119501053188
0.313843545623056
0.315748530983587
0.317669509477202
0.319623310531718
0.321609386975954
0.323662392721691
0.325764243579984
0.327998100398947
0.330287492711745
0.332851666679293
0.335403422571003
0.338598593041368
0.342081577975855
0.344738210835034
0.347146296317669
0.348937615341269
0.349998513060013
0.350126873046695
0.348800424796532
0.345627058456149
0.340503116384699
0.333388074020283
0.324256220706454
0.31393814451847
0.302411234681869
0.288756794801387
0.27190211906591
0.250174556096664
0.218741413873771
0.173826881180108
0.117320332123809
0.0476456579133184
-0.0253295712166623
-0.083740076665431
-0.0778944085642193
-0.054161041132376
-0.0167564864471171
7.08386431276374e-05
0.00986755368617346
0.00966459345116269
0.0322363353783972
0.0527869355822106
0.06575107580357
0.0713442314017662
0.076402557847608
0.0794206478422038
0.0819714653567654
0.0836825271675355
0.0851943365470991
0.0864295531210421
0.0875131248589492
0.0884405357106289
0.0893252693283434
0.0901494804654888
0.0909740542637525
0.0918433387224882
0.0927323662633819
0.0936123993965307
0.0945595647219516
0.0955638893476394
0.0966193971929474
0.097804375535754
0.0983610352546329
0.0992950503873046
0.101550357578695
0.104476285392121
0.108033279350999
0.112068451274999
0.116511718616294
0.121296477544698
0.126370272737689
0.131685685399943
0.137198747053265
0.142868406383945
0.148655154038839
0.154521547891991
0.16043179204588
0.166352257713814
0.172252064963549
0.178103664653799
0.183882627050699
0.189567755531827
0.195140896176747
0.200586935693204
0.205893600740393
0.211051345556634
0.216052808420235
0.220892923381088
0.225568948220967
0.230080018654087
0.2344270837504
0.238612254406896
0.242638939370059
0.246511079546648
0.250233020791876
0.253810003434272
0.257247548539501
0.260551968404011
0.263729478126155
0.266786450199292
0.269729239723009
0.272564299230619
0.275298084214475
0.277936795468862
0.280486669826368
0.282953695907749
0.285343882735748
0.287662933449968
0.289916544283027
0.292110221143011
0.29424944195217
0.29633955208113
0.29838580130901
0.300393542980778
0.302368004526517
0.304314677350252
0.306238848068807
0.308146484229967
0.310043079200277
0.311935786505856
0.313830089443799
0.315735954491886
0.31765778987044
0.319612531471057
0.321599504858583
0.323653569761468
0.32575625971149
0.327991444177649
0.330281408732195
0.332847459969597
0.335398700152882
0.338584664432521
0.342054757380448
0.344691789262197
0.347080657231218
0.348845900936732
0.349872780577643
0.349954447681566
0.348573684205666
0.345350560407779
0.340186284584385
0.333043696643357
0.323903073201562
0.313570050305802
0.301997615462723
0.288269912521516
0.271307162594066
0.249416884451482
0.217844291462428
0.172958375854635
0.116705538151949
0.0476898261727959
-0.0241739916826157
-0.0816994436323833
-0.0765259430223378
-0.0536431785163426
-0.0166456868313947
0.000171248434106781
0.0100204655056763
0.00995649295162743
0.0323445127890318
0.0526689173346607
0.065649825351622
0.0712696187045463
0.0763355622242469
0.0793715994473448
0.0819341422179055
0.0836577123957278
0.0851762156295389
0.0864179667318886
0.0875072032230401
0.0884380412784436
0.0893224209851704
0.0901431930514828
0.0909597320334596
0.0918164856409472
0.0926913155815055
0.0935572614838365
0.0944893833905425
0.0954801333133004
0.0965253516462849
0.0976994269865923
0.0982957407863962
0.0992913152954954
0.101556730853904
0.104484552557784
0.108040216009132
0.112071672357132
0.116510154369365
0.121289483607507
0.126357519169088
0.131666970326139
0.137174014708162
0.142837728053512
0.148618705280623
0.154479602941041
0.160384711867959
0.166300465947544
0.172196019422814
0.178043845564034
0.183819527690426
0.189501873654663
0.195072723419828
0.200516948709018
0.205822254979095
0.210979079799593
0.215980043810615
0.22082004928615
0.225496312566923
0.230007924814941
0.234355792198436
0.238541982467918
0.242569866872491
0.246443373748031
0.2501668426602
0.253745468632337
0.257184747286597
0.260490977526641
0.263670348254324
0.266729223189768
0.269673946470178
0.272510953218336
0.275246682450518
0.277887328103392
0.280439124874146
0.282908055329458
0.285300121756405
0.287621021969591
0.289876453066218
0.292071920902058
0.294212902548815
0.296304741571873
0.298352689965147
0.300362105541893
0.302338217373464
0.304286521067297
0.306212304388598
0.308121545050538
0.310019736720054
0.311914050858413
0.313809960944701
0.315717474019477
0.317640946016906
0.319597442390688
0.321586160255676
0.323642228074678
0.325746678478922
0.327984252533715
0.330275665978649
0.332844465335498
0.335397154150623
0.33856897403862
0.342013843201591
0.344618567675828
0.346976499160621
0.348703968469124
0.349685452389997
0.349708577120441
0.34826359253764
0.344985113688188
0.339779106121876
0.332611649500985
0.323468121777762
0.313123481121779
0.301503049812965
0.287696081923831
0.270615692057396
0.248554129982942
0.216854045623385
0.172043534303468
0.116123335803791
0.0479025386851552
-0.0226539971549701
-0.0791158848711414
-0.0746647506827104
-0.0528376921111679
-0.0164507230329355
0.000328564003286446
0.0102455577623949
0.0103564654384779
0.0325425800274608
0.0525830019989642
0.0655596508909079
0.0711988097138051
0.0762683459285694
0.0793214606485109
0.0818953162178422
0.0836316848657865
0.0851572955473781
0.0864062219787865
0.087502053596435
0.0884368591763911
0.0893203608423873
0.0901362334460885
0.0909422624672509
0.0917829995471431
0.092640119250621
0.0934893232867972
0.0944042768385956
0.0953802785927624
0.0964152266724813
0.0975794002091618
0.0982249531895712
0.099288277383671
0.101563087464197
0.104491863663386
0.108044257885149
0.112069954594872
0.116501610116783
0.1212735413476
0.126333929462949
0.131635659411343
0.137135058061948
0.14279132908871
0.148565174938282
0.15441935502291
0.160318249357967
0.166228353557978
0.172118851146907
0.17796223175458
0.183734085043157
0.189413216587677
0.194981452899546
0.200423642951527
0.205727462992266
0.210883327273964
0.215883832825435
0.220723843435495
0.225400526106816
0.22991291908991
0.234261877893305
0.238449419450631
0.242478871065782
0.246354147851543
0.250079567065831
0.253660301869481
0.25710182348485
0.260410383785034
0.263592142511101
0.266653456382184
0.269600658231165
0.272440163286594
0.27517839083104
0.277821526155417
0.280375802109553
0.282847194293126
0.285241697216602
0.287565001982422
0.289822807177913
0.292020619020052
0.29416391407755
0.296258033710849
0.298308232910415
0.300319875701702
0.302298193876743
0.304248688695528
0.306176650055349
0.30808806871352
0.309988440563804
0.311884959056514
0.313783089070372
0.315692884703594
0.317618650247829
0.319577573804279
0.321568728736819
0.323627558565764
0.325734516856814
0.327975253902106
0.330268789131165
0.332840557618627
0.335395749703897
0.338549720452042
0.341960817473879
0.344524672259218
0.346842100161268
0.34852151311801
0.349447345179963
0.349401364569911
0.347882601516603
0.344541584213068
0.339289431379655
0.332095633634763
0.322949933928596
0.312593635505632
0.30092164328462
0.287029103052418
0.269821154897116
0.247579065743251
0.215754190331919
0.171046835496409
0.115507393166172
0.0481717441318058
-0.0209463839116071
-0.0761989951150331
-0.072425837889468
-0.051758067900537
-0.0161559311052143
0.000542890917428412
0.0105453987822625
0.010858386924481
0.0328239877169765
0.0525360728789131
0.0654883596673388
0.0711394890437012
0.0762008208429535
0.0792699608833117
0.0818550389312786
0.0836046476703983
0.0851379471858414
0.0863948957292094
0.0874985180151685
0.0884380688914501
0.0893204227097437
0.0901302850446167
0.0909238932726179
0.0917460182615658
0.0925829398991952
0.0934136171023825
0.0943100583581198
0.095270633680893
0.0962955318389084
0.0974508185419263
0.0981508284143612
0.0992837695724368
0.101567389341126
0.104496885214001
0.108044819563564
0.112063573866982
0.116487176281124
0.12125053094661
0.126302147515391
0.131595120412858
0.137085917566691
0.142733872558911
0.148499794826017
0.154346547609906
0.160238599617723
0.166142506045306
0.172027476210702
0.177866012724342
0.183633707643939
0.189309360509497
0.194874780345396
0.200314789219454
0.205617029871564
0.210771889395211
0.215771937151385
0.220611994971332
0.225289176970885
0.229802464473798
0.234152658707769
0.238341722005608
0.242372936968694
0.246250193992696
0.249977799904354
0.253560906566795
0.25700493973474
0.260316106544781
0.263500539094086
0.26656458639282
0.269514569537706
0.272356882931152
0.275097924352183
0.27774386875345
0.280300947491929
0.282775128685749
0.285172398707767
0.2874984406757
0.28975895508359
0.291959448726754
0.294105398102717
0.296202141828091
0.298254938134244
0.300269158439028
0.302250037861724
0.304203084036083
0.30613358925911
0.308047558650022
0.309950491495639
0.311849604432592
0.313750354559606
0.315662843443701
0.317591326504924
0.319553100861964
0.321547112350487
0.323609125883969
0.325718991387299
0.327963176441806
0.330259040516817
0.3328331921637
0.33539047709833
0.3385242451033
0.341897116956253
0.34441587537709
0.346686358420198
0.34830989791279
0.349171889308166
0.349048471972184
0.347448158096197
0.344037855667177
0.338734194075912
0.331510356231322
0.322359463568293
0.311987951686186
0.300258807360425
0.286273517864989
0.268927781191009
0.246496660244212
0.214545875150725
0.169959251870991
0.114830999074628
0.0484420078478731
-0.0191571526553085
-0.0730992451062859
-0.0699308128345816
-0.0504484120738153
-0.0157542677897613
0.000816083244001053
0.0109114880868177
0.0114585178036007
0.0331802114436568
0.0525384349228655
0.0654354222377076
0.0711052065895619
0.0761346881221777
0.0792171675996264
0.0818136723761393
0.0835771375939936
0.0851188566669612
0.0863848287261597
0.0874975795619028
0.0884427828507971
0.0893239223318477
0.0901269490062699
0.0909066400510575
0.091708127908303
0.092522841421551
0.0933334065240654
0.094210073623698
0.0951543959505881
0.096169171202454
0.0973162300442985
0.0980732978637567
0.0992759866235157
0.10156833589031
0.104499029603694
0.108041973462642
0.112053225495927
0.116468086555325
0.121222166890356
0.126264332600158
0.131547906063364
0.137029497010224
0.142668574923377
0.148426057236511
0.154264913163658
0.160149700338015
0.166047032501874
0.171926143460265
0.177759548004408
0.183522838947935
0.189194808231006
0.19475724551822
0.200194943991122
0.205495510751515
0.21064930351983
0.215648860893484
0.2204889608598
0.225166663234403
0.229680890460573
0.234032387717102
0.238223061534249
0.242256147964487
0.24613550816539
0.249865440170405
0.253451065662719
0.256897764616871
0.260211703887183
0.263398985476383
0.266465948821923
0.269418902802977
0.272264220804892
0.275008277961884
0.277657237081356
0.280217328306064
0.282694511853491
0.285094765880124
0.287423764204875
0.289687209458213
0.291890609043206
0.294039439804888
0.296139036928
0.298194661751179
0.300211693880361
0.302195371997075
0.304151210316385
0.306084503259655
0.30800127058037
0.309907015480698
0.311808977067877
0.313712604916137
0.315628044555885
0.317559503277579
0.319524376427279
0.321521467930131
0.323586841739254
0.325699755103363
0.327947324636726
0.330245355747861
0.332820847889285
0.335378780856475
0.338490461934071
0.341822614244731
0.344294357934034
0.346513768262614
0.348075717605112
0.348867490733839
0.348660176590846
0.346972345600607
0.343487291052165
0.338127266455152
0.330869400777348
0.321708991216785
0.311316981234769
0.29952392564205
0.285438330535281
0.267944888536092
0.245317822389355
0.213240832643188
0.168790266420589
0.114098371905608
0.0487043050267023
-0.0173247581489794
-0.0698950369192625
-0.0672686949126067
-0.048956276395927
-0.0152487767420652
0.00114397656267992
0.0113351778264163
0.012157921186746
0.0336010473243382
0.0526053314100687
0.0653840857174674
0.0711098885051032
0.0760750320926732
0.0791639820745929
0.0817719776306877
0.0835499513158261
0.0851008309782367
0.0863768114170332
0.0874999489407461
0.0884516558148783
0.08933157555276
0.0901270788694203
0.0908915780236451
0.0916707105576596
0.0924614130580844
0.0932503032418786
0.0941059026110419
0.0950330087650318
0.0960374714801798
0.0971768569827564
0.0979923592449427
0.0992642330887073
0.10156547857815
0.104498213285828
0.108035983734741
0.112039501516373
0.116445219920906
0.121189590692071
0.126221864218201
0.131495608950876
0.13696758165031
0.142597394996027
0.14834607583678
0.154176701638959
0.160053918991552
0.165944399084222
0.171817399646642
0.177645448024975
0.183404137206384
0.18907225103024
0.194631559041706
0.200066824745245
0.205365618786243
0.210518268344456
0.215517278711048
0.220357383145891
0.22503558718265
0.229550753786962
0.2339035716201
0.23809589308944
0.242130901446274
0.246012431860923
0.249744765792933
0.253332993081299
0.256782451162299
0.260099268513486
0.263289513433567
0.266359513877744
0.269315566180903
0.272164022964418
0.274911235888518
0.277563353643384
0.28012660539709
0.282606943058762
0.285010336614953
0.287342449141507
0.289608985487775
0.291815453537057
0.293967330853733
0.296069948323066
0.298128569959105
0.300148584099228
0.30213523293438
0.30409403710151
0.306030292455659
0.307950032989797
0.309858765886812
0.311763750819471
0.313670429632651
0.315588986039255
0.317523578754924
0.319491690573006
0.321491965774744
0.323560728229237
0.325676670692135
0.327927357962522
0.330227157654424
0.332802767669242
0.335359346719923
0.338446993653851
0.341736596029914
0.344160337596362
0.346325933553962
0.347822067522541
0.34853858919374
0.348242253828335
0.346462273128306
0.342898143494892
0.337477670375815
0.330182111706152
0.321007716523303
0.310589446704293
0.29872550595047
0.284532273477011
0.266882170074026
0.24405406334871
0.211853213382679
0.167555025758209
0.113325122686829
0.0489684350429097
-0.015454434628125
-0.066619478980344
-0.0644942330161022
-0.0473232622898612
-0.0146504358855412
0.00151979958968946
0.0118152467087412
0.0129386286103292
0.0340749073544328
0.0527271406923067
0.0653190582612385
0.0711599120349957
0.0760300750341488
0.0791123430592073
0.0817309932193665
0.0835239028869356
0.0850844975066192
0.0863712724174861
0.087505812102463
0.0884647233316302
0.0893434300716465
0.0901308326096839
0.0908790537969218
0.0916343676420772
0.0923994488830536
0.0931651777984708
0.0939984594107895
0.0949073846020975
0.0959014019203589
0.097033718089688
0.0979083258067614
0.0992483084283975
0.101558664612374
0.104494452489022
0.108027060233403
0.112022821604256
0.116419187073827
0.12115360639861
0.126175721634079
0.13143937255889
0.136901468012656
0.142521771041851
0.148261418616195
0.15408359797394
0.159953043742732
0.16583648264026
0.171703195796173
0.177525724069565
0.183279660599173
0.188943781262255
0.194499835463024
0.199932557094322
0.205229480572208
0.210380902246797
0.215379291981375
0.220219338261761
0.224897993614972
0.229414062063825
0.233768177455993
0.237962138029786
0.241999072812001
0.245882792104534
0.249617551189968
0.253208412228443
0.256660670906019
0.259980419470093
0.263173689245193
0.266246794843069
0.269206019941409
0.272057697055728
0.274808153780971
0.277463522553482
0.280030031841357
0.282513624877084
0.284920263629773
0.287255598830637
0.289525337525362
0.291734987842399
0.293890028413568
0.295995784765576
0.298057522895427
0.30008064024347
0.302070382227656
0.304032275448826
0.305971616147337
0.307894451654696
0.309806292855886
0.311714417186838
0.313624258201419
0.315546030367683
0.31748384293112
0.319455251316393
0.321458728611734
0.323530804560514
0.32564964023585
0.327903041071471
0.330204037948087
0.332778458380086
0.335331394999689
0.338392899541676
0.341638368777054
0.344013483936314
0.346123341570645
0.347550500018216
0.348187768201065
0.347798301258405
0.345922523390825
0.342275864234028
0.33679150239249
0.329454916529632
0.320262167777979
0.309811814301716
0.297870195480771
0.283562422927119
0.265747886926633
0.242715288818985
0.210395675013517
0.166267587505613
0.112526930519478
0.0492463853723783
-0.0135430847670208
-0.0632866415561424
-0.0616381498289391
-0.0455800041502849
-0.0139686844011343
0.00194125381922965
0.0123492134020014
0.0137579736723166
0.0345957239963726
0.0528856098495109
0.0652591745643895
0.0712438909345015
0.0760079462999834
0.0790650494878707
0.0816918080619552
0.0834996353686569
0.0850701743505218
0.0863682434466843
0.0875149249595816
0.0884816082679963
0.0893591544736164
0.0901380288280461
0.09086910074744
0.0915993928841444
0.0923374535111602
0.0930786506423168
0.0938884491982846
0.0947782881031757
0.0957618231517236
0.0968877308385375
0.0978215732837299
0.099228137927251
0.101547818234962
0.104487763558257
0.108015357739723
0.112003511228597
0.116390468310761
0.121114859348456
0.12612670139572
0.131380137652064
0.136832232563825
0.142442906391293
0.14817340598385
0.153987028983732
0.15984859609887
0.165724886671941
0.17158520458932
0.177402105636488
0.183151183513942
0.188811206789366
0.19436390531087
0.199793984141685
0.205088942627204
0.210239046795211
0.215236729292704
0.220076634511829
0.22475566435021
0.229272565492494
0.233627921436969
0.23782347123908
0.241862299128577
0.245748181593871
0.249485343796806
0.253078824278281
0.25653387720467
0.259856561934035
0.26305286975283
0.266129100035103
0.269091523936586
0.271946454926616
0.27470019611913
0.277358861376261
0.279928678833537
0.282415582754763
0.284825527345764
0.287164149209411
0.289437157490964
0.291650060268368
0.293808337596782
0.29591730838199
0.297982239670865
0.300008538265563
0.302001452342908
0.30396651374724
0.305909017723347
0.307835023610001
0.309750045438651
0.311661374826547
0.313574436188188
0.315499465881037
0.317440522534095
0.31941521426568
0.321421840065772
0.323497069124782
0.325618561841121
0.327874161494095
0.330175640068982
0.33274749807196
0.335294360957488
0.338327493515514
0.341527347564177
0.343853324550295
0.345906001580366
0.347261803283681
0.34781664134812
0.347330761157299
0.345356327466164
0.341624382649636
0.336073239936395
0.328692587415392
0.319477265754795
0.308989070061158
0.296963288507763
0.282534521718419
0.264548968829747
0.241309927859401
0.208879266572488
0.164940162234089
0.111717411431243
0.0495484990386823
-0.0115870180651377
-0.0599040942418817
-0.0587175330085186
-0.0437474718921562
-0.0132102164454019
0.00240623182500327
0.0129306681653399
0.0145877461449235
0.0351689079065676
0.0530761559269924
0.0652392788824653
0.071305778138456
0.0760131427920275
0.0790255823309147
0.0816554530909333
0.0834776014885531
0.0850579441020729
0.0863675216993654
0.0875268474182572
0.0885017858725868
0.0893783051907961
0.0901483979142066
0.0908616691461381
0.0915659839959713
0.0922758264514532
0.0929912394770811
0.0937764809033536
0.0946464013855999
0.095619497551253
0.0967396817646358
0.0977324410252204
0.0992037004446814
0.101532916264454
0.104478169482845
0.108001005723975
0.111981846783088
0.116359471748067
0.121073897888252
0.126075483617853
0.131318710859715
0.136760801427273
0.142361839329867
0.14808318009957
0.153888231586729
0.159741897623632
0.165611006247872
0.171464883294771
0.177276101299897
0.183020255296875
0.188676107631205
0.194225369693213
0.199652719107422
0.204945622152228
0.210094315763679
0.215091193832816
0.21993085797102
0.224610162740432
0.229127801111078
0.233484309238989
0.237681364971579
0.241722018088346
0.245609999292325
0.249349502774152
0.252945547040609
0.256403345389394
0.259728928609457
0.262928244815163
0.266007576200322
0.2689731818386
0.271831357616855
0.274588381854246
0.27725034729472
0.2798234822499
0.282313711832869
0.284726982832738
0.287068915721232
0.289345221592381
0.291561408159014
0.293722957291627
0.295835179787849
0.297903342576851
0.299932862018451
0.301928988428784
0.303897257934063
0.30584296307738
0.307772173490632
0.309690405566743
0.311604960808174
0.313521253409472
0.315449531404406
0.31739380149348
0.319371700646299
0.321381355659473
0.323459501190843
0.325583325672296
0.327840513930867
0.330141634406799
0.332709495010609
0.335247794294104
0.338250254743083
0.341403025969845
0.343679320627631
0.345673636790107
0.346956266579689
0.3474261628511
0.346841281177668
0.34476599032441
0.340946593282192
0.335326269636986
0.327898803369755
0.318656885377972
0.308125246516542
0.296009208015205
0.281453462774992
0.263291508589681
0.239845658043086
0.207313816873341
0.163582935202818
0.110907542034302
0.0498838595704663
-0.00958278535964273
-0.0564767091496709
-0.0557428090076282
-0.041839756639497
-0.0123814404946022
0.00291291324038906
0.013554301593531
0.0154229221130703
0.035805062601299
0.0532891492065395
0.0652723120754896
0.0712832152409938
0.076050927865033
0.0789980954397945
0.0816230122239537
0.0834581569388134
0.0850477920842935
0.0863688371602532
0.0875411142424942
0.0885247350939361
0.0894004507922375
0.0901616785398824
0.0908567022221358
0.0915343076206331
0.0922149181392221
0.0929034074616883
0.0936631082915473
0.0945123521042765
0.0954751084851467
0.0965902479140751
0.0976412328532631
0.0991750224193873
0.101513984586118
0.104465704985138
0.107984121769151
0.111958070358232
0.116326554762798
0.121031199833923
0.126022662335913
0.131255798504468
0.136687987422837
0.142279483036164
0.147991747394627
0.153788297586424
0.159634116644052
0.165496076295647
0.171343523327673
0.177149049236631
0.182888251463481
0.18853988759076
0.194085652089209
0.199510197058729