/*--------------------------------*- C++ -*----------------------------------*\
  =========                 |
  \\      /  F ield         | OpenFOAM: The Open Source CFD Toolbox
   \\    /   O peration     | Website:  https://openfoam.org
    \\  /    A nd           | Version:  7
     \\/     M anipulation  |
\*---------------------------------------------------------------------------*/
FoamFile
{
    version     2.0;
    format      ascii;
    class       volScalarField;
    location    "20000";
    object      Pk_bouss;
}
// * * * * * * * * * * * * * * * * * * * * * * * * * * * * * * * * * * * * * //

dimensions      [0 2 -3 0 0 0 0];

internalField   nonuniform List<scalar> 
15600
(
1.77896508968504e-07
2.34735048283714e-07
1.00623141061286e-07
2.78374280533608e-09
2.79309543185509e-09
1.97944952374852e-09
1.12166198837028e-09
6.06658865848857e-10
3.03632865620511e-10
2.02732786419261e-10
1.60344016628023e-10
1.59520319832983e-10
1.73848263057379e-10
2.14033807741492e-10
2.96804203967837e-10
4.52030842129173e-10
7.26457960311682e-10
1.21239203578376e-09
2.00817793604339e-09
3.23907687535033e-09
5.1581138683268e-09
8.03961887485719e-09
1.19587290114876e-08
1.69066600874034e-08
2.23240808131253e-08
3.24200319387334e-08
5.89484998470603e-08
1.00320407980069e-07
1.4191198544518e-07
1.8372844111273e-07
2.2361199638966e-07
2.60909178822254e-07
2.94618656420397e-07
3.24035474384859e-07
3.48744173081743e-07
3.67618962067653e-07
3.7977816186672e-07
3.85002835957049e-07
3.83411648653043e-07
3.75394899741883e-07
3.61612081565408e-07
3.42934693772703e-07
3.20353104540423e-07
2.94887589696775e-07
2.67540823279037e-07
2.39251802655858e-07
2.10865618770525e-07
1.83106671654939e-07
1.56565476639774e-07
1.31703877829265e-07
1.08872991143688e-07
8.83059996241168e-08
7.01225164375508e-08
5.43456366764815e-08
4.09218282268988e-08
2.97402406211138e-08
2.06488621879031e-08
1.34809588529069e-08
8.05704694878675e-09
4.18724780859797e-09
1.67910269824552e-09
3.45007529461586e-10
8.8875771113094e-12
5.06335130791323e-10
1.68538618241848e-09
3.40843390278239e-09
5.55180201731347e-09
8.00490338413793e-09
1.06694419399045e-08
1.34597355225886e-08
1.63009112168167e-08
1.91273076222258e-08
2.18814690233185e-08
2.45138717050677e-08
2.69822152016937e-08
2.92483566540734e-08
3.12792857966199e-08
3.30448554055604e-08
3.45198861973279e-08
3.56785828650937e-08
3.65005586943253e-08
3.69590672689683e-08
3.70401152685866e-08
3.67078421879523e-08
3.59621553468281e-08
3.47476253469339e-08
3.31670304632837e-08
3.10640232849463e-08
2.85516029656873e-08
2.53399998346209e-08
2.18090882808726e-08
1.73417694309487e-08
1.30074518590516e-08
7.52261670090095e-09
3.92188594010599e-09
5.40280289038638e-09
1.09958605788069e-08
2.06125802158619e-08
3.71764596650144e-08
6.33506189689833e-08
1.0635556406639e-07
1.72629353652342e-07
2.5889703013455e-07
3.56649562316057e-07
4.56585069720812e-07
5.31587444762301e-07
5.80289464439314e-07
6.3246307134995e-07
7.09619486374507e-07
8.3855787843051e-07
1.10570025424964e-06
1.60170153857234e-06
2.2960938348316e-06
3.27501447841568e-06
4.25151178388413e-06
4.28457640465669e-06
2.59537531049901e-06
9.78108747668615e-07
2.81777029028363e-07
1.36887902993809e-07
4.35793731206699e-05
4.7998350808253e-05
2.37980131009917e-05
2.20499805642259e-06
1.54404524239249e-07
2.48719369920243e-07
1.60215448791703e-07
9.01868213668561e-08
4.749568013749e-08
3.26483386515735e-08
2.67292685090274e-08
2.70524032849558e-08
3.02058420740774e-08
3.79584929410779e-08
5.34047067118084e-08
8.20585965129545e-08
1.32667473287835e-07
2.20990491617399e-07
3.65594827094401e-07
5.91440448938998e-07
9.39609252557271e-07
1.45352716586193e-06
2.14922368228003e-06
3.02388733399877e-06
4.14707936643943e-06
6.01573924860391e-06
9.74629339113021e-06
1.49991615537191e-05
2.0093311067459e-05
2.49247658961343e-05
2.93238378876717e-05
3.32259811069664e-05
3.65501180855372e-05
3.92435885500824e-05
4.12923914967663e-05
4.25803800426119e-05
4.30664845947532e-05
4.27734671110812e-05
4.1752687105414e-05
4.00804256535183e-05
3.785489637586e-05
3.51890098425009e-05
3.22011864656599e-05
2.90072095926454e-05
2.5715935074688e-05
2.24254821826287e-05
1.9220909632777e-05
1.61724413656984e-05
1.33351020077889e-05
1.07496383930255e-05
8.44412745403379e-06
6.43408906532247e-06
4.72357772195867e-06
3.30722343727524e-06
2.17239396749197e-06
1.30122683869636e-06
6.72502868748225e-07
2.63478801149139e-07
5.01776760972767e-08
8.11860904633301e-09
1.13178224645661e-07
3.42397728795114e-07
6.74148217709938e-07
1.08826828394055e-06
1.56623916179693e-06
2.0914981235342e-06
2.64908533616564e-06
3.22560243508565e-06
3.80912160104705e-06
4.38934964266007e-06
4.95722755104969e-06
5.50477982158938e-06
6.02494152246104e-06
6.51164500742836e-06
6.95964160159744e-06
7.36410174662119e-06
7.72075356764117e-06
8.0255693996762e-06
8.27508558356629e-06
8.46559677071904e-06
8.5939610275007e-06
8.65601306051449e-06
8.64901571081181e-06
8.56713338631462e-06
8.40884417590043e-06
8.16476871063503e-06
7.85199693459926e-06
7.44561949092492e-06
6.95507247894703e-06
6.33607087378467e-06
5.631481102208e-06
4.74593245053709e-06
3.81251081951377e-06
2.62147023450064e-06
1.88504024657296e-06
2.31943028409635e-06
3.52838034015369e-06
5.42711930584592e-06
8.21641571130917e-06
1.22301274571795e-05
1.82342048491487e-05
2.6701147181831e-05
3.72148946936526e-05
4.9007279239421e-05
6.10982327278596e-05
7.09001092361248e-05
7.83781583545045e-05
8.6103544113537e-05
9.62934540964057e-05
0.000112407800990502
0.000143193267335502
0.000196876721516124
0.000271866171223423
0.000377762544966503
0.00048623788968883
0.000509809205810094
0.000372126145681229
0.000192697029649705
7.76390748789139e-05
4.31163115424274e-05
0.00112495992103853
0.00107163916097548
0.000586034635658653
0.000102213621769544
3.74544366027167e-07
3.16975096278954e-06
2.49528803472479e-06
1.48763956818358e-06
8.34817888692276e-07
5.9576391095227e-07
5.07579315533861e-07
5.24164516105073e-07
6.0029424960121e-07
7.69399508562567e-07
1.09574960462137e-06
1.69266170462894e-06
2.73759360300864e-06
4.52330078070336e-06
7.41645426428597e-06
1.18942224083632e-05
1.85870661736793e-05
2.81145796347132e-05
4.06924422439866e-05
5.64411119626725e-05
7.75955830668307e-05
0.000106421140333134
0.0001496628912642
0.000203503045856501
0.000251620589362809
0.000292276738568097
0.000325435486295035
0.000351122749036377
0.000369398150522909
0.000380455390547486
0.000384617688888597
0.00038143288796889
0.000371659012308834
0.000356062667700042
0.00033554060861304
0.000311075312136862
0.000283697998522336
0.000254437733837537
0.000224271637580921
0.000194087885198987
0.000164668978024114
0.000136679516420415
0.000110661272638112
8.70323649742323e-05
6.60934416552068e-05
4.80382532765495e-05
3.29642652331001e-05
2.08801618928819e-05
1.17188137989426e-05
5.35278048985948e-06
1.60980626213891e-06
2.86605102832104e-07
1.1606515219171e-06
3.99643313594444e-06
8.55194230082109e-06
1.45850031366894e-05
2.18632649667848e-05
3.01660152495194e-05
3.92809508770262e-05
4.90076517128429e-05
5.91636702266346e-05
6.95851226148917e-05
8.0120544135399e-05
9.06319720668034e-05
0.000100994678499186
0.000111100598182288
0.000120851951277617
0.000130160691483751
0.000138946117488713
0.000147137737256735
0.000154671995720475
0.000161488382927949
0.000167530480983058
0.000172742822827455
0.000177074143588458
0.000180468713362408
0.000182873133741527
0.000184221067036703
0.00018445396671917
0.000183479041637111
0.000181235304427633
0.000177558110786222
0.00017259885183635
0.000166074151910717
0.000157958566988892
0.000147635354412385
0.000135372326011036
0.000119828061715046
0.000102082835467238
7.90779631748589e-05
6.74350135263972e-05
7.84937532335297e-05
0.000100717935707641
0.000133351716101197
0.000175661775031174
0.000231766095448866
0.000308353585894701
0.000406735862069069
0.000523289884536454
0.000654089570537662
0.000791470545826249
0.000916746125618847
0.00103153906212553
0.00115219183812781
0.00129537057600406
0.00150031600044281
0.00184269939796497
0.00238128755169304
0.00310888236568692
0.00411606040955456
0.00515212862187051
0.00556772211548609
0.00480433659926607
0.00337281858702949
0.00189978738751586
0.00125776685167532
0.00809564108045677
0.0070808392124915
0.004251727698327
0.0011735864302367
3.00304378363754e-05
1.14632890869881e-05
1.30831097421478e-05
8.5492975419858e-06
5.2055743143426e-06
3.89943910651704e-06
3.47247332604742e-06
3.66443293258598e-06
4.29515423346404e-06
5.58366375910518e-06
7.98100194220731e-06
1.22511970242546e-05
1.95027872841271e-05
3.13438918307636e-05
4.96723093349896e-05
7.64227201046176e-05
0.000113136251237494
0.000160810957338544
0.000218956814686569
0.000287846541831747
0.000373242474730003
0.00045569397897397
0.000532440882398805
0.000607250535980972
0.000660699063901776
0.00068984757527009
0.000700538189555762
0.000695426557452251
0.000677260546457676
0.000648524663644224
0.000610403924979772
0.000565231687879868
0.000515037337938326
0.000461682119175823
0.000406865296275986
0.000352107121415898
0.000298735560922217
0.000247879931782875
0.000200474594321144
0.000157271246321491
0.000118853009595706
8.5648927168107e-05
5.7948033491772e-05
3.59139753361629e-05
1.95991699955612e-05
8.95836259028111e-06
3.86148677799576e-06
4.10787503058539e-06
9.44011044417083e-06
1.95569354390818e-05
3.41238832774689e-05
5.27840474129184e-05
7.51565847384466e-05
0.000100839011700252
0.000129430704639954
0.000160530464847079
0.000193772233952999
0.000228770084301772
0.000265149401473221
0.000302547289507393
0.000340630021260999
0.000379084776120751
0.000417608505209488
0.000455911884579799
0.000493723026571376
0.000530795914862908
0.000566895865867157
0.000601800149206559
0.000635292918087569
0.000667175292423894
0.000697255877977042
0.000725345835605532
0.000751256830718479
0.000774798120133239
0.000795778227250119
0.000813994171572344
0.000829229093330575
0.000841240875864604
0.00084976141704129
0.000854470351874207
0.000855020447273223
0.000850916613391725
0.000841676571425848
0.000827030432222933
0.000806242415824326
0.000777632345801697
0.000740462577229786
0.000690942971608753
0.00062815357265126
0.000543013774344691
0.000515346567576856
0.000568207322157635
0.000641711525346685
0.000748274484462066
0.000879538612097702
0.00104793305922229
0.00126356653725173
0.00152054572169959
0.00181849471831376
0.00216547015793461
0.00255635080401498
0.00297943627169926
0.00345305656899181
0.00398902535008451
0.0045957950231887
0.00536805874014745
0.00643070327423022
0.00784835180993618
0.00959575648470351
0.0118926327254657
0.0141730860499521
0.0156542751043933
0.0157373437866978
0.0145623788027804
0.0113413391099392
0.00920980162124384
0.0231561338409191
0.0196360546794698
0.0132707251126666
0.00544071261107539
0.000475473555777975
1.27966345885939e-05
3.40713762088176e-05
2.62450118318613e-05
1.78775397864378e-05
1.42802867829179e-05
1.33397605242125e-05
1.43711437154356e-05
1.71104396532341e-05
2.22681284910728e-05
3.13642492093981e-05
4.66974014317204e-05
7.09070933757063e-05
0.000106764725434561
0.000156378169334753
0.000219420752818594
0.000292347838051796
0.000371836064695494
0.000455393108437462
0.000543329907405333
0.00063340213841634
0.000662141882717937
0.000612315477200141
0.000550164378602928
0.000502004533173263
0.000451621454738681
0.000402409867336423
0.000353904592420848
0.000307077117110607
0.000262488482973148
0.000220443326645917
0.000181481170641701
0.00014605095478888
0.000114482599691862
8.69999357149054e-05
6.37347150511547e-05
4.47434481864311e-05
3.00290539937151e-05
1.9555913476677e-05
1.32593060150047e-05
1.10519471084852e-05
1.28288224595256e-05
1.84706582650347e-05
2.78457000439366e-05
4.08094973759212e-05
5.72059547612196e-05
7.68770353994052e-05
9.96659140361822e-05
0.000125412552147735
0.000153952106547566
0.000185112464693736
0.000218714591644014
0.000254555735093194
0.000292424771986657
0.000332118017049917
0.00037345598572513
0.000416250798083177
0.000460297575834501
0.000505388357043988
0.000551315504305321
0.000597891346651732
0.000644925482978136
0.000692223060493796
0.000739586854338004
0.000786826444213523
0.000833760674111623
0.000880207128057864
0.000925982476229968
0.000970900487928089
0.00101478238915513
0.00105744668507632
0.001098710225682
0.00113838090777093
0.00117626357530701
0.0012121514846686
0.001245835720113
0.00127707517771909
0.00130563348743853
0.00133120023418071
0.0013535026184899
0.00137211047407952
0.00138668355600272
0.00139642794132926
0.00140140811040989
0.00140040170841434
0.00139293260959408
0.00137668088183705
0.00135081891025656
0.00130912761271526
0.0012523834683644
0.00127533413472072
0.00134050281568685
0.00138139486480328
0.00146262791854339
0.00157908135884214
0.00174256722418029
0.00194998573571842
0.0021827296707919
0.00245016850277882
0.00278170559907827
0.00319243725632228
0.0037256233653433
0.00444519247616622
0.00535114575312174
0.00640463256002261
0.00766953627335307
0.00911898669655684
0.0106664714466284
0.0122500449695059
0.0141330106701912
0.0157971065671919
0.0176255663402694
0.0210460960989917
0.0254380867724745
0.026159510717459
0.0254215655791513
0.0349846166647667
0.0308603319559908
0.0232748501025729
0.0132047067184792
0.00265654145520048
2.27792343604259e-05
4.47764516912559e-05
4.87488779206933e-05
3.94015801032239e-05
3.44354687577271e-05
3.39057041442831e-05
3.71422479756757e-05
4.43155243580158e-05
5.65605875648085e-05
7.64138000780161e-05
0.000106758570694359
0.000148840479348681
0.000201673073193954
0.00026230111558351
0.000324118914720953
0.000378714521346114
0.000424010584169551
0.00046314936980306
0.000498155687154457
0.000517717938486351
0.000454925445860254
0.000316972625383646
0.000210326333074889
0.00015208690796472
0.000109526672368885
7.85131742183492e-05
5.49314259518425e-05
3.73006447656855e-05
2.44890147389276e-05
1.58735547906136e-05
1.10566373537083e-05
9.69541826938984e-06
1.14825807404059e-05
1.61329324906352e-05
2.33792653898173e-05
3.29786980534464e-05
4.47211803200389e-05
5.84283813857896e-05
7.39457573235012e-05
9.11399041186948e-05
0.000109895838926034
0.00013011482434265
0.000151711190010786
0.000174608469621556
0.000198737059559641
0.000224045031217887
0.000250496248963212
0.000278058726211064
0.000306697139920616
0.00033636970074554
0.000367026379654872
0.000398585113558572
0.000430960190364344
0.000464093362218018
0.000497941823023722
0.000532464281460682
0.000567580311201571
0.000603205664543685
0.000639257624229953
0.000675674385435094
0.000712383663557053
0.00074930185799017
0.000786338731901071
0.000823410926531496
0.000860440342534808
0.000897343090714998
0.000934029278502273
0.000970405400967562
0.00100638481589045
0.00104187693690807
0.00107678871405088
0.00111101896986781
0.00114446966449364
0.00117703429087027
0.00120861637483035
0.00123909194911434
0.0012683708986905
0.00129629413364269
0.00132280877573221
0.0013476956752002
0.00137100650315149
0.00139236594081704
0.00141242761743485
0.00143053179683888
0.00144803254289392
0.00146343158783766
0.00148121950448465
0.00149644905477841
0.00153171278212348
0.00163698046505432
0.00170029812631127
0.00168673020474636
0.00170032743323037
0.00175098394111529
0.00184563500900154
0.00196979820076572
0.00209403064530406
0.00222343897188454
0.00238921865127088
0.00261206955145932
0.00295655057511132
0.00351453360853359
0.00430303486273478
0.00527257310309239
0.00643874309084556
0.00762218024496838
0.00857886516628803
0.00920866345760479
0.00973794812304676
0.00987129933512941
0.0104837813151417
0.0151331566078361
0.0249347046821668
0.0328878098503657
0.0356637412218905
0.0377655334933788
0.0339683533932633
0.0292574437847808
0.0212129206946849
0.00765643610294976
0.000357832464221189
1.77668133596184e-05
5.20747093082954e-05
5.6546474057683e-05
5.66297980855505e-05
5.94583682309313e-05
6.60350523338068e-05
7.7837026275408e-05
9.54509473888201e-05
0.000120731032721367
0.000154319766739785
0.00019313715357162
0.000231817649336643
0.000266267859511141
0.000291782478647705
0.000304334368429755
0.0003075387371336
0.000307656342491853
0.000304098797745635
0.000284208550210458
0.000205101684480575
9.67673684279969e-05
3.60827384744489e-05
1.2744039647042e-05
2.47394289224407e-06
2.91000627034822e-07
3.3312346419922e-06
1.0257656110211e-05
2.03250119559347e-05
3.30150774523249e-05
4.78996120593525e-05
6.46166163382134e-05
8.2838149767154e-05
0.000102265847395299
0.000122631481062401
0.000143702682295994
0.000165293033987528
0.000187261284853604
0.000209498060533147
0.000231920565777562
0.000254469265421022
0.000277105074959385
0.00029980671192675
0.000322566207771944
0.000345383421684879
0.000368279599820016
0.000391295582435786
0.000414475893370658
0.000437856820836382
0.000461464857202588
0.000485316223475603
0.000509374627000434
0.00053361314482634
0.000558033343004614
0.000582667907382993
0.000607538924469099
0.000632622082220184
0.000657881624401514
0.00068328589340953
0.000708829697383132
0.00073449679081751
0.000760252050117593
0.000786051603930793
0.000811861284558327
0.000837654674784776
0.000863397333792551
0.000889045912130768
0.000914554533841454
0.000939887571064584
0.000965007401519322
0.00098987238084829
0.00101443509870264
0.0010386560038866
0.00106249282208006
0.00108591815155964
0.00110888396794783
0.00113138616024143
0.0011533679622383
0.00117489620749327
0.00119590375774756
0.0012166377789647
0.0012369391164623
0.00125772952683339
0.00127893940842907
0.00130267723886906
0.00132860941237593
0.0013635451507782
0.00140570451838003
0.00148863351435151
0.00164721699328348
0.00174108976774107
0.00172788830739697
0.00171782960532288
0.00173571901718944
0.00178955710212569
0.00186275066190346
0.00192013870380355
0.00195864431821894
0.00200425660461677
0.00207490632352499
0.00222744388785391
0.00255083346190566
0.00307167019528647
0.00374722551488014
0.0045759013476533
0.00535007786994231
0.00578164223617244
0.00575511979393328
0.00545943910546757
0.00473211360960118
0.00416754457970136
0.00685592150254291
0.0165343064983823
0.0291552968172616
0.0364551572728247
0.0344368002053696
0.0323340417190197
0.0301351227238104
0.0266170853223839
0.0145028321927694
0.00181517386848004
1.44008936949215e-05
2.39032425350558e-05
4.92545542663823e-05
6.19865236084173e-05
7.15358668797672e-05
8.11384357861637e-05
9.406882569156e-05
0.000109904234085525
0.000129127315329623
0.000150557072778333
0.000170080028216422
0.000183689019159266
0.000191245907428154
0.000192165581158696
0.000185312780537611
0.000174608300358693
0.000163975236491449
0.000150659020420341
0.000126758162478844
7.26867875053301e-05
2.08477604603619e-05
6.67981559156735e-06
1.12169817456042e-05
2.41767600537553e-05
4.08808012032202e-05
6.0395570997757e-05
8.18667762882453e-05
0.000105020016406534
0.00012945388855632
0.000154831482102774
0.00018084254985246
0.000207192061935831
0.000233604681302604
0.000259834157530766
0.000285668086196881
0.000310944976948781
0.000335558494193678
0.000359439700781155
0.000382548612942053
0.000404871138428181
0.000426416060165342
0.000447214017730987
0.000467311798154995
0.000486761212641035
0.000505636573704505
0.000524036045845098
0.000542061085141677
0.000559799697340385
0.000577326313966822
0.000594702036242376
0.000611915234353424
0.00062897129922486
0.000645916044172633
0.000662819617602714
0.000679745372987566
0.000696702066089399
0.000713674921036506
0.000730654651368992
0.000747665306413678
0.000764721350735569
0.000781809507030142
0.000798904523707807
0.000815993607741717
0.000833075411889588
0.000850138325204547
0.000867158249119489
0.00088410888338382
0.000900977672802977
0.000917751980748263
0.000934412299408391
0.000950934226230493
0.000967303963347767
0.000983509267950178
0.00099955378752259
0.00101542409968475
0.00103115260752752
0.00104673088264649
0.00106227379566942
0.00107779027094751
0.00109359693143043
0.0011096613053014
0.00112689715259178
0.00114558177502276
0.00116803106151889
0.00119465309372402
0.00123274251550723
0.0012828872601806
0.00137986212869476
0.00156230529961138
0.00169375120019628
0.00170926182994104
0.00170642928171806
0.00171914395892067
0.00175950585651079
0.00181310842569495
0.00184263202320963
0.00183874842003627
0.00182313180403477
0.0018114403182664
0.00185067272379635
0.00202112163660281
0.00235225950496826
0.00280701091704907
0.00338189900881707
0.00389554381453248
0.00408913120929498
0.0038463982731197
0.0033404065015245
0.00243589023121791
0.00143590908092141
0.00212182135546897
0.00822739612733438
0.0202506096806262
0.031202698640932
0.0279898858656347
0.0276258886485729
0.0280775410279044
0.0293694051397079
0.0206478235453974
0.00494835416707388
0.00020538308332194
1.8016537788967e-07
2.12571127625668e-05
4.27866196654892e-05
5.84434846755861e-05
6.96980102112967e-05
8.05530878015968e-05
9.04290826991967e-05
9.97039160556382e-05
0.000107802328465157
0.000112556747992858
0.000112654717782027
0.000109886641449969
0.000104595090954845
9.58166851314438e-05
8.57447106293534e-05
7.62155670878248e-05
6.49374763245696e-05
4.96433376313359e-05
2.67746716811698e-05
2.28691247710928e-05
4.25591039751735e-05
6.67891137631509e-05
9.61419910710295e-05
0.000125885096132882
0.000156692313492843
0.000188046037182184
0.000219983635538129
0.000252198401319487
0.000284428752973705
0.000316398218059336
0.000347832029489241
0.000378465910943946
0.000408064098138362
0.000436421038577201
0.00046338813275963
0.000488884851456752
0.000512875192350175
0.000535354824133125
0.000556348387006343
0.000575906233403482
0.000594105745201939
0.000611043877031576
0.00062681778910756
0.000641547031056404
0.000655380630331205
0.000668471179866777
0.000680952710242433
0.000692941475456884
0.000704532779566893
0.000715742421344302
0.000726602600789117
0.000737187734669531
0.000747595696087314
0.00075792401816493
0.000768207799900152
0.000778443561455559
0.0007886336213646
0.000798821342691806
0.000809043047714828
0.000819297587471703
0.000829567427735464
0.000839850218720259
0.000850159181768404
0.000860494947643738
0.000870841290176122
0.000881179536156343
0.00089150817719055
0.000901827414660105
0.000912127011032978
0.00092239161406662
0.000932618433466069
0.00094280953109906
0.000952982683337542
0.00096313991456191
0.000973328829140528
0.000983564011860804
0.00099397994429593
0.00100462542043533
0.00101584048641118
0.00102768163447511
0.00104099927030274
0.00105625734354161
0.00107581451642938
0.00110055499351014
0.00113766544837213
0.00118948986846142
0.00128831435792646
0.00147813416216026
0.0016389387299259
0.0016891260987245
0.00170701528476858
0.00172917779235529
0.00177160576705836
0.00182305469413315
0.00184578892565615
0.00182635860661186
0.00178359552329246
0.00173201124722152
0.00171205114505026
0.00179791578323285
0.00202197163479674
0.00235164637027588
0.0027886628699437
0.00318537087327496
0.00333295286843559
0.00310840574786698
0.00267516145265999
0.0018572762004282
0.000787942319059744
0.00040026325621793
0.00334890320136637
0.0120333927464372
0.0222027415872874
0.0199648678823771
0.0212854464754341
0.0239673531570529
0.0290951112361332
0.0270358417183418
0.00943565470785752
0.000747714586425976
2.79403467566966e-05
1.29524946113658e-06
1.57833248623068e-05
3.15256321232367e-05
4.24526236073012e-05
5.06579047788926e-05
5.58511897747227e-05
5.90001106307536e-05
6.06693241398837e-05
6.0278259295302e-05
5.76242391714854e-05
5.41889101945218e-05
5.01554476747185e-05
4.45925123314422e-05
3.84325230718743e-05
3.27123278914817e-05
2.66733837424113e-05
2.22728405752294e-05
2.68192324745495e-05
6.04909070285902e-05
0.000106091115151771
0.000145971093706407
0.0001885630765997
0.000228829173482097
0.000268799345991161
0.000308149000586356
0.000347186412703063
0.000385674954776658
0.000423410781132181
0.000460136850494555
0.000495588171964292
0.000529502007329307
0.00056164459493482
0.000591807806708488
0.000619847934856169
0.000645705330994042
0.000669373536860633
0.000690880759125867
0.000710287647655277
0.000727683745933356
0.000743191953122879
0.000756959114434095
0.00076912581043787
0.00077985369331739
0.000789340803138218
0.000797789650743556
0.000805379137288336
0.000812262845903485
0.000818569692725518
0.000824349761152416
0.000829659737011287
0.000834591554651708
0.000839268470774435
0.000843820573955875
0.000848307934468867
0.000852734510142531
0.00085710948332732
0.000861491664014079
0.000865936207113723
0.000870450258552767
0.000875019118136076
0.000879646195269707
0.000884355020462929
0.000889154114062783
0.000894030032838914
0.000898966331198386
0.000903967311021368
0.000909040822122782
0.000914180208219873
0.000919372817562141
0.000924620370121178
0.000929932364841154
0.0009353335668271
0.000940833068986526
0.000946485047561719
0.000952316159884207
0.00095847032876285
0.000965020770785017
0.000972317239152632
0.000980479618503948
0.000990324312082962
0.00100239882808929
0.00101908331362417
0.0010416112512316
0.00107692253047764
0.00112877082510828
0.00122617598532613
0.00141578706596218
0.00159619380374468
0.00167856462705149
0.00172204616943924
0.00176113864874637
0.00181422495183036
0.0018728348260797
0.00189960425792407
0.00187860245097593
0.00182692785418221
0.0017584777147648
0.001709770811232
0.00175153931408101
0.00192027240638465
0.00218742025196655
0.00256391094621689
0.00293126052803966
0.00313055210476375
0.0030183562801538
0.00274544374009257
0.00205751955512703
0.000995662237400216
3.96811888755192e-05
0.0012012480120887
0.00656419974412002
0.0144273604329865
0.013653702137087
0.015489315048207
0.0192308170563218
0.0268305651032582
0.0308041347924477
0.0146323676840622
0.0017765060133451
0.000125911197494051
8.98978997912856e-06
8.14263842376436e-07
9.23996203461239e-06
1.74426307108406e-05
2.32864092413554e-05
2.63449368234897e-05
2.77360122971852e-05
2.83655202071221e-05
2.81700933038237e-05
2.70348673613428e-05
2.56116123884393e-05
2.4128028639469e-05
2.20725243708666e-05
1.97163014614885e-05
1.79705529078266e-05
1.7672521649766e-05
2.35206370096782e-05
5.08853152535977e-05
0.000115096213785927
0.000182422218932845
0.000236243953818428
0.000290814061687775
0.000340665138480313
0.000389040014955697
0.000435723950973384
0.000481296284760968
0.00052557217850992
0.000568396261515298
0.000609523218953997
0.000648692174379413
0.000685636403770617
0.000720119429383687
0.000751924517025836
0.000780907853149323
0.000807028520220673
0.000830308757044145
0.000850808481329884
0.000868623719357639
0.000883882697774922
0.000896754391885886
0.000907437214096375
0.000916115319387775
0.000922991283906476
0.000928312111673063
0.000932330765634924
0.000935271237387887
0.000937317973074695
0.000938642808768291
0.000939337266876896
0.000939474322949273
0.000939160235499008
0.000938543133446253
0.000937786000639334
0.000936974417534692
0.000936118012085485
0.00093523035406716
0.000934384261973939
0.000933653030036685
0.000933050469782252
0.000932562103593002
0.000932194885185815
0.000931980960894983
0.000931934884686407
0.000932043375365846
0.000932289428684711
0.000932680744583296
0.00093323055176962
0.000933933004272629
0.000934774927566768
0.000935759479869933
0.000936900501984354
0.000938226638234797
0.000939750188650618
0.000941528318591393
0.000943594919223739
0.00094610006320476
0.00094913485512858
0.000953056517017529
0.000958032757985696
0.000964872093612977
0.000974179915056703
0.000988342990229898
0.00100889353541115
0.001042527981542
0.00109417510219265
0.00118983150610754
0.00137616769750322
0.00156857069340608
0.00167827622146856
0.0017482101470911
0.00180796875832355
0.00187657095816967
0.00194742070576003
0.00198388594995965
0.00196887490807608
0.00191861944255021
0.00184657388333303
0.001786863846745
0.00180829267379384
0.00195230050936073
0.00219401489096791
0.00255593707635716
0.00294336141127812
0.00324201865779729
0.00327468411795118
0.00317317551175106
0.00258708809178639
0.00151334782237235
0.000176153849989178
0.000409486560685794
0.00353633582828991
0.00906790038178978
0.00917898839288205
0.0110527215063664
0.0141726151063216
0.0235086912206941
0.0326977314822884
0.0201896519925284
0.00346385267069457
0.000307396421712935
4.63848059111778e-05
4.85457488780025e-06
4.40193226750087e-07
3.75999844355621e-06
7.29710177760205e-06
9.87028640088406e-06
1.19864113714305e-05
1.40410878775341e-05
1.58521776257415e-05
1.71025878526698e-05
1.77502939338752e-05
1.83569721213801e-05
1.90721296757223e-05
1.98676620442914e-05
2.17647210748042e-05
2.69873383863269e-05
4.19535508980938e-05
8.85837287375608e-05
0.000178885993126405
0.000265734785417642
0.000332934899216259
0.000399143607238639
0.000458399244144176
0.000515069849923619
0.000569005763728907
0.000621068212407213
0.000671110389453706
0.000719021602387134
0.000764564454525688
0.000807479640949247
0.000847493519157356
0.000884364773780701
0.000917864271629023
0.00094784499905849
0.000974284385589406
0.000997234133742341
0.00101678644257191
0.00103307332127182
0.00104626220619228
0.00105656966139449
0.00106424841941961
0.0010695274983436
0.00107265023810284
0.00107391344009801
0.0010736218852294
0.00107204257868504
0.00106938995025086
0.00106588935690958
0.00106167762570719
0.00105683682338131
0.0010514872136728
0.00104580210175982
0.00103997853092317
0.00103412888552914
0.00102826748443968
0.00102241076866789
0.00101664530886225
0.00101106295803076
0.00100568346056652
0.00100049086656885
0.000995494570343373
0.000990734867656154
0.000986231608743904
0.000981970086361434
0.000977931073958635
0.000974124564513943
0.000970568250102
0.000967255582618665
0.000964170986897806
0.000961317503083637
0.00095871193470642
0.000956385452080049
0.000954351661960742
0.000952669223552216
0.000951377090078785
0.000950630877566235
0.000950536962696666
0.000951461758860421
0.000953611802194309
0.000957812905531575
0.000964708973709611
0.000976707727016007
0.000995608823992006
0.00102791065559751
0.00107952519503491
0.0011739278098922
0.00135602339574865
0.00155515883234005
0.00168719177536943
0.00178251616538139
0.00186452344103898
0.00195129520316788
0.00203705897150503
0.00208611080850163
0.00208135881677472
0.00203890353694479
0.00197175555078802