/*--------------------------------*- C++ -*----------------------------------*\
  =========                 |
  \\      /  F ield         | OpenFOAM: The Open Source CFD Toolbox
   \\    /   O peration     | Website:  https://openfoam.org
    \\  /    A nd           | Version:  7
     \\/     M anipulation  |
\*---------------------------------------------------------------------------*/
FoamFile
{
    version     2.0;
    format      ascii;
    class       volSymmTensorField;
    location    "20000";
    object      tauij_B;
}
// * * * * * * * * * * * * * * * * * * * * * * * * * * * * * * * * * * * * * //

dimensions      [0 2 -2 0 0 0 0];

internalField   nonuniform List<symmTensor> 
15600
(
(1.38756136832062e-06 -9.95648340664492e-09 -1.55905131506459e-32 1.38767661303503e-06 -5.5936233414611e-35 1.38761952418257e-06)
(1.34068947189862e-06 -1.12443558567713e-08 2.66713367275879e-28 1.34141304152379e-06 1.41111990908245e-27 1.34104109631867e-06)
(9.2503923510637e-07 -6.06629339466999e-09 4.33892039400744e-28 9.26836317328921e-07 5.20672938188648e-27 9.25942538031149e-07)
(4.66009176284206e-07 -6.9469009917876e-10 -8.49691617829369e-29 4.66417786641344e-07 1.64706298190737e-31 4.66204263647957e-07)
(1.66236028010703e-07 3.45836985047683e-10 0 1.65722151065027e-07 0 1.65974892378696e-07)
(7.41256894683623e-08 1.68558565442218e-10 7.51624061056545e-33 7.37754691907023e-08 2.18052979208689e-35 7.39489951835079e-08)
(6.79850770562963e-08 1.07874668655182e-10 9.11947398187852e-32 6.77000144670144e-08 1.68208456802696e-31 6.78417101703664e-08)
(4.99061129100607e-08 6.35006820896131e-11 -3.29206263950752e-32 4.97107563477301e-08 -1.30497376319467e-31 4.98078019886052e-08)
(3.58672757528578e-08 3.78581821880009e-11 -2.02686773051397e-31 3.5742314171896e-08 -4.52729761563509e-31 3.58045078659878e-08)
(2.98058967420947e-08 2.99531709914793e-11 3.70596337026404e-28 2.97080908660783e-08 -1.14113489155136e-29 2.97567820671484e-08)
(2.80793977158025e-08 2.82386855249417e-11 -1.11893706795445e-27 2.79915191797555e-08 -3.83956459030445e-27 2.80353338389611e-08)
(2.93332920443965e-08 3.11400041395233e-11 4.35057577411487e-27 2.9240362897361e-08 8.90873510425237e-27 2.92867116202364e-08)
(3.25851921385837e-08 3.66324716771929e-11 -9.05608352535089e-27 3.24792927635253e-08 -1.62037527071298e-26 3.2532154064798e-08)
(3.81389008200993e-08 4.6473146590666e-11 -1.07924306554442e-26 3.80072626376664e-08 -2.0898053954277e-26 3.80730062471192e-08)
(4.70958818858073e-08 6.36311939459669e-11 -3.84575847020583e-30 4.69174627531859e-08 -9.22142613178778e-30 4.70066221409772e-08)
(6.07580348084468e-08 9.37767589565061e-11 1.86698268509404e-26 6.0500054517608e-08 4.01220864576408e-26 6.06290004246003e-08)
(8.05138877993939e-08 1.4701728026798e-10 2.79406896654019e-26 8.01296050574132e-08 5.70678549503527e-26 8.03217413682585e-08)
(1.08372230037121e-07 2.41689859159421e-10 1.67209886047696e-30 1.07792960060023e-07 -1.0708702849399e-31 1.08082630597602e-07)
(1.46113704621017e-07 4.0278309330634e-10 -4.177484613801e-26 1.45261244469391e-07 -1.25680232314091e-25 1.45687588987682e-07)
(1.94966802562912e-07 6.65403638944408e-10 -3.34910380217437e-26 1.93772746047022e-07 -1.13238724293234e-25 1.94370132744537e-07)
(2.56667460508862e-07 1.07992086377841e-09 -1.64636438756448e-26 2.55079704374459e-07 1.48910346652203e-27 2.55874493040173e-07)
(3.32795001599685e-07 1.69342768162784e-09 -5.46508136829033e-26 3.30812661859597e-07 -2.39923317658565e-25 3.31805420820219e-07)
(4.21289021301e-07 2.51765298743212e-09 1.23214970903674e-26 4.19044223598074e-07 -1.08759267210305e-27 4.20169248403625e-07)
(5.18501012539062e-07 3.52997604304942e-09 8.61227371368574e-26 5.16288074393745e-07 4.57762502022189e-25 5.17399841415314e-07)
(6.22102461066485e-07 4.62536324077195e-09 -3.37510549995407e-26 6.20366008350647e-07 2.18996296744315e-27 6.21239058499603e-07)
(7.39002254108154e-07 6.18870338218521e-09 2.69947489039488e-24 7.38129795242374e-07 -1.21125178877221e-25 7.38574996458222e-07)
(9.31860727074139e-07 9.39067837204203e-09 8.64787331231666e-24 9.31600690185392e-07 -1.89670505323443e-23 9.31744579574686e-07)
(1.19117177145835e-06 1.38514391100275e-08 3.29841351987076e-24 1.19091304534128e-06 -2.21273929906911e-23 1.19105334292855e-06)
(1.4348516716604e-06 1.80818859542307e-08 -5.37686037707294e-24 1.43462801969895e-06 3.1048477909024e-25 1.43475527539373e-06)
(1.66272829765387e-06 2.21481365694947e-08 -1.94798068945779e-42 1.66252807923212e-06 -1.0663314373445e-27 1.66264564527519e-06)
(1.87886514435978e-06 2.59739893794441e-08 8.2833605322982e-24 1.87868951570277e-06 -4.30930641222616e-25 1.87879767704247e-06)
(2.08534604308223e-06 2.95583646162045e-08 2.65192524508913e-23 2.08519464824757e-06 -4.614567128883e-23 2.085293196645e-06)
(2.28361271000331e-06 3.28693110414004e-08 8.78096632043398e-24 2.28348760046139e-06 -4.85862688313925e-23 2.28357543663798e-06)
(2.47476879431154e-06 3.58851656626683e-08 -1.14272850208115e-23 2.47467214993634e-06 5.56720282507303e-25 2.47474794580117e-06)
(2.6612174654428e-06 3.8605289118953e-08 -9.66166216532321e-29 2.66115178660551e-06 4.50638205620792e-30 2.66121402485984e-06)
(2.83843819642869e-06 4.09348648017354e-08 0 2.83840588900067e-06 0 2.83845303220927e-06)
(3.00207304261785e-06 4.27889516726466e-08 1.3350785337239e-28 3.00207610182043e-06 -5.50855211342734e-30 3.00210674624869e-06)
(3.15075148690687e-06 4.41363302240901e-08 -1.77461577684901e-23 3.15079108727049e-06 7.02559740700279e-25 3.15080423310662e-06)
(3.28358367131666e-06 4.49639917375152e-08 -4.40405752720133e-23 3.28366011054866e-06 9.03175343808714e-23 3.2836551756485e-06)
(3.39984077496288e-06 4.52722884287276e-08 -5.81759432009274e-24 3.39995333037265e-06 9.26618858667038e-23 3.39993025631936e-06)
(3.49914407156537e-06 4.50777249164276e-08 2.05790785784314e-23 3.49929097381604e-06 -7.41184509632047e-25 3.49925025232245e-06)
(3.58156550224361e-06 4.44121945344243e-08 3.67303395754988e-28 3.58174414042168e-06 7.31359465976297e-27 3.58168673139545e-06)
(3.6475580829977e-06 4.33187521882817e-08 1.1661496607938e-28 3.64776531890733e-06 -9.27880561652735e-28 3.64769248377059e-06)
(3.69774835679827e-06 4.18463326414595e-08 -1.90898026831344e-28 3.69798067160978e-06 5.82174493665964e-30 3.69789391659125e-06)
(3.73293092350499e-06 4.00479627966746e-08 0 3.73318456874471e-06 0 3.73308556146372e-06)
(3.75402188726922e-06 3.79783591794044e-08 2.88301460630851e-23 3.75429300403563e-06 -7.26343282200643e-25 3.75418352092511e-06)
(3.76205576688007e-06 3.56923602823663e-08 5.02054111934548e-23 3.76234052837781e-06 -1.54066170470536e-22 3.76222237536795e-06)
(3.75811497568839e-06 3.3242697530635e-08 -9.81681828159837e-24 3.75840970666433e-06 -1.56297738595454e-22 3.75828466166743e-06)
(3.74325631359293e-06 3.06782848586884e-08 -2.96441260200593e-23 3.74355755958672e-06 6.33215399822101e-25 3.74342731720176e-06)
(3.71843932430053e-06 2.8043796339762e-08 4.59718567585656e-42 3.71874376037624e-06 2.49670042280019e-27 3.71860999003513e-06)
(3.68477406759873e-06 2.53817315899906e-08 0 3.68507859784685e-06 0 3.68494288889876e-06)
(3.64354162672914e-06 2.27305984651089e-08 3.11997971734797e-23 3.64384356387266e-06 -4.47759254721801e-25 3.64370731922046e-06)
(3.59598743290247e-06 2.01228432837012e-08 4.25523481975051e-23 3.59628451853696e-06 -1.82358578041653e-22 3.59614895416655e-06)
(3.54332100919466e-06 1.75847402837998e-08 -2.06525221644204e-23 3.54361145269616e-06 -1.84197560878591e-22 3.54347755218844e-06)
(3.48661056077074e-06 1.51364248187551e-08 -3.05184002791078e-23 3.48689296500571e-06 3.29826586644814e-25 3.48676153809415e-06)
(3.42686478823247e-06 1.27925951981056e-08 0 3.42713819303302e-06 -6.8630158479099e-28 3.427009820833e-06)
(3.36461838438181e-06 1.05619622386597e-08 -1.5980366024398e-29 3.36488198291388e-06 -1.04420415374262e-29 3.36475716934713e-06)
(3.30015635098759e-06 8.45164269751445e-09 1.42688372121459e-29 3.30040936528106e-06 4.36116515144744e-28 3.30028861348304e-06)
(3.23429345118834e-06 6.46790263351465e-09 1.67607020529888e-29 3.2345353391862e-06 2.39504802689208e-28 3.23441901685581e-06)
(3.16748656448211e-06 4.61368088334078e-09 -1.50656288826244e-29 3.16771698883326e-06 2.70265168762003e-32 3.16760537214861e-06)
(3.10052565714027e-06 2.88938109288391e-09 1.55841517734297e-29 3.10074469133153e-06 2.79567049261968e-32 3.10063778947952e-06)
(3.03374628329348e-06 1.29229402780126e-09 -1.49001722812652e-29 3.03395409108531e-06 2.37405182562072e-28 3.0338518734058e-06)
(2.96710555023751e-06 -1.80702872302951e-10 -1.5272892207021e-29 2.96730223767714e-06 4.44806493381364e-28 2.96720472676901e-06)
(2.90085389808157e-06 -1.53301402291789e-09 1.45987996902673e-29 2.90103960135412e-06 7.17584237542713e-30 2.9009468154239e-06)
(2.83517456476803e-06 -2.76874568544501e-09 0 2.83534951037904e-06 6.62241637178603e-28 2.83526142426202e-06)
(2.77030790035056e-06 -3.89317994245546e-09 0 2.77047240397839e-06 1.25068827204191e-29 2.77038893571052e-06)
(2.70629477143152e-06 -4.91145936125981e-09 -1.14597195926247e-42 2.70644913764393e-06 -1.25461811104203e-27 2.70637020791715e-06)
(2.64317737288073e-06 -5.82863886532193e-09 -1.13635632022691e-28 2.64332192402975e-06 -1.63082489356604e-30 2.64324743034982e-06)
(2.58097919988794e-06 -6.64966449888019e-09 1.1731523050678e-28 2.58111426392498e-06 -1.72618743048728e-27 2.58104410177866e-06)
(2.51977280972554e-06 -7.37975370119538e-09 1.02037315403604e-28 2.51989875216129e-06 1.68735225522546e-27 2.51983278433966e-06)
(2.45953739879532e-06 -8.02378918999172e-09 -1.05652769509696e-28 2.45965455567058e-06 2.34991631056379e-27 2.45959266142825e-06)
(2.40023334537896e-06 -8.58624137000933e-09 -2.63699430281798e-23 2.40034203925391e-06 -5.6995569123613e-25 2.40028409436562e-06)
(2.34178829971826e-06 -9.07116866023674e-09 -4.67243030007232e-23 2.34188882947261e-06 1.58342945970526e-22 2.34183472046686e-06)
(2.28415637906186e-06 -9.48246534478678e-09 1.01933797191983e-23 2.28424904366459e-06 3.14386979614529e-22 2.2841986501727e-06)
(2.22725978503969e-06 -9.82375376823896e-09 5.45999448065392e-23 2.22734485409204e-06 1.56375371557246e-22 2.22729806698727e-06)
(2.1709750932227e-06 -1.00979208935617e-08 2.40901202669651e-23 2.17105279171858e-06 6.48235842486409e-25 2.17100952397244e-06)
(2.11518116197017e-06 -1.03075725050123e-08 0 2.11525169309678e-06 0 2.11521185996786e-06)
(2.05972403840679e-06 -1.04546836360793e-08 -1.89094362696772e-28 2.0597875668657e-06 -6.10595923081114e-30 2.05975110756318e-06)
(2.00446247998872e-06 -1.05411557433873e-08 -2.3024834526868e-23 2.00451914571973e-06 -7.87655520292618e-25 2.00448599884205e-06)
(1.9491818747598e-06 -1.05678007349999e-08 -1.6590752342717e-23 1.94923175257045e-06 1.33441155598843e-22 1.94920190346349e-06)
(1.89368915672795e-06 -1.05355862709747e-08 2.75483294581869e-23 1.89373228769471e-06 1.35634671275031e-22 1.89370571273931e-06)
(1.83767269294312e-06 -1.04435725920963e-08 2.11348327633211e-23 1.83770903437905e-06 7.92479392137994e-25 1.83768578895612e-06)
(1.78090583358476e-06 -1.02922654767518e-08 6.63315501164859e-42 1.78093531702161e-06 3.6024215878547e-27 1.78091540531022e-06)
(1.72287408331083e-06 -1.00776738125763e-08 6.49527095265768e-42 1.72289648456085e-06 -3.52753768873622e-27 1.72288009387949e-06)
(1.66336198605061e-06 -9.80099145762695e-09 0 1.66337709712245e-06 3.40678380066187e-27 1.66336423137056e-06)
(1.60175498449475e-06 -9.45396429134393e-09 0 1.60176229397716e-06 0 1.60175339659683e-06)
(1.54091991629309e-06 -9.0593301391611e-09 -1.49351733303228e-28 1.54091907020498e-06 -3.224824093627e-27 1.54091401522083e-06)
(1.47788662922481e-06 -8.5862080293641e-09 1.60800796112273e-28 1.47787641983754e-06 -2.24294045798626e-27 1.47787632067677e-06)
(1.41213695962947e-06 -8.04645242739473e-09 1.20128064970694e-28 1.41211666761685e-06 5.11241399091724e-27 1.41212109123435e-06)
(1.34011592480036e-06 -7.38454144632877e-09 -1.29922749227168e-28 1.3400829932303e-06 -6.7590555092304e-30 1.34009458514711e-06)
(1.26282736817174e-06 -6.65022851634405e-09 0 1.26278074501197e-06 0 1.26279790783529e-06)
(1.172264993318e-06 -5.71346465914366e-09 1.18049671704682e-28 1.17220031664365e-06 2.56333082646146e-27 1.17222888011935e-06)
(1.07220019890117e-06 -4.73216065993654e-09 -1.16573342184319e-28 1.07211426182481e-06 -6.74841706913468e-28 1.07215015365878e-06)
(9.39596891870936e-07 -3.36841309861255e-09 1.22165653714642e-26 9.3947640169758e-07 -7.34611550822825e-28 9.39534974338878e-07)
(9.10476084158174e-07 -2.3899447997294e-09 4.87715826051399e-26 9.10146990684803e-07 -7.23636705485734e-26 9.10310458478765e-07)
(1.10086607690772e-06 -3.03938023250828e-09 -9.4417094951571e-26 1.0998546655468e-06 8.84632452796843e-25 1.10035789142378e-06)
(1.31324298204388e-06 -4.56206085095027e-09 -3.5809482162226e-23 1.3105944344817e-06 -5.35739934707607e-24 1.31192906986567e-06)
(1.52124334026e-06 -6.34136420573161e-09 -8.1339499579119e-23 1.51590851443273e-06 2.45349974745967e-22 1.51858719511649e-06)
(1.71156893660591e-06 -8.35702394613649e-09 -1.39164942015019e-23 1.70224586867509e-06 2.7098278864699e-22 1.70691891750323e-06)
(1.89398198280593e-06 -1.04282835524418e-08 4.53502270117276e-23 1.87929917506019e-06 1.12191612429218e-24 1.88664515426628e-06)
(2.08846743384361e-06 -1.26911887371197e-08 -2.6052846354916e-24 2.06661837775922e-06 5.07500096716494e-24 2.07752659882687e-06)
(2.25527441847816e-06 -1.49513280196912e-08 1.39645368748075e-24 2.22488503412867e-06 -4.98417776898221e-24 2.24002906630717e-06)
(2.35239216690982e-06 -1.67823398652665e-08 2.22666834030958e-24 2.31371014332395e-06 -2.88783363327259e-24 2.33296100912561e-06)
(2.38465888561771e-06 -1.80655514391252e-08 7.96383557017445e-25 2.33912488686366e-06 -1.59690635398229e-24 2.36176508903581e-06)
(2.35699926278173e-06 -1.88641928741088e-08 1.9000518800488e-24 2.30672760436498e-06 -3.80125961847693e-24 2.33170658456241e-06)
(2.25093370418315e-06 -1.88372634597954e-08 7.02113557632795e-25 2.19944331389343e-06 -1.26792795906287e-24 2.22502734859876e-06)
(2.13014843260043e-06 -1.82150840772012e-08 8.3973627720581e-26 2.07951667918555e-06 -1.1277944613273e-24 2.10467775287219e-06)
(2.0467741442667e-06 -1.75850672192286e-08 1.53263855629772e-24 1.99666824073587e-06 -3.19703397833976e-24 2.02156704059033e-06)
(2.00234439657566e-06 -1.72032929681711e-08 3.6226688441898e-28 1.95162385670221e-06 -4.52943372456623e-28 1.97682161555827e-06)
(2.01856867202252e-06 -1.7340312145283e-08 -1.02519262218912e-24 1.9651835521731e-06 2.47097381632198e-24 1.99169364723966e-06)
(2.14444237689542e-06 -1.87728897785172e-08 1.18867058662445e-25 2.08373943095816e-06 2.71623351276235e-27 2.1138483800969e-06)
(2.33988296155451e-06 -2.21960522735331e-08 -7.68095627706915e-25 2.26728170081379e-06 6.34387526725393e-25 2.3032395034828e-06)
(2.51980560762823e-06 -2.76429093373812e-08 -7.34609205815142e-25 2.43518933238194e-06 1.01099069776065e-24 2.47706716304238e-06)
(2.74333047480285e-06 -3.67698627807368e-08 6.76817506093486e-25 2.64633046569933e-06 -2.23526478669138e-25 2.69430468492803e-06)
(2.8457333858027e-06 -4.81377530061571e-08 7.69824615745303e-25 2.74616022877673e-06 -4.87256737549689e-26 2.79539971019458e-06)
(2.56707336428457e-06 -5.37185514053842e-08 5.96295131757374e-25 2.49085427227754e-06 1.29948624559119e-25 2.52854433641132e-06)
(2.0474431769401e-06 -4.28628397069146e-08 -5.4736307052079e-26 2.01327934405013e-06 2.69365253567842e-25 2.03023965173145e-06)
(1.57893783058944e-06 -2.45255957434928e-08 -2.06067432027248e-28 1.56997843794705e-06 -7.3935995839118e-30 1.57442720500001e-06)
(1.25984047011474e-06 -1.19297278796535e-08 8.15089618493719e-29 1.258664729091e-06 -5.17227772627486e-27 1.2592604041098e-06)
(1.24241819119484e-06 -8.2628871899229e-09 1.63741099168446e-28 1.24236471919255e-06 -5.87476513433165e-31 1.24238430938393e-06)
(4.4693046776499e-05 -2.14956185422468e-06 9.23829114952403e-27 4.47289291394658e-05 3.31454907945432e-29 4.47120590895954e-05)
(4.32838232021962e-05 -2.22040395661197e-06 -1.22422990681543e-24 4.34152923708627e-05 -4.78885641264113e-25 4.33476805787411e-05)
(2.97953055973327e-05 -1.29055973113808e-06 2.52183916466484e-26 3.01055264837638e-05 3.78238285405844e-25 2.99524457795277e-05)
(1.50774611008205e-05 -2.747156702191e-07 -1.46896172333926e-28 1.5202675533241e-05 1.99641493796719e-29 1.51410003150672e-05)
(5.46583834214953e-06 3.06681110791921e-08 -2.44707925432306e-30 5.40117724947312e-06 -2.77079148881638e-32 5.43423742206422e-06)
(2.44190410960635e-06 2.59038395164127e-08 -2.09536895654118e-29 2.3865442428726e-06 -4.89747006105004e-29 2.41446173725992e-06)
(2.2258758167141e-06 1.80552653269637e-08 -4.23281476584243e-29 2.17884992728239e-06 -8.42108064100141e-29 2.20255559929736e-06)
(1.64008088084723e-06 1.08683716812353e-08 -1.39397581473288e-24 1.60710589308905e-06 -2.5504550006195e-24 1.62368494124168e-06)
(1.17884332562502e-06 6.65783450799228e-09 -2.6628729609738e-28 1.1572067032529e-06 -4.25274852166313e-28 1.16808370303197e-06)
(9.77027759387909e-07 5.31929441462445e-09 -1.21733676269768e-24 9.59848645644368e-07 -1.96978413791296e-24 9.68469981596272e-07)
(9.18264236795891e-07 5.08020056624622e-09 2.70314938860197e-25 9.02563906916094e-07 6.8959154684124e-25 9.10439731222551e-07)
(9.57538398724569e-07 5.62419956563143e-09 4.25978349601958e-25 9.40785096572307e-07 8.46546535049054e-25 9.49180715696801e-07)
(1.06245338520823e-06 6.67887484298748e-09 1.16508646200729e-24 1.04312645289616e-06 3.06760284042603e-24 1.05280659480055e-06)
(1.24250079687838e-06 8.52665599073939e-09 -9.70666861562333e-26 1.21820878655673e-06 -2.78322652509491e-26 1.23036655969641e-06)
(1.53370692315746e-06 1.17142680211416e-08 6.42918668852436e-25 1.50051514021991e-06 -3.63620502460164e-26 1.51712234162303e-06)
(1.97929337896872e-06 1.72931863194264e-08 -2.83657331595159e-24 1.93105541072811e-06 -7.24168523247282e-24 1.95518165999641e-06)
(2.62531305517964e-06 2.71472334997286e-08 -4.88284268029417e-24 2.55318819494538e-06 -1.0506470888448e-23 2.58925794613521e-06)
(3.53860837493979e-06 4.45752801566789e-08 -2.07057431680335e-24 3.42989389827033e-06 1.43077003985333e-25 3.48426535112142e-06)
(4.77868930724342e-06 7.433835035153e-08 4.23599167551026e-24 4.61866739658596e-06 2.29376077409803e-23 4.6986981196484e-06)
(6.38543253668019e-06 1.23174882371208e-07 -8.33011378999219e-24 6.1606215843967e-06 -1.49677564191653e-23 6.27303352523067e-06)
(8.4132802170083e-06 1.99929655854075e-07 2.9915530965011e-24 8.11398751572667e-06 -2.2222102758038e-25 8.26364672913345e-06)
(1.09104659235098e-05 3.12881808841371e-07 -3.21238398637945e-24 1.05373284246557e-05 7.42681689724791e-24 1.07238778358705e-05)
(1.38017920710944e-05 4.64658268944446e-07 6.09828557752166e-24 1.33796518952789e-05 -5.47489608772569e-25 1.35906176077462e-05)
(1.69561628341624e-05 6.50868165542443e-07 -1.79752545274095e-23 1.65394093651243e-05 -1.40718890616863e-22 1.67478750799854e-05)
(2.02934097637398e-05 8.69466449013627e-07 2.64207834530693e-27 1.99518531265388e-05 1.32655793376798e-25 2.01214283255822e-05)
(2.40196482894931e-05 1.16123993736189e-06 -7.20558580313633e-22 2.38184558169775e-05 3.59343133147592e-23 2.39179807287968e-05)
(3.01982964907118e-05 1.66224474873954e-06 -1.85929818125358e-21 3.00923278935996e-05 -1.0106540492723e-20 3.01447124331425e-05)
(3.85563187493195e-05 2.33245158921535e-06 -2.31555257202883e-22 3.84557825023856e-05 -1.33982369265057e-20 3.85035553944548e-05)
(4.640617727476e-05 2.96398477259622e-06 1.39831168514842e-21 4.63263171625183e-05 -7.99567930774274e-23 4.63638684069357e-05)
(5.37465211919887e-05 3.55419112512229e-06 -5.26492851597028e-26 5.36823499339831e-05 -1.7030334753061e-25 5.37114695099079e-05)
(6.07061768141983e-05 4.09856346275436e-06 -2.15051165965919e-21 6.0658236202548e-05 1.11680038500659e-22 6.06789426811133e-05)
(6.73532833939399e-05 4.59687013976709e-06 -5.57885653896289e-21 6.73213386971705e-05 -2.73674977134246e-20 6.7333712879491e-05)
(7.373418149726e-05 5.04617236093511e-06 -8.16228140696869e-22 7.37189815176994e-05 -3.16511656224098e-20 7.37227265952131e-05)
(7.98847228117542e-05 5.44431050614687e-06 2.9247394337732e-21 7.98869929966704e-05 -1.42201045648137e-22 7.9881788065114e-05)
(8.5883055739621e-05 5.79248022625199e-06 -2.48769317201624e-26 8.59035543377075e-05 3.17603740589357e-25 8.58890791842876e-05)
(9.15332671372308e-05 6.07468689832644e-06 0 9.15725156109385e-05 -3.63623260258563e-25 9.15485924591298e-05)
(9.67322784870105e-05 6.28264660655214e-06 -9.64757795547288e-40 9.6790483775096e-05 3.82379284025548e-25 9.6757085444913e-05)
(0.000101449482688792 6.41443768701932e-06 4.58641642752397e-21 0.000101526439042782 -1.80975988178154e-22 0.00010148374593353)
(0.000105658105720389 6.46991839727409e-06 9.5081080936501e-21 0.000105753179028304 5.51742699840011e-20 0.000105701578570917)
(0.000109336729531598 6.45074906885122e-06 -3.93327668056743e-22 0.00010944883311708 6.00268626291953e-20 0.000109388933803262)
(0.000112475080950947 6.36063545890856e-06 -5.27581482282475e-21 0.00011260270878392 1.89784835180559e-22 0.000112535319646199)
(0.00011507689563757 6.20514347982441e-06 5.83832284843734e-26 0.000115218242957243 6.92430687998413e-26 0.000115144313053737)
(0.000117157478968897 5.99113451393457e-06 -1.48041236273884e-25 0.000117310578202187 -5.61317636242591e-25 0.000117231125117801)
(0.000118737423408288 5.7260925144401e-06 4.96018151607423e-26 0.000118900216724418 -6.31343125709451e-25 0.000118816293756201)
(0.000119842392174815 5.41788472371664e-06 -2.87247060828503e-26 0.000120012797544888 6.40050061204069e-25 0.000119925458975858)
(0.000120501738749236 5.07446133361291e-06 -7.63694459742517e-21 0.000120677706335761 1.91784909932984e-22 0.000120587981736997)
(0.000120748354722329 4.7036528490976e-06 -1.16467039856077e-20 0.000120927925396548 -8.66024981888147e-20 0.000120836790130537)
(0.000120616493214365 4.3128998606145e-06 4.15899064123494e-21 0.000120797843252431 -8.9602971315657e-20 0.000120706199006897)
(0.000120139462666155 3.9090740247691e-06 7.84803944791454e-21 0.000120320915112373 -1.68979020271406e-22 0.000120229582336704)
(0.000119347666694881 3.49843465430092e-06 7.93530047521751e-26 0.000119527660736226 -3.72060355354087e-25 0.000119437398448476)
(0.0001182761861407 3.08683055043878e-06 -3.14381088864263e-26 0.000118453322979494 3.88609910268067e-25 0.000118364805995693)
(0.000116965300900569 2.67948692617405e-06 -8.51955106341092e-21 0.000117138407711615 1.22267071586506e-22 0.000117052193863517)
(0.000115454189902735 2.28077023221632e-06 -1.06579614692867e-20 0.000115622323886238 -9.26899635998216e-20 0.000115538857009516)
(0.000113780806382425 1.89418912934175e-06 6.50726554611329e-21 0.000113943254692908 -9.3604341602355e-20 0.000113862860994809)
(0.000111978791284861 1.52241450257868e-06 8.35594285779086e-21 0.000112135042314993 -8.99337993817622e-23 0.000112057951646846)
(0.000110079775712187 1.16736939913623e-06 -1.85624403268652e-26 0.000110229511745489 2.05525042721688e-25 0.00011015585542869)
(0.000108100713009871 8.30274335665424e-07 1.76967368481732e-26 0.000108243682384597 -1.79711140864519e-28 0.000108173560115326)
(0.000106050764962057 5.12137657587566e-07 1.43203597780589e-27 0.000106186743365261 -5.88051016197342e-26 0.000106120245040067)
(0.000103955725450193 2.13701861970588e-07 -8.48553794360976e-27 0.000104084603131334 8.8584952909114e-27 0.000104021755832412)
(0.000101830028119399 -6.47017339655665e-08 0 0.000101951807741163 5.40052887174795e-26 0.000101892582031741)
(9.96985016033798e-05 -3.23187434711348e-07 0 9.98133124253894e-05 5.4554506059425e-26 9.97576203022842e-05)
(9.75718930668336e-05 -5.62179182578724e-07 8.81749902970429e-27 9.76798821524448e-05 -9.70699056357931e-26 9.76276405605611e-05)
(9.54488356792868e-05 -7.82089352383008e-07 -1.46468790634581e-28 9.55501477804527e-05 4.74746114480645e-26 9.55012746704612e-05)
(9.33374221499199e-05 -9.83449534282823e-07 -5.80263545579254e-30 9.34322296928135e-05 6.4076578127028e-29 9.33866295380816e-05)
(9.12434591859668e-05 -1.16689694572129e-06 -7.25882042489032e-28 9.13319854732227e-05 4.47861892923009e-27 9.12895351035586e-05)
(8.91743059726259e-05 -1.33323892725921e-06 -2.49406269204138e-26 8.92568025630755e-05 2.03205236265348e-25 8.92173658793666e-05)
(8.71315596291565e-05 -1.48322830577909e-06 1.3570386432463e-27 8.72082643042197e-05 -4.06927918308074e-25 8.71717155293118e-05)
(8.51165904470234e-05 -1.61760938545931e-06 1.55995982797838e-26 8.51877375342341e-05 1.95349629543699e-25 8.51539519912771e-05)
(8.31302157028119e-05 -1.73711084202504e-06 9.77148648873182e-40 8.31960376709205e-05 7.05998002497093e-25 8.31648945614736e-05)
(8.11747366545918e-05 -1.84251832839764e-06 3.0670674457923e-26 8.12354725888731e-05 -6.87961328678636e-25 8.12068470647939e-05)
(7.92495985600846e-05 -1.93454611130496e-06 -3.5305554510139e-26 7.9305470622396e-05 -3.5893212613716e-25 7.92792488262483e-05)
(7.73535804799741e-05 -2.01385111359115e-06 7.30839744136135e-21 7.74047954358713e-05 1.57677450869319e-22 7.7380870735862e-05)
(7.5484439496662e-05 -2.08101819041876e-06 1.34359172366286e-20 7.5531188185071e-05 7.79982317168243e-20 7.55094634030165e-05)
(7.36407254930337e-05 -2.13661952959072e-06 -1.83161742588447e-21 7.36831915625642e-05 1.52308874291321e-19 7.36635731894148e-05)
(7.18200139118849e-05 -2.18117352678382e-06 -1.46514409755196e-20 7.18583628942617e-05 7.4267135821564e-20 7.18407669299859e-05)
(7.00184424945896e-05 -2.21508812353606e-06 -6.69831611196925e-21 7.0052815791164e-05 -1.8058301020278e-22 7.00371714314915e-05)
(6.82321572540864e-05 -2.23872210633131e-06 0 6.82626783100661e-05 0 6.82489227196034e-05)
(6.64563032957404e-05 -2.25233515237502e-06 0 6.64830760447953e-05 0 6.64711582304411e-05)
(6.4686363905351e-05 -2.25616787075331e-06 6.31892269708295e-21 6.47094726938046e-05 2.15260725860304e-22 6.46993490130339e-05)
(6.29155922269609e-05 -2.25029360273236e-06 5.13909220023526e-21 6.29350937226497e-05 6.77597569148839e-20 6.29267384589143e-05)
(6.11377777919611e-05 -2.23478665434454e-06 -7.04339830409252e-21 6.11537001805376e-05 6.55074495977911e-20 6.11470958499865e-05)
(5.93431302873498e-05 -2.20944280542444e-06 -5.85290173529641e-21 5.93554724823045e-05 -2.21122505178933e-22 5.93506259432493e-05)
(5.75242362478125e-05 -2.17421414078426e-06 -1.34493000592223e-26 5.75329592303314e-05 1.20255474438023e-24 5.75298801468868e-05)
(5.56650553654331e-05 -2.12842290193932e-06 1.33404135588292e-26 5.56700817429573e-05 -2.02202063098547e-26 5.56688256132917e-05)
(5.37581607632766e-05 -2.07202617450697e-06 3.09979827647473e-26 5.37593546618228e-05 -1.09590992194397e-24 5.37599612976892e-05)
(5.17790824384633e-05 -2.00359086468956e-06 -8.43183157448699e-26 5.17762616613469e-05 1.08613456164809e-24 5.17788689634914e-05)
(4.9817299098759e-05 -1.92706123490177e-06 1.11445357088381e-26 4.98101747395601e-05 -1.84540686082497e-26 4.98148496494022e-05)
(4.7784612328842e-05 -1.83763981996252e-06 7.87082507819711e-26 4.77727868614087e-05 -9.58645392021875e-26 4.7779852964552e-05)
(4.56648611348352e-05 -1.7360293991139e-06 -1.00626676078221e-26 4.56476889740297e-05 -3.72948885492608e-25 4.56572574594094e-05)
(4.33425840834492e-05 -1.61404329685427e-06 -3.58983864250574e-26 4.33193099509288e-05 -1.86756505641845e-27 4.33320989098502e-05)
(4.08517096189146e-05 -1.47703098879373e-06 3.50339009085177e-26 4.08210172184566e-05 1.94828732162484e-27 4.08371134445724e-05)
(3.7931551306023e-05 -1.30619975301091e-06 -3.96783513204603e-26 3.78925157318006e-05 -8.43118221524086e-25 3.79133039094382e-05)
(3.47087425951554e-05 -1.11942692456556e-06 -2.33063561546512e-26 3.46578090184193e-05 1.2654439615717e-24 3.46834930153069e-05)
(3.0438733941032e-05 -8.68294699406081e-07 -3.3964687655529e-24 3.03754432374849e-05 -1.36189694964473e-24 3.04083007410207e-05)
(2.95392850320622e-05 -7.24170372488192e-07 1.14963727523625e-24 2.94258338797536e-05 -3.46128788539435e-23 2.94835228587658e-05)
(3.56321534589379e-05 -8.71829220876268e-07 -1.30124802216965e-23 3.53573212710604e-05 -1.68707598962541e-22 3.54939132942518e-05)
(4.25817622910245e-05 -1.13614429548454e-06 9.88947913536565e-21 4.19722411186627e-05 1.13847665468123e-21 4.22775937084419e-05)
(4.94506726421324e-05 -1.43595322551874e-06 -1.65135102278911e-20 4.83230304201217e-05 1.23273213302401e-19 4.88863060855333e-05)
(5.58368582743856e-05 -1.7398429122181e-06 -4.85634522568538e-20 5.40074681525981e-05 1.26117806345739e-19 5.49226079609611e-05)
(6.20444966975652e-05 -2.03526278623061e-06 -1.20169404621098e-20 5.93238996715927e-05 -1.82609384936786e-21 6.06866761068385e-05)
(6.86786587745061e-05 -2.33918352505847e-06 4.49218295358852e-22 6.48338438747353e-05 -9.35568183549071e-22 6.67622404974879e-05)
(7.44817717233006e-05 -2.61681462750205e-06 -7.50559599591909e-22 6.93663655913031e-05 2.04144458841675e-21 7.19362482620477e-05)
(7.80787937817835e-05 -2.82318000842756e-06 -4.55350592076737e-22 7.17628804593852e-05 7.09852705131486e-22 7.49403609307585e-05)
(7.95424048050837e-05 -2.95843638937075e-06 3.73933455809382e-22 7.22403246508637e-05 -8.07513883285502e-22 7.59172534904556e-05)
(7.89828679651993e-05 -3.03265864838441e-06 -7.68154005381133e-22 7.09996741755264e-05 1.5403134875003e-21 7.50213770079348e-05)
(7.58020530877504e-05 -3.00912571346596e-06 3.23063994037077e-22 6.76147408101051e-05 -6.06271826438257e-22 7.17402357737798e-05)
(7.20032158535584e-05 -2.92102371199071e-06 3.28416338854519e-22 6.38885238436264e-05 -5.07975777624377e-22 6.7975964038674e-05)
(6.93384785880087e-05 -2.82898817278311e-06 -4.28503069732384e-22 6.1272627576494e-05 1.1026980070145e-21 6.53347057044329e-05)
(6.79518281402683e-05 -2.7624968997381e-06 3.01488797295475e-22 5.97995721512094e-05 -4.59417703170903e-22 6.39063239538047e-05)
(6.8603179972548e-05 -2.76925578453949e-06 1.609259186117e-22 6.00780762963922e-05 -4.06445649625196e-22 6.43754524173696e-05)
(7.28941741452973e-05 -2.94656651786024e-06 -3.84645440417345e-23 6.33762810610686e-05 -1.01682557108642e-24 6.81789065563396e-05)