/*--------------------------------*- C++ -*----------------------------------*\
  =========                 |
  \\      /  F ield         | OpenFOAM: The Open Source CFD Toolbox
   \\    /   O peration     | Website:  https://openfoam.org
    \\  /    A nd           | Version:  7
     \\/     M anipulation  |
\*---------------------------------------------------------------------------*/
FoamFile
{
    version     2.0;
    format      ascii;
    class       volVectorField;
    location    "20000";
    object      U;
}
// * * * * * * * * * * * * * * * * * * * * * * * * * * * * * * * * * * * * * //

dimensions      [0 1 -1 0 0 0 0];

internalField   nonuniform List<vector> 
15600
(
(0.0326926542372918 -4.7527246189947e-05 0)
(0.0401518393169185 -0.000690941374476537 6.69743501954577e-24)
(0.0301432021854501 -0.00250324667399515 -1.07749659119771e-19)
(0.00350354448270351 -0.000978305029871958 0)
(-0.0150132716196859 0.0043387730028068 0)
(-0.016234456563459 0.00660229067551322 0)
(-0.0120755022183204 0.0058499552876797 -5.36907732016819e-23)
(-0.0101038385704593 0.00534432907131726 5.55536348901318e-23)
(-0.00825753701452724 0.00456140068371919 -5.06495214933546e-22)
(-0.00735583666357973 0.004049765563928 -1.37396508253263e-23)
(-0.00671596857807191 0.00362009163078865 -4.77832347047309e-18)
(-0.00655752408580214 0.00345922120780153 -5.10822115606092e-18)
(-0.0064776011152797 0.00336608627745914 0)
(-0.00662306488716604 0.00340731333378537 0)
(-0.00699890218786541 0.00358308906385434 2.94295702703064e-21)
(-0.00760297383323664 0.0038501692908566 -6.20645867036603e-21)
(-0.00840850746345398 0.0041304293568902 3.20118934785238e-21)
(-0.0094611814864901 0.00440042219484629 0)
(-0.0106337986029432 0.00455382212840323 0)
(-0.011873183208586 0.00452023864127328 -1.51756584830091e-17)
(-0.013285397614996 0.00433366854222192 -3.84824969660875e-21)
(-0.0148136515254854 0.00399498504873216 -4.10340539678717e-18)
(-0.016283978532751 0.00345155254448006 -1.65882809030907e-20)
(-0.0176637058814597 0.00270308223396959 -8.71209287847327e-18)
(-0.0184479274034317 0.00171463674292347 0)
(-0.0203608335667233 0.000672961130897342 -5.58549915641723e-19)
(-0.0251263729455882 0.000107672923242439 -5.43819109252664e-16)
(-0.0296777988197817 0.0001015174430906 -5.58479821358333e-16)
(-0.0325305042536366 0.000100870898819788 0)
(-0.034684007463288 0.000100535429514002 0)
(-0.0362346001279234 0.000100624333431634 0)
(-0.0373597232977019 0.000100214684734245 -6.5702683378563e-16)
(-0.0381229181968167 9.91968647073767e-05 -6.88132263634807e-16)
(-0.038575936755455 9.74885486446936e-05 -5.41039036858486e-21)
(-0.0387506449222177 9.50498017286445e-05 0)
(-0.038672270577674 9.1918523857496e-05 0)
(-0.0383611917456343 8.81672695583109e-05 0)
(-0.0378357490531086 8.38902755396309e-05 -6.62730930053886e-21)
(-0.0371138188113959 7.91612710165564e-05 8.39348076906827e-16)
(-0.0362131867951143 7.4077076535268e-05 8.76415249286322e-16)
(-0.0351527667996903 6.87449887103795e-05 7.41865936571669e-21)
(-0.0339522033810353 6.32704541137464e-05 2.58020968908762e-22)
(-0.0326307612947935 5.77305348335545e-05 -7.6931384529051e-21)
(-0.0312067750597635 5.21992236546745e-05 0)
(-0.0296977513019985 4.67368229248861e-05 0)
(-0.0281202150447435 4.13995422226668e-05 0)
(-0.0264896885219204 3.62312275417483e-05 -1.14442648738938e-15)
(-0.0248204788365642 3.12679701098081e-05 -1.18011900054973e-15)
(-0.0231254804496765 2.65281626891823e-05 0)
(-0.0214166913914208 2.20414154496284e-05 0)
(-0.019705746937966 1.78314596485991e-05 0)
(-0.0180030095616949 1.3901597569135e-05 0)
(-0.0163174153504126 1.02555198365415e-05 -1.27604162926381e-15)
(-0.0146562956098533 6.87861686708108e-06 -1.30435580523185e-15)
(-0.013025637559319 3.76831968757225e-06 0)
(-0.011429911748781 8.97853467359961e-07 0)
(-0.00987225365322278 -1.74288830291124e-06 0)
(-0.00835653886197065 -4.14703906464298e-06 7.0776576619752e-22)
(-0.00688610548496779 -6.33298234093012e-06 -7.08782116906778e-22)
(-0.00546385355730003 -8.30081783464644e-06 0)
(-0.00409137484258181 -1.01086024296312e-05 0)
(-0.00276917846515547 -1.17752368049899e-05 -7.49011853309781e-22)
(-0.00149805883567929 -1.33160423912074e-05 7.49952815905312e-22)
(-0.000278670327886812 -1.47264168573942e-05 0)
(0.000888562804609132 -1.59940726124702e-05 0)
(0.00200403970425975 -1.71402162866209e-05 0)
(0.00306808041829188 -1.81755240036054e-05 0)
(0.00408096466214563 -1.91172214230659e-05 0)
(0.00504297167347807 -1.99721951481487e-05 6.40668350863685e-21)
(0.00595461473851314 -2.07593047158951e-05 -6.4013895191248e-21)
(0.0068164353664897 -2.14821989356629e-05 0)
(0.00762876696783131 -2.21544653676971e-05 0)
(0.00839183699129376 -2.27824732182035e-05 1.63720514758603e-15)
(0.00910577365210228 -2.33787277182331e-05 3.29145481529629e-15)
(0.00977074835846302 -2.39505048095451e-05 1.653612690976e-15)
(0.0103864584242133 -2.45021946200632e-05 0)
(0.0109524594520428 -2.50470392065214e-05 0)
(0.0114678493916738 -2.55865638551766e-05 0)
(0.0119316935724599 -2.61378010355936e-05 1.36810803625788e-20)
(0.0123421075187499 -2.66929589380657e-05 1.71178991984327e-15)
(0.0126973299789822 -2.72810604804035e-05 1.71389462186829e-15)
(0.0129935405681608 -2.78751787775659e-05 0)
(0.0132283298338579 -2.85411628583075e-05 0)
(0.0133940138108254 -2.91860759035803e-05 0)
(0.0134882781869302 -2.99889624813901e-05 0)
(0.0134945951558047 -3.06665711049863e-05 0)
(0.0134144106722843 -3.17240455721625e-05 0)
(0.0132092443591578 -3.22861273703272e-05 1.444403124199e-20)
(0.0128946708784011 -3.38215000739196e-05 -1.44479525517393e-20)
(0.0123719317566902 -3.3792214695848e-05 0)
(0.0117081415777271 -3.64457714622601e-05 0)
(0.010633609021565 -3.44178497376836e-05 0)
(0.00941262675467795 -3.96919500135594e-05 -1.50075197647966e-20)
(0.0071575061333286 -2.77773681802307e-05 1.50561372823283e-20)
(0.00449370200124722 0.00010398301148147 -1.95253887956186e-18)
(0.00509722799334644 0.000446583550196778 -7.84200224484894e-18)
(0.00750926034059355 0.00115855923099159 -6.12097588039061e-20)
(0.0101163537174534 0.00216096929554507 4.21112329059839e-15)
(0.0133406623521868 0.00359593276800483 4.03210516739956e-15)
(0.0169269489949027 0.00546759282476446 -2.94800025908426e-17)
(0.021187783717408 0.00790905310252719 -2.83836961170006e-17)
(0.0262311356179694 0.010914783485701 2.71586118276869e-17)
(0.0315944610967681 0.014177199947048 5.16464408122663e-17)
(0.0368639702368608 0.0173947878912316 -2.44319225773232e-17)
(0.0419644902551804 0.0203866255981685 2.30036689949286e-17)
(0.0462549279313445 0.022759543779245 -2.15339801086887e-17)
(0.0494560155366963 0.0245711979931426 -2.00700395507285e-17)
(0.0524635452484869 0.0264364117546035 -4.62031159748054e-21)
(0.0560558120699071 0.0287643447217185 4.02565084323358e-21)
(0.0606059041496431 0.0317934887765333 -1.68949781640424e-20)
(0.0677293042211356 0.0363233123256393 0)
(0.0789248862610513 0.0423100541708364 -2.21287627018539e-17)
(0.09250386349407 0.0476682472421941 -8.448970124495e-18)
(0.108163475030331 0.0510490825003579 1.10630244584758e-17)
(0.124107771331199 0.0499608577397276 2.22028526717312e-18)
(0.133767825338325 0.0404046123511253 -1.14991611885178e-18)
(0.114141146476378 0.0207821777521194 7.62208315744299e-23)
(0.074450027526651 0.00628800928269001 -4.67081935368523e-23)
(0.0408209694905366 0.00079648806474232 7.85634141876815e-20)
(0.0276604480004276 -2.80103574847986e-05 0)
(0.108494909705058 -0.000358810007102115 0)
(0.124764850521581 -0.00203303627889455 -2.08476258665352e-20)
(0.0996624659936945 -0.00698848553211397 4.36168441409884e-23)
(0.0270064683773738 -0.00359772403896457 -4.44694883547043e-23)
(-0.0332956462480258 0.011388793381585 0)
(-0.0432309708890639 0.0184371436749855 0)
(-0.0334638721566639 0.0166378922580727 0)
(-0.0282449604085698 0.0153203770130061 0)
(-0.0234402398305691 0.0132106929032558 7.74792116899615e-22)
(-0.0210682349380352 0.0118073352055106 2.11754288634976e-23)
(-0.0194604409661733 0.0106372236499753 7.31457397968986e-18)
(-0.0191085328977513 0.0102063712888347 1.89022200194099e-21)
(-0.0190358466467931 0.00998733589912702 8.27310200317946e-18)
(-0.0196001547763362 0.0101645831911568 8.70578870426072e-18)
(-0.0208146084326883 0.0107360180347733 -4.53157782233055e-23)
(-0.0226776608621679 0.0115720629996101 -9.51797505935373e-18)
(-0.0251319718234061 0.0124470279107944 -9.9380187385362e-18)
(-0.0282597299235909 0.0132682005215595 0)
(-0.0317545499760993 0.013734786988839 1.08115811914111e-17)
(-0.0355103270571368 0.0136554345920071 2.250364280621e-17)
(-0.0397320420027228 0.0131011147940929 -1.14391899520157e-20)
(-0.0442292627028431 0.0120618586482381 1.20108729917237e-17)
(-0.0485709076815543 0.0104010765676399 2.40633573000766e-20)
(-0.0525727392784009 0.00811070747324324 -1.16605177650421e-20)
(-0.0557540040760282 0.00523256463278012 0)
(-0.0620204549111104 0.00228547614291077 0)
(-0.0739368158693014 0.000652093939244178 7.63117905396583e-16)
(-0.0846342413534762 0.00047902691957194 7.65115057700458e-16)
(-0.0913219264402283 0.000335380973862451 -1.26120008033918e-20)
(-0.0962095886142835 0.000246518058780732 6.36277962010879e-21)
(-0.0995957234436812 0.000181241041111067 0)
(-0.101897306523913 0.000130516092978604 8.98254428422468e-16)
(-0.103277286230809 8.79425361760281e-05 9.26564457972428e-16)
(-0.10386445387141 5.08361986896835e-05 -7.32568513620918e-21)
(-0.103742160398201 1.74442919070887e-05 0)
(-0.102977570803205 -1.29364416756206e-05 0)
(-0.101626486652343 -4.08021379206053e-05 0)
(-0.0997393963401051 -6.63079441434648e-05 0)
(-0.0973650892761755 -8.95569551125359e-05 -1.1408460045185e-15)
(-0.094551833084599 -0.000110495831907562 -1.18109959568739e-15)
(-0.0913496521130252 -0.000129028273182372 3.51794303606971e-22)
(-0.0878091178801634 -0.000145134190142655 -2.0558965102501e-20)
(-0.0839790818744723 -0.000158928234442377 1.04981068823081e-20)
(-0.079905702386421 -0.000170519711531983 0)
(-0.0756327205613398 -0.000180038071144134 0)
(-0.0712011821742707 -0.000187605022491939 6.02008941111725e-21)
(-0.0666493958556185 -0.000193366652223622 1.59096897771184e-15)
(-0.0620124977216154 -0.000197478570219478 1.63790241705127e-15)
(-0.0573222803189951 -0.000200104588322901 1.3077620605209e-20)
(-0.0526084196056713 -0.000201308801694997 -6.66101130142897e-21)
(-0.0478993252166265 -0.000201182118851055 0)
(-0.0432201663591567 -0.000199902702065426 0)
(-0.0385925890416452 -0.000197635518480011 1.82498585353916e-15)
(-0.0340344084513373 -0.000194583327720925 1.86912368100947e-15)
(-0.0295601738735505 -0.000190887293892131 -3.81663670136731e-21)
(-0.0251808036223988 -0.000186748571026372 1.98679939988452e-21)
(-0.0209044335528023 -0.000182201235447658 3.10419025193218e-23)
(-0.0167409116169615 -0.000177197188455122 -2.04492776931585e-21)
(-0.0126985594977501 -0.000171833021930844 0)
(-0.00878458856968089 -0.000166186043023546 0)
(-0.00500289077568994 -0.000160543486336437 0)
(-0.00135499984605425 -0.000154921125164275 0)
(0.00215687683265562 -0.000149208583102141 -2.26489980869999e-21)
(0.00553088677199514 -0.000143389828156013 -2.42720381087963e-23)
(0.00876587540999568 -0.000137528373779129 -2.31727587931529e-21)
(0.0118626431678905 -0.000131680209251443 -4.47881063431119e-23)
(0.0148218042628397 -0.00012582329505414 4.59916209009031e-21)
(0.017643880019348 -0.000119976694389135 0)
(0.0203293755116986 -0.000114134613358822 0)
(0.022879408214496 -0.000108337219149327 0)
(0.0252951414486017 -0.000102552687955093 -9.48623138268368e-21)
(0.0275772733413498 -9.67781584912965e-05 9.46188102884436e-21)
(0.0297261690624891 -9.09906149056513e-05 -2.3732878796943e-15)
(0.0317419687096097 -8.51955352305923e-05 -4.77811027814281e-15)
(0.0336248501143569 -7.93665173780411e-05 -2.40541004498491e-15)
(0.0353738864195892 -7.34547839095595e-05 0)
(0.0369876932679762 -6.74429638870936e-05 0)
(0.0384637309547321 -6.12735338500883e-05 0)
(0.0397992517224531 -5.49254345847277e-05 0)
(0.0409892214247283 -4.82836978923759e-05 -2.45795097613071e-15)
(0.0420286159749025 -4.13233198425332e-05 -2.48334253541387e-15)
(0.0429075502399496 -3.38415775382065e-05 2.00737971260915e-20)
(0.0436187749423396 -2.58653822650452e-05 -2.00680702770468e-20)
(0.044142989679932 -1.69266896888346e-05 2.03128553889192e-20)
(0.0444718178837565 -7.27047140266543e-06 -2.03194328841359e-20)
(0.0445649087301037 4.24694873736539e-06 0)
(0.0444198716028958 1.66246241518912e-05 2.0716037189663e-20)
(0.0439452708203641 3.31493558385897e-05 1.30574366974266e-22)
(0.043164401427896 5.06114441354888e-05 -2.08907432439572e-20)
(0.0418459328473541 7.7954788292295e-05 0)
(0.0401135251721923 0.000105208612775477 0)
(0.0373386221751763 0.000156569373135285 -2.1636994975717e-20)
(0.0340421352175514 0.000207186745689202 2.17438704454039e-20)
(0.0281575441759164 0.000337465606699699 0)
(0.0213884102647231 0.000780928958238367 2.84514684832515e-18)
(0.0224307769140979 0.00181670037397243 9.07359314958454e-20)
(0.0282061223448648 0.00396207291817715 2.29025177696761e-17)
(0.0348827420422108 0.0069630187241872 -6.05972448363294e-15)
(0.0429397501689427 0.0110892900710155 -5.86185287286842e-15)
(0.05192223865364 0.0163733811468148 4.21037276370424e-17)
(0.0624531645430408 0.0231182322522134 0)
(0.0747782411916999 0.0313009675231873 -1.05644351755479e-20)
(0.0880016196792292 0.0401774621225615 -3.62870941694246e-17)
(0.101239197548998 0.0489864513614781 3.42211780373128e-17)
(0.11426313699329 0.0572423097849008 3.79733880008851e-22)
(0.125739262017452 0.0639971836257661 3.02480160927935e-17)
(0.134894443395399 0.0693539302568451 2.82648321247699e-17)
(0.143321060185585 0.074756251246058 2.61830429623668e-17)
(0.152816695143187 0.0812839294123539 0)
(0.164478339895114 0.089619677992779 -2.15641013778544e-17)
(0.181829244758212 0.101698867144767 0)
(0.208617945290286 0.117398821732138 1.55665955651584e-17)
(0.242286590498249 0.131611123694411 0)
(0.282187329933947 0.140623364430123 -7.69931612000948e-18)
(0.324462264135783 0.137971189700333 -5.50660215119782e-20)
(0.355595002159916 0.113617602229646 1.59961792543057e-18)
(0.323568237036872 0.0625065563779624 -2.66988163392551e-18)
(0.235117959133414 0.0215285963578171 1.6138743309437e-22)
(0.14581065557481 0.00386285526146359 0)
(0.103312771588874 0.000185379665752271 0)
(0.197384946731053 -0.000692783263552181 0)
(0.215828583949762 -0.00335801036299698 4.08173755892297e-20)
(0.179453387904518 -0.0112960207091811 -1.55979398938592e-19)
(0.0677058923912853 -0.00811044471868018 0)
(-0.039364400858988 0.0152046336970933 0)
(-0.0651997823932813 0.0279438838445654 7.64002394044423e-23)
(-0.0525837405444118 0.0259003079418438 8.95967585260934e-23)
(-0.0448073069253604 0.0240929439669986 5.88050963470534e-18)
(-0.0376649664088369 0.0210678306534465 7.94647212631328e-22)
(-0.034100564005916 0.019004303984672 6.97569345475201e-18)
(-0.0317767641439435 0.0173064867596958 -7.51348019495176e-18)
(-0.0313402970638653 0.0167078435656528 -8.01014014831423e-18)
(-0.0314211176731576 0.0164760499470349 -8.46572129201206e-18)
(-0.032522085116461 0.016886347960129 -6.5081183607083e-22)
(-0.0346606195483493 0.0179309760752376 4.55143423436487e-21)
(-0.0378375800696686 0.019392392024882 9.64023483166652e-18)
(-0.041978750442274 0.0209077996431813 1.00098922290651e-17)
(-0.0471604025498249 0.0222867787903988 -5.08876225497962e-21)
(-0.0529568900111389 0.0230666130188564 -1.07262312172334e-17)
(-0.0592403432960873 0.0229576492218383 -1.10653378569435e-17)
(-0.0662179717898217 0.0220260291716053 0)
(-0.0735503379845016 0.0202457995852036 -5.78108091163856e-18)
(-0.0806242542557625 0.0174311570383443 0)
(-0.0871875045411764 0.0136055893185978 5.93585427528056e-18)
(-0.0933241174477578 0.00896552052474405 -1.15345101358831e-20)
(-0.103695507912458 0.00423651585237029 0)
(-0.120039855370942 0.00160440911797685 -6.89414912359019e-22)
(-0.133863175106927 0.00117350235466847 0)
(-0.142340706761803 0.000800441632421852 -1.13048437542588e-20)
(-0.148254609640626 0.000569004570785593 5.36732139176065e-21)
(-0.152078550514494 0.000395713401167898 5.69078993548276e-21)
(-0.154367341588969 0.000259437558699538 0)
(-0.155354398429725 0.000143728083519266 0)
(-0.155220943055942 4.20643217088218e-05 6.48762700950181e-21)
(-0.154088316367875 -4.94047484870894e-05 -6.43165606611028e-21)
(-0.152063376479151 -0.000132354791043026 6.92940641243575e-21)
(-0.149232568793386 -0.000208155990421399 -6.89011348955748e-21)
(-0.145673011114252 -0.000277216222822363 -7.42888286052827e-21)
(-0.141458281114038 -0.000339747202972065 7.41008215768252e-21)
(-0.136660106924589 -0.00039563154266857 0)
(-0.13135071840853 -0.000444701483546398 0)
(-0.125601138570067 -0.000487005161880445 0)
(-0.11947874684281 -0.000522875465152622 0)
(-0.113046568626029 -0.000552636942883127 9.20051961599728e-21)
(-0.106363745970403 -0.000576651918813935 -9.24723288840597e-21)
(-0.0994853572756103 -0.000595276164554991 0)
(-0.092462430556953 -0.000608920432770708 0)
(-0.0853415555087465 -0.000618012661380652 0)
(-0.0781649661497479 -0.000622963254234133 0)
(-0.0709721853417765 -0.000623977491134613 5.62020305420414e-21)
(-0.0638006862102215 -0.000621351008945988 -5.67469058474104e-21)
(-0.0566834778455667 -0.000615575601066651 0)
(-0.0496489523833521 -0.000607120444452705 -3.07930960331828e-21)
(-0.0427205486544886 -0.000596517748590335 6.28309038910292e-21)
(-0.0359175211032916 -0.00058417854703183 5.56280586629195e-23)
(-0.0292544410726002 -0.000570597326064124 -3.29832350744851e-21)
(-0.0227427561964546 -0.000555845547295014 0)
(-0.0163962830762899 -0.000539853958977425 1.76747859511275e-21)
(-0.0102264944161141 -0.000522927828891835 -8.81644499444964e-22)
(-0.0042434350153265 -0.000505398209594438 -9.17135417320561e-22)
(0.00154746516639223 -0.000487654571395446 -9.46402371218052e-22)
(0.00714354494506712 -0.000469611329490231 9.4497865097521e-22)
(0.0125412647940754 -0.000451276082975725 0)
(0.0177375511140613 -0.000432721666400698 0)
(0.0227304361117378 -0.000414169008820002 0)
(0.0275205164122668 -0.00039575270385763 -3.94823328659701e-21)
(0.0321081631196386 -0.000377410428666997 7.91850423046757e-21)
(0.0364936086847946 -0.000359173868903502 -3.97116074757124e-21)
(0.0406770600207903 -0.000341040737310669 -8.0711921742153e-21)
(0.0446595944075986 -0.000323098076503588 8.06152560143845e-21)
(0.0484423520983117 -0.000305274692065706 8.18505281053748e-21)
(0.0520258877697004 -0.00028754445022073 -8.17878113806019e-21)
(0.0554102288495288 -0.000269846740929641 0)
(0.0585951106016856 -0.000252182477813651 8.35546447916563e-21)
(0.0615802504591204 -0.000234478067298764 -1.67674802635165e-20)
(0.0643639324452188 -0.000216604818644124 8.4139268654195e-21)
(0.066943676564256 -0.000198490100202484 0)
(0.069315387730626 -0.000179988921404625 0)
(0.0714745018677296 -0.000161008844821642 1.73068642109664e-20)
(0.0734133997104658 -0.000141275321745718 -3.47625411252304e-20)
(0.0751240632171512 -0.000120645128952159 1.74613456331959e-20)
(0.076592085924642 -9.86612621473841e-05 1.77094310344165e-20)
(0.0778055367009306 -7.52065128540026e-05 -3.56058197670017e-20)
(0.0787371485830911 -4.93063662964967e-05 -1.08661049581077e-22)
(0.0793716051777273 -2.10760589397465e-05 3.62533373590751e-20)
(0.0796533654893801 1.17659333969781e-05 -3.66130797079058e-20)
(0.0795691100796127 4.8029682577419e-05 -1.1385961884055e-22)
(0.0789976057313172 9.38463674028811e-05 1.86021925127404e-20)
(0.077951516728511 0.000145257700486381 0)
(0.076126154451587 0.000218743464234856 0)
(0.073638093425935 0.000301120842138505 0)
(0.0696629663946813 0.000435568160281473 3.94280423363692e-20)
(0.0647512586042978 0.000595443286033492 -7.99896253605992e-20)
(0.0561945920174947 0.000898577736654292 8.18483987019523e-20)
(0.0466124514205102 0.00177624916854562 -8.41161833943668e-20)
(0.0474393327670914 0.00374491355323385 8.36554157409343e-20)
(0.0550536042393109 0.00744976777866364 -2.08953950594494e-17)
(0.0644589495447043 0.0124682027161443 0)
(0.0756894233004537 0.019047516231475 0)
(0.0882857612257281 0.0272384048166524 0)
(0.102974568426081 0.0373993752419575 0)
(0.12009843107424 0.0494632185962875 -3.38483961533905e-17)
(0.138695765907558 0.0624869865277254 3.21175883116923e-17)
(0.157693084970026 0.0754868822231527 0)
(0.176723991500725 0.0877841708623996 -2.88317303600636e-17)
(0.19416252315142 0.0981976063227424 0)
(0.208835248426384 0.106832870386402 1.23603326928239e-20)
(0.222333637501185 0.115441291666761 -4.82040405521329e-17)
(0.236953755277133 0.12546147184763 2.21823821892368e-17)
(0.254394889951366 0.137910666098768 1.99845278849134e-17)
(0.279177820063508 0.155200625059471 -1.99236052942016e-21)
(0.316604632970719 0.177020861325926 2.66733002314779e-21)
(0.364516771343555 0.19679819445224 -7.48921343339191e-22)
(0.422072885244539 0.209166797286388 0)
(0.484349569586746 0.205182097762856 -2.80870439637669e-18)
(0.535584815855013 0.171594844048495 -2.03759807697697e-23)
(0.510171247285564 0.100670007033709 2.73029021595119e-20)
(0.40172112120503 0.0391334861473101 -1.47910519419598e-22)
(0.272984295733002 0.00883601787434421 -3.38749869179e-23)
(0.200924074447995 0.000987997338923001 3.59668681578366e-23)
(0.29771593655713 -0.000804694999134512 4.610989483008e-24)
(0.311779769019559 -0.00454634409026732 -1.88432188379197e-20)
(0.267366825354506 -0.0152873768934844 2.89213873870129e-19)
(0.124935002413169 -0.0139822538575756 1.02850284997014e-18)
(-0.0312879809897233 0.0158186589157275 -3.65935431108434e-18)
(-0.0812802142139124 0.0351971672229865 0)
(-0.0690376650123196 0.0336393006651512 0)
(-0.0595470451316824 0.0316734918054342 -5.32195335125204e-21)
(-0.0507449426313655 0.0281242241799404 0)
(-0.0463130654761992 0.0256356614212218 -3.0869085220332e-21)
(-0.0435452509167098 0.0236117131132931 7.68003421032374e-18)
(-0.0431503410697056 0.0229493210030933 8.16622428092906e-18)
(-0.0435323333040491 0.0228107079214329 -8.6049060557001e-18)
(-0.0452782184458486 0.02354005828342 -8.99714088965199e-18)
(-0.0484039755355776 0.0251195981795881 0)
(-0.0529099353164744 0.0272424879607128 -9.62738754251082e-18)
(-0.0587064961894484 0.0294116086876399 0)
(-0.065825263911201 0.0313195601530818 0)
(-0.073762425920662 0.0323697897015554 -1.03187891182189e-17)
(-0.0823603654399341 0.0321854557893305 -9.83098514055753e-23)
(-0.0917322387834445 0.0308024497085149 1.04850486649244e-17)
(-0.101383117757185 0.0281958141535357 0)
(-0.110614670120389 0.0241865915706089 1.01824794087031e-20)
(-0.119255319948963 0.0188907771488238 1.17026042999428e-22)
(-0.127882039099159 0.0126614206268895 -2.53658622745794e-18)
(-0.140669377692337 0.00632711407758848 -6.76781226297996e-23)
(-0.157911786519267 0.00277252685080196 4.18553268492591e-22)
(-0.171340755380278 0.00199127496931471 1.73957449654523e-20)
(-0.179113290433457 0.00132059144125091 -1.71865819497519e-20)
(-0.184077516176032 0.000902709133391145 8.42356848277048e-21)
(-0.18677928844415 0.000586380830894909 0)
(-0.1878098196148 0.000336157194285146 -4.44899941761402e-21)
(-0.187428528983208 0.000122902113657814 8.86739261868005e-21)
(-0.185837974776423 -6.39841116626659e-05 1.85560122049865e-22)
(-0.183190694276576 -0.000231121934299537 -4.50637944552567e-21)
(-0.179605680999344 -0.000381966050275502 0)
(-0.175181070132985 -0.000518983012987058 0)
(-0.170004588568274 -0.000643058785355988 0)
(-0.164158599817767 -0.000754668330901905 0)
(-0.157722191163083 -0.000853777480718273 5.33320856893626e-21)
(-0.15077327354247 -0.000940305314008359 -5.299584448327e-21)
(-0.143386894046919 -0.0010145338162889 0)
(-0.135633255012001 -0.00107715146503142 0)
(-0.127577576467723 -0.00112881230178208 6.01541445064414e-21)
(-0.119280689449159 -0.00117020635152683 -6.02346563068792e-21)
(-0.110799006432906 -0.00120200984627824 3.20082187875529e-21)
(-0.102184589150346 -0.00122497329974979 -3.2150423313021e-21)
(-0.0934848909206327 -0.00123985910705498 0)
(-0.0847430016745126 -0.00124735779021302 3.51502202163168e-21)
(-0.0759994100359899 -0.00124784934872362 -3.54426899414306e-21)
(-0.0672923620107467 -0.00124188647048975 -3.73981092598228e-21)
(-0.0586554164063246 -0.00123032895704823 -1.28548944778504e-15)
(-0.0501175196033272 -0.0012140047789346 -1.32877908443513e-15)
(-0.0417026601426598 -0.00119381731934778 0)
(-0.0334307341956587 -0.00117049858108868 -2.11097224785016e-21)
(-0.0253169577705375 -0.00114486118971999 2.13904459656389e-21)
(-0.017373709332911 -0.00111699230852876 0)
(-0.00961608855982157 -0.0010868188401747 0)
(-0.00205672663965549 -0.00105482855709584 5.91675591474215e-22)
(0.00529324935762645 -0.00102135872561485 -5.95867800700885e-22)
(0.0124273502913151 -0.000987090080735265 0)
(0.0193421094111694 -0.000952178441390465 0)
(0.0260330223690761 -0.000916707921361757 0)
(0.0324959843400296 -0.000880814214788197 0)
(0.038728084454551 -0.000844842435156886 0)
(0.0447290481426082 -0.000809035386771232 0)
(0.0504984511648519 -0.000773303460987795 0)
(0.056035650293483 -0.000737688021506313 1.81426718016444e-15)
(0.0613399622605451 -0.000702205752145427 1.83463009545452e-15)
(0.0664116043554747 -0.000667001876740408 0)
(0.0712509212320485 -0.0006319732611245 -5.61466973246441e-21)
(0.0758576432889319 -0.000597061822045943 5.64288727746598e-21)
(0.0802308828831844 -0.00056216524389891 0)
(0.0843694035462974 -0.000527278067698135 0)
(0.0882719146674629 -0.000492272608826304 0)
(0.0919356563442984 -0.000456923962334213 -1.19577415559449e-20)
(0.0953568975679102 -0.000421077197943134 -7.99559433839849e-23)
(0.0985301312614611 -0.000384479935248689 -7.92177393066333e-23)
(0.101449133697894 -0.000346931081328593 -7.87070557197126e-23)
(0.104104471837025 -0.000307965122352449 1.25051295985452e-20)
(0.106485842481828 -0.000267244883939438 1.27514955139922e-20)
(0.108576286395981 -0.000224015416659936 -2.57737242698494e-20)
(0.110360373189361 -0.000177871271719075 1.30297578066212e-20)
(0.111807172241896 -0.000127292987818423 1.33022324498673e-20)
(0.112895717398688 -7.19523139688692e-05 -2.69336033016645e-20)
(0.113565143962694 -8.33808718751271e-06 1.36460102420722e-20)
(0.113788054164919 6.29894972070413e-05 0)
(0.113433242570963 0.000150555183153307 -1.41802472373313e-20)
(0.112496036013531 0.000251562787490623 1.43389048466295e-20)
(0.110655054054523 0.000389166575710387 0)
(0.10798508944016 0.000552713371265052 -3.0064105305792e-20)
(0.103616534460607 0.000801033545494376 3.06010866841676e-20)
(0.0979915904582357 0.00112534081398622 3.17128809100551e-20)
(0.0882567704444969 0.00164075160734705 -3.06460860662866e-20)
(0.0773465826296641 0.00303098315721314 0)
(0.0772334398048105 0.00603689265421155 -3.31844591350611e-20)
(0.084856088828533 0.0111867415397946 6.28278080446184e-20)
(0.0951334894095116 0.0179422785229008 -1.53588285054669e-17)
(0.107608760492617 0.0264711598697393 0)
(0.121833906815709 0.0368222505202141 0)
(0.13847647766647 0.0493411159426842 0)
(0.157951571862419 0.0639194874089608 0)
(0.179468965629749 0.0795974338823704 -2.4258105514777e-17)
(0.201983352539059 0.0953633010976342 -1.1464650996459e-20)
(0.225061596291094 0.110469671035351 2.24507277628235e-17)
(0.247111848193788 0.123745341007805 -1.0732481036536e-20)
(0.266682585105373 0.135295310664174 -1.00048865161608e-20)
(0.284945827171067 0.146840442354316 3.97198089065033e-17)
(0.304183210684695 0.159873429895861 -2.9206551303766e-20)
(0.326390944992934 0.175557475701708 -1.69468227129882e-17)
(0.356309026360383 0.196290334225846 0)
(0.400154094848157 0.221471217968344 0)
(0.456810297391041 0.244018298340366 9.28525763096679e-18)
(0.525463661386314 0.257612334505403 2.28122481745985e-22)
(0.600961227170889 0.252030927088408 0)
(0.668716805744874 0.213121111679704 1.27941758402163e-18)
(0.661636501612158 0.131831047332499 4.27106085345343e-20)
(0.558166614086396 0.0567934033175023 0)
(0.411702051569558 0.0153014973389371 -3.02810282426693e-23)
(0.315811678996332 0.0026006091737388 3.28075840395432e-23)
(0.401073012391934 -0.000461144508294075 0)
(0.406021137184803 -0.00542213642918444 -1.65598328853657e-20)
(0.357338126284121 -0.0186855248923361 -1.26574062798707e-19)
(0.19520220912253 -0.0205297664218476 1.84962391575272e-21)
(-0.00755561544447837 0.0132147164465854 8.24841127538742e-21)
(-0.0903051952295739 0.0400901520069118 -1.32814512132279e-22)
(-0.0823319062203174 0.0397702269350237 5.36385581966203e-18)
(-0.0721962092370375 0.0380055511220002 -6.00124790700548e-18)
(-0.062468295604155 0.0343215570225764 6.58953010015065e-18)
(-0.0575397214773584 0.0316514201043793 -7.20584576663407e-18)
(-0.0546039053875746 0.0294944223846784 0)
(-0.0543800784605164 0.028869770565845 -8.2063946897344e-18)
(-0.0551860992713358 0.0289150635776598 8.60043791537301e-18)
(-0.0576389969799284 0.0300223802512593 0)
(-0.0617399593063445 0.0321570476001155 9.15483637203148e-18)
(-0.0674725706307779 0.0349167328198979 -9.08792016341612e-21)
(-0.0747091842925685 0.0376646270002285 1.37701296938723e-20)
(-0.0833893404626258 0.0399639302031913 -9.39132574326629e-18)
(-0.0929339258690546 0.0411101449653892 2.28510966843551e-21)
(-0.103114404877613 0.0406585926664996 -8.95434432713928e-21)
(-0.113888503222926 0.0386312370029968 4.21202418983608e-21)
(-0.124652597421695 0.0350599550200387 4.2746602734256e-18)
(-0.134770704765504 0.0298550612379987 0)
(-0.144248351769212 0.0232672583894254 -7.77197101728112e-21)
(-0.15383129540633 0.0157557784757389 9.16418265211801e-21)
(-0.166693628778067 0.00817461994973805 -4.39075719368263e-19)
(-0.181876184679645 0.00386649462656286 -6.02509829296902e-21)
(-0.192607484160607 0.00269636451511136 0)
(-0.19839638492634 0.00172839986430108 0)
(-0.201664252105038 0.00112349056134792 0)
(-0.202869629461322 0.000663532286043345 0)
(-0.202531045107905 0.000299532100744989 5.74915307730795e-21)
(-0.200876304466479 -1.01281626952194e-05 -5.54012078924768e-21)
(-0.19809655042925 -0.000280155661300788 -2.90263301740123e-21)
(-0.19432591892526 -0.000520552549638239 2.81489260113372e-21)
(-0.189670023289781 -0.000736585197090817 0)
(-0.184220320970292 -0.000931823387017693 0)