/*--------------------------------*- C++ -*----------------------------------*\
  =========                 |
  \\      /  F ield         | OpenFOAM: The Open Source CFD Toolbox
   \\    /   O peration     | Website:  https://openfoam.org
    \\  /    A nd           | Version:  7
     \\/     M anipulation  |
\*---------------------------------------------------------------------------*/
FoamFile
{
    version     2.0;
    format      ascii;
    class       volScalarField;
    location    "20000";
    object      Dk;
}
// * * * * * * * * * * * * * * * * * * * * * * * * * * * * * * * * * * * * * //

dimensions      [0 2 -3 0 0 0 0];

internalField   nonuniform List<scalar> 
15600
(
0.00146740325356202
0.00155972887293797
0.00125637742227677
0.000859178300306314
0.000483034859948298
0.000228130323461764
9.15061467474743e-05
5.37189921648305e-05
4.52256402794462e-05
3.29093197575293e-05
2.03017737766969e-05
1.24489916483864e-05
8.18899455839764e-06
5.7108894867802e-06
4.20524567033668e-06
3.33211465973158e-06
2.90277459182133e-06
2.73985861174786e-06
2.76826691669636e-06
2.94274814308795e-06
3.26113482103793e-06
3.73460349176893e-06
4.37756835103927e-06
5.19174297456744e-06
6.15064924612438e-06
7.25139056966551e-06
8.48240188712665e-06
9.8105222999424e-06
1.11837531478878e-05
1.2535023192273e-05
1.379761207161e-05
1.4952087502598e-05
1.60435189160144e-05
1.70179257271278e-05
1.78217983085163e-05
1.83744187377261e-05
1.86726842665591e-05
1.88750581012124e-05
1.94045555775607e-05
2.07746076963596e-05
2.41993582138013e-05
3.13769993217754e-05
3.95517268086719e-05
4.82084150965177e-05
5.71580448779665e-05
6.62904391799617e-05
7.54633368162669e-05
8.46053197648051e-05
9.36428271563376e-05
0.000102532354664873
0.000111232328451815
0.00011971281039567
0.000127945815181414
0.000135908438456496
0.000143580250080216
0.000150944989644567
0.000157990869191979
0.000164712411677048
0.00017111210229704
0.000177202573406311
0.000183008715037516
0.000188569760912229
0.000193941153810349
0.000199196242607341
0.000204427823811754
0.000209749727097525
0.000215298698965002
0.000221236886278747
0.000227755323435827
0.000235078676523212
0.000243471603904447
0.000253247470860303
0.000264778376408496
0.000278506434299816
0.000294971027509558
0.000314851198517034
0.000339054429225353
0.000370049692624721
0.000410674924583263
0.000438797522021643
0.000376071162718459
0.000344896796509284
0.000340371144586241
0.000350600131361792
0.000371589093254774
0.000401579496617518
0.000439816927691521
0.000486057911018533
0.000540100816679028
0.000603902709899685
0.000684375882883324
0.000781467797903326
0.000892844734059519
0.00101635666199561
0.00115004089489377
0.00129085587206031
0.00143504795142857
0.00157079577653739
0.00168905159866482
0.00179247393683586
0.00188674570986029
0.00197870215115415
0.00207608751131299
0.00219631044490309
0.00235107071053089
0.0025955250854419
0.00293240389711357
0.00335238879936879
0.00387725760806923
0.00453156664743548
0.00534529378067373
0.00629984427804734
0.00713828924343469
0.00728350681486876
0.00562097698476651
0.00419438161714602
0.00303816740093831
0.00220556547107247
0.00165530933474541
0.0015060900016905
0.00802435045146141
0.00846125036552309
0.00690721095500257
0.00475498341113825
0.0026859340661113
0.00127543051941804
0.000515336672762926
0.000297686227179702
0.000249029277268887
0.000182937098741626
0.000113901210889852
6.99524008393869e-05
4.58986121545922e-05
3.19255739721994e-05
2.3433312198116e-05
1.84780466968874e-05
1.60079037355015e-05
1.50384975716902e-05
1.51365254438477e-05
1.60410843121501e-05
1.77320142447039e-05
2.02671105330687e-05
2.37265267909059e-05
2.81286978089822e-05
3.33342498816237e-05
3.93244478494438e-05
4.60414253626129e-05
5.33122295522153e-05
6.08591273938883e-05
6.83187677236163e-05
7.53193092088786e-05
8.17302122634918e-05
8.77763107565219e-05
9.31436574029852e-05
9.75858814079044e-05
0.000100672301689435
0.000102397373316655
0.000103649922864579
0.000106766171137281
0.000114537655670372
0.000133814223626016
0.000173106587403259
0.000218006398315986
0.000265589764275565
0.000314755089018979
0.000364886504954798
0.000415217075773715
0.000465356985673595
0.000514908573594811
0.00056363511332113
0.000611310623100544
0.000657771796637323
0.000702866002445194
0.000746468394091916
0.000788467962048366
0.000828776941720559
0.000867332596427185
0.000904107346143638
0.000939117814286982
0.000972436736453279
0.00100420439105202
0.00103463987369571
0.00106405116872963
0.00109284431052023
0.00112153168259114
0.0011507405170149
0.00118122294108889
0.00121386912841715
0.0012497256247016
0.00129002003324052
0.00133619338684596
0.0013899425408967
0.00145326674993014
0.00152851680546045
0.00161849109118524
0.0017265617751041
0.00185714106556397
0.00202270516561896
0.0022164770194176
0.00230922835808262
0.00201683596906305
0.0018738298522624
0.00186144170674104
0.00192496903589993
0.00204507710991473
0.00221303940080713
0.00242509559842935
0.00268006618182346
0.00297842549362456
0.00333287925262844
0.00377564606397924
0.00430433718075876
0.00490635835417907
0.00557032638885134
0.00628546743403372
0.00703536351338224
0.00779758430583177
0.00851179146290228
0.00913771680370189
0.00969138097196567
0.0102026623322112
0.0107062436289016
0.011245231320921
0.011910482228954
0.0127707431315883
0.0141067370987941
0.0159245369156484
0.018177632313214
0.0209744170015639
0.0244298040041136
0.0286685753900129
0.0335397290827797
0.0377486636843614
0.0385738221488997
0.0306520775904484
0.0231473197529644
0.0168700466606203
0.0122505811820656
0.00917311932315435
0.00827440222973687
0.0196824246821616
0.0202148086787207
0.0170618234448108
0.0120496051643574
0.00687261300760742
0.00324663075309462
0.00129729796812299
0.000728001965608421
0.000601927868865151
0.000446463867801871
0.000280895492339404
0.000173020641222173
0.000113357191233388
7.86958855444313e-05
5.76237347357973e-05
4.52586913033472e-05
3.90127545260055e-05
3.64971919565558e-05
3.66038575277809e-05
3.86794517637294e-05
4.26601405143958e-05
4.86777170623029e-05
5.69266832056037e-05
6.74681241465783e-05
7.99818421064294e-05
9.44094076402887e-05
0.000110611608641237
0.000128178033305322
0.000146441798739283
0.0001645303876375
0.000181552890057495
0.000197175539629148
0.000211881040467858
0.000224732830325144
0.000235231356143054
0.000242720992580378
0.000247457170976226
0.000251864924101954
0.000260953291911119
0.000282595012494187
0.000334225061986714
0.000430907591280143
0.000540789282123555
0.000656712353146742
0.000775744734215087
0.000896376469830704
0.00101684696202261
0.0011362740070317
0.0012537739427092
0.0013688367230117
0.00148097734348568
0.00158985724655789
0.0016951629771499
0.00179664778869771
0.00189409904857977
0.00198736077463434
0.00207633721126915
0.00216101568386916
0.00224148608696934
0.00231796657162095
0.00239082755866149
0.00246061526769181
0.00252807238671753
0.00259415642793822
0.0026600553799804
0.00272720251898134
0.00279729266157392
0.00287230201231529
0.0029545144386516
0.00304655343906647
0.00315141600282876
0.00327250180937328
0.0034136083111985
0.00357884998909796
0.00377245473211527
0.00399817367681545
0.00425812410777379
0.00455296932536437
0.00478853111440496
0.00478794578039117
0.00439962825740953
0.00423363429771239
0.00427877156311888
0.00446620696065542
0.00476617261467908
0.00516535980070331
0.00565853420160122
0.00624620799373182
0.00693673797268234
0.00776012650622455
0.00876032118831824
0.00992775880589845
0.0112383658701111
0.0126697914579003
0.0141993530516284
0.0157931805707755
0.0173998560450567
0.0189128150981653
0.0202818972803212
0.0215416334311688
0.0227484500215432
0.0239641155408476
0.0252832686875599
0.0268831956717407
0.02892318325855
0.0319309393615917
0.0359077717864675
0.0407523491245706
0.0466205903935786
0.0536414031424592
0.0618722810656883
0.0707923436932581
0.0781314193817457
0.0800558714101155
0.0692059606140529
0.0549853592499396
0.0418348243362668
0.0311318921629018
0.023453863840879
0.0206630971963176
0.0342043624672146
0.0334166226479486
0.0293008006772271
0.0221411212441875
0.0133280782967796
0.00631228864004373
0.00244053218418008
0.00129029512593069
0.00103799769655678
0.000776756439256464
0.000494439190418449
0.000305799676449277
0.000200187513627958
0.000138763861556368
0.000101427047963062
7.9419543598664e-05
6.81663184997331e-05
6.35522981801301e-05
6.35334385429316e-05
6.69757596049513e-05
7.37442604253385e-05
8.4052017077847e-05
9.8224453989939e-05
0.000116365465508614
0.000137939397346391
0.000162800165192298
0.000190664026728736
0.000220787871905472
0.000251994830759546
0.000282801063927149
0.000311780813052259
0.000338456735172566
0.000363511318076531
0.000385617184356677
0.000403344411372572
0.000416935752087723
0.00042803854887783
0.000440762525953192
0.000462971415883997
0.000511368078367658
0.000613286536226087
0.000778509183281103
0.000960993359772607
0.001148391622934
0.00133563492906543
0.00152079924999123
0.00170178166491229
0.00187776181603956
0.00204795829768424
0.00221205920135781
0.00236977834139495
0.00252098816294967
0.00266558032611012
0.00280351067663909
0.00293476770095837
0.00305939839079977
0.00317751628620808
0.00328932787456165
0.00339515587180327
0.00349546742221636
0.00359090002924444
0.00368228600445769
0.00377067301269711
0.0038573402700236
0.00394380839795194
0.00403184334270833
0.0041234549841747
0.00422088887735464
0.00432660940972226
0.004443263670726
0.00457360302979953
0.00472032640551409
0.00488576505059536
0.00507128394620157
0.00527615803938403
0.00549546438136866
0.00571779669874148
0.00589261685898729
0.00595129780267831
0.00586610224966639
0.00576284802929245
0.00576838426370954
0.00595548307610876
0.00628579793834781
0.00674250538177775
0.00731920171958558
0.00801671323596906
0.00884311297553132
0.00981727771738647
0.010968537519785
0.0123102382733577
0.0138318345627533
0.0155115970255888
0.0173266986416253
0.0192513161994828
0.021247694398683
0.0232563945535717
0.0251957357294633
0.027066122681421
0.0289065478254298
0.0307730891795294
0.032722999412605
0.0348716931705082
0.0374030151066812
0.0405222559638137
0.0447288322904433
0.0499770506741135
0.0560966072266895
0.0630958007988948
0.070877303442751
0.07913748846958
0.086953191937736
0.0924149195680923
0.0931101904691933
0.0868062279412065
0.0757939558721308
0.0636302992910825
0.0517037029883628
0.0415882367822733
0.0365583491277829
0.044661400669876
0.0417990446720741
0.0376938642668471
0.0315213014953848
0.0217091716829535
0.0110195489809477
0.00422394050127655
0.00198693461920333
0.00151959273711363
0.00114409662010335
0.000738338013650843
0.000459308695236628
0.000300746149674428
0.000208291529375783
0.000152113198545282
0.000118885761788878
0.00010170528816689
9.45964189282154e-05
9.43121254588651e-05
9.92597123661864e-05
0.000109187412705335
0.00012436984367684
0.000145223775366363
0.00017181802027483
0.000203328740235395
0.00023938643028134
0.000279384452327486
0.000322067306563994
0.000365623843822854
0.000407994979674449
0.00044748028739173
0.000483730855697944
0.000517585288451208
0.000547949066446553
0.000574094028091993
0.000596904522667659
0.00061952707309077
0.000648329507059772
0.000695557432414895
0.000782643951657567
0.000934355062455843
0.00113831873939262
0.00135406726753602
0.00156445466529382
0.00176630785040029
0.00195917504170251
0.00214296227784543
0.00231783402206218
0.00248422552159778
0.00264245298183013
0.00279292039273724
0.0029359212215608
0.00307176595351908
0.00320071322080444
0.0033230346380648
0.00343900536849832
0.00354894200479767
0.00365321615609116
0.00375228252146601
0.00384669860530115
0.00393714660171634
0.00402445023202199
0.00410958812805959
0.00419370026081292
0.00427808451755351
0.00436418100324843
0.0044535426389898
0.00454778559456339
0.00464851320494185
0.00475719573265578
0.00487497018788543
0.00500231453885681
0.0051385179097912
0.00528085829485987
0.00542333030080985
0.00555473993966766
0.00565647860258631
0.00569358567464958
0.00565859622367442
0.0056249415253348
0.00575416584742492
0.00588665679625784
0.00616228594925084
0.00654829746670293
0.00704542470608528
0.00765289979998405
0.008377244497861
0.00923052517155212
0.0102319300416308
0.011395616081037
0.0127071743457682
0.0141622186397689
0.0157462597008649
0.0174415657829443
0.0192262569780996
0.0210695630317207
0.0229256947644073
0.024761287774792
0.0266175859362395
0.028528847686635
0.0305412571736772
0.0326983481081284
0.0351042238080418
0.0378977503243935
0.04125627324681
0.0454616649560777
0.0504023100941119
0.0558786296391946
0.0617506625342456
0.0677694101887262
0.0735125073833225
0.0781357741312989
0.0807709565263381
0.0800415297393998
0.0775385383758729
0.0728228329046769
0.0670769975306814
0.0600057560577884
0.0531473048942588
0.047902078756057
0.0471881037037669
0.0432257603282807
0.0394832966097822
0.035718743965357
0.0292721491005779
0.0173332035564565
0.00708117362388582
0.00290814544225878
0.00202165252008145
0.00151719911677511
0.000995449269382801
0.000624681051803843
0.000409901632189553
0.00028405924666972
0.000207582342758741
0.000162208995176457
0.000138497942269469
0.000128635575623515
0.000128007536953982
0.000134593661855736
0.000147966488906947
0.000168374437900844
0.000196169435688696
0.000231161281149126
0.000272045100031252
0.000317929109417888
0.000367555156038159
0.000418936945578911
0.000469654157237402
0.000517459981310339
0.000561042521575817
0.000600685693420976
0.000637597626917175
0.000671989433704431
0.000704717749254927
0.000738238300742319
0.00077707133133071
0.000828753785607636
0.000905756624649867
0.00102521289974211
0.00119500181543613
0.00138051572107833
0.00157812115077523
0.00176235448036499
0.00193762604820277
0.00210257574333762
0.0022596542419698
0.00240853137718094
0.00255046873260602
0.00268553880407793
0.00281438116310009
0.00293718754691648
0.00305432715659105
0.00316602277443325
0.00327256020328428
0.00337420184309776
0.00347125981579734
0.00356408312172225
0.00365308867514942
0.00373876764516115
0.00382170149610524
0.00390256885217507
0.00398214999449347
0.00406132241854633
0.00414104458607857
0.00422232326148779
0.00430616292548493
0.00439348840449323
0.00448503495552542
0.00458119210802861
0.00468176955980021
0.00478566120488322
0.00489037944772528
0.00499147938870413
0.00508195147787954
0.00515215859455442
0.00518519266891379
0.00517483148246106
0.00514091382329755
0.00517019789200238
0.00537201158008977
0.00554699752295241
0.00584352484280741
0.00622513040692382
0.0067014878734887
0.00727267898526806
0.00794670695139145
0.00873465274410888
0.00965061702090756
0.0106976597060708
0.0118546125683686
0.0131213097315719
0.0144872109136453
0.0159384605082581
0.0174573830130758
0.019020199306404
0.0205951608161816
0.0221737912037606
0.0238025665473405
0.0255085317132349
0.0273273601993322
0.0292895867963255
0.0314852429793096
0.0340123444739476
0.0370047853855613
0.0405939956846856
0.0446551258442142
0.0490158218930734
0.0535094017820658
0.0578896398036014
0.0618099141073711
0.064618807383284
0.0660202684559875
0.0649371597287917
0.0637666376769399
0.0618650355171511
0.0601541966068087
0.0570027748326368
0.0544028808128511
0.0502430124965231
0.0450084784458739
0.0410362766832288
0.0377277702841838
0.0351630174731355
0.0334630444806741
0.0239830574918471
0.0112916330144863
0.00429147053405874
0.0025503718243557
0.00185928860238773
0.00124119243071721
0.000788524156071868
0.000519985439166488
0.000361445435695203
0.000264950445257344
0.000207482348410209
0.000177109657813867
0.00016441541087154
0.000163408375575228
0.000171667896798206
0.000188477518932306
0.000213850054015298
0.000247753885807645
0.000289369632692067
0.0003366469874531
0.000387861145392492
0.000440944536824864
0.000493387522291754
0.000542811874175339
0.000587755795876821
0.000628175754890958
0.000665369029051005
0.000701081373301923
0.000737167159058332
0.000775825106497626
0.000820442146545823
0.000875776937353938
0.000948472027544113
0.00104750216501644
0.00118053399951446
0.00133873812873666
0.00148364062806012
0.00165261665862579
0.00180489476235734
0.00195400609758945
0.00209377191148589
0.00222881715968792
0.00235721625631008
0.00248070483062593
0.00259879217075933
0.0027121673703895
0.00282080953114033
0.00292505528336604
0.00302503827386211
0.00312100783473528
0.00321317793869808
0.00330182230616975
0.00338724069051639
0.00346978988229859
0.00354987983559941
0.00362798446979378
0.00370464083225117
0.0037804464621658
0.00385604724843221
0.003932112956729
0.00400929465528556
0.00408816431410445
0.00416912708744267
0.00425230436347634
0.00433738387489105
0.00442341391543717
0.0045085453488664
0.00458973788534438
0.00466251984214412
0.0047209472671055
0.00475779981164485
0.00476508264178512
0.00474897491339413
0.00473803435626711
0.00480535112537241
0.00501571517022767
0.0052017944737167
0.00549292647137273
0.00585416125895323
0.00629757052399526
0.00682296233338231
0.00743784506363863
0.00815097211313674
0.00897153549846003
0.00989716125242302
0.0109083830679673
0.0120064565533567
0.0131828519821903
0.0144262277741971
0.0157220890515772
0.0170518000952982
0.0183934791043252
0.0197487489970716
0.0211578538305641
0.0226420495876901
0.024226717431091
0.0259361026524993
0.0278461299332888
0.0300278734795979
0.0325807477500933
0.0355619650664432
0.0388598780995147
0.0423389928899729
0.0458504173150712
0.0491857382812078
0.0520782816740957
0.0540124136446025
0.0549086172507378
0.0538352882004479
0.0530281748604394
0.051944830517432
0.051844677905094
0.0504314043549738
0.0504207072178334
0.0474269355748912
0.0413034704409721
0.0378196967922564
0.0349727265461081
0.0326551331860268
0.0339257344371162
0.0294253590788409
0.0164829772715164
0.0065019577807819
0.00317727359722101
0.00215113453675364
0.00144970144240657
0.000933732926614107
0.000620308585284148
0.00043376954978811
0.000319949249557612
0.000251814413410961
0.000215320904484765
0.000199929414738903
0.000198486147843139
0.000208173688862979
0.000227811307649758
0.000256868052053518
0.00029455497637375
0.000339141031619277
0.000387828864778588
0.000438200734009248
0.000487883036623641
0.00053472022286348
0.000577372675284233
0.000615845802195533
0.000651394510057241
0.000685900769530077
0.000721298350879206
0.000760334453135633
0.000805570046260417
0.000860349422277399
0.000928678357009411
0.00101525876288724
0.00112471237773289
0.00125666330605165
0.00139431286287986
0.0015087165877601
0.00165764394661449
0.001787733134911
0.00191997665537946
0.00204337601165754
0.0021643621922401
0.00227969243794102
0.00239143858780948
0.00249873054787685
0.00260227869705534
0.00270193767884317
0.0027980177134794
0.00289060191433294
0.00297991261910621
0.003066131441974
0.00314950019145141
0.0032302776213408
0.00330876765150528
0.00338530975867881
0.00346028536610134
0.00353411207129316
0.0036072359272813
0.00368011500172656
0.00375319108464647
0.003826843019409
0.00390132516860892
0.00397668097970362
0.0040526341596832
0.00412846609757699
0.00420286167745396
0.00427374969916066
0.00433817861229288
0.00439235303905358
0.00443208002832419
0.00445211214010967
0.00445199349763987
0.00444264719247189
0.00445286323494218
0.0045391741751058
0.00473946038051869
0.00492666725652121
0.00520476066540063
0.00554424100596673
0.00595633853593584
0.00644068855591007
0.00700367733763329
0.00765185921237792
0.00839086371920002
0.00921610202964298
0.0101115186412516
0.0110783603378047
0.0121093582017603
0.0131949067282625
0.0143228761820691
0.0154783780072941
0.0166461554426765
0.0178317596577432
0.0190681218687023
0.0203725300846312
0.0217608431666036
0.0232582046170953
0.0249264826583587
0.0268200538898332
0.0290138028469008
0.0315287820064166
0.0342702045945611
0.0371316161889673
0.0399866493753871
0.042661167392564
0.0449422190143262
0.0464047556011701
0.047037105208889
0.046036381341114
0.0453080767852499
0.0444053097473843
0.0448085626125378
0.0440208300615754
0.0451700016442705
0.0431136729781634
0.0374825542783312
0.0346093205909324
0.032139682820333
0.0300723356165611
0.0317604738962782
0.032747369682689
0.0219444322258146
0.00967846349171647
0.00404891677198445
0.00242523977410772
0.00161312317772163
0.00104820568771686
0.000700852664998118
0.000493783879554727
0.00036749110558693
0.000291519364627146
0.000250193650454712
0.000232460591313457
0.000230464761334799
0.000240979450367691
0.000262204536291727
0.000292825634125271
0.000331140970427959
0.00037463066069443
0.000420217514164944
0.000465406284395805
0.000508297047616652
0.000547752622334224
0.000583703347726697
0.000617257582835099
0.000650220314840614
0.000684441345361891
0.000721732542726154
0.000765009094754861
0.000816612531756081
0.000879375105747507
0.000956215660812983
0.00104985468191121
0.00116144476643643
0.00128602669272023
0.00140596210305871
0.00150427345568823
0.0016402235006433
0.00175661084016644
0.00187816818561268
0.00199120294897153
0.00210312409970796
0.00221003357243977
0.00231412963459506
0.00241439020199145
0.00251150671403103
0.00260528969948211
0.00269602355066732
0.00278377043159336
0.00286873158774272
0.00295106797539467
0.00303099461422361
0.00310873622895993
0.00318455072611641
0.00325871694047713
0.00333153723017545
0.00340332883177384
0.0034744125431096
0.00354509455416349
0.00361563767457061
0.00368621425497108
0.00375684912856055
0.00382734084629819
0.00389716707507889
0.00396539713765593
0.00403059189798867
0.00409073431276715
0.00414323681626298
0.00418515171310111
0.00421353961111362
0.00422603446264639
0.00422585443216948
0.00422561572784336
0.00425126248692347
0.00434558022317599
0.00453164923200459
0.00471631882342998
0.00497994114423194
0.00529961626766152
0.00568449903839812
0.00613424314807626
0.0066540078673361
0.00724858267729333
0.00792120451237838
0.00866663973658118
0.00947201149046662
0.0103380222236966
0.0112583248988041
0.0122245885803582
0.0132264832943053
0.0142519168453031
0.0152901193347624
0.0163479761464676
0.0174522594540516
0.0186168349102056
0.0198514121467825
0.0211836278277325
0.0226633997456097
0.0243343281569812
0.0262538034208262
0.028424521806282
0.0307663643114001
0.0331934872798449
0.0355980081224943
0.0378317208703499
0.0397152009556801
0.0408867035148476
0.0413444145543347
0.0404078558044431
0.0396730219951985
0.038782342926853
0.0392568328355408
0.038678355938317
0.040186119641292
0.0388302037557551
0.033997493663247
0.0317241298697435
0.0294847081622395
0.0279954522573628
0.028438110509545
0.0337657603978187
0.026834141503008
0.0137105509421905
0.00537982379244742
0.00276820454711128
0.0017550075830959
0.00113592048863675
0.000759400673853502
0.000537722810222228
0.000403934821787932
0.000323486296150727
0.000279078638337578
0.000259528101111195
0.000256856421127131
0.000267435992484116
0.000288826101736883
0.000318922337888606
0.00035529601586893
0.000395091451337535
0.000435516847200342
0.000474501869021554
0.000510948487852823
0.000544683456734447
0.000576461632196537
0.000607830149872728
0.000640582925486583
0.000676311521813931
0.000716640655545055
0.000764292634858754
0.000821204375265309
0.000889571868602404
0.000971267134452344
0.00106741441661231
0.00117692313961703
0.00129303978834953
0.00140068502448703
0.00149210989530816
0.00161879196474758
0.00172691251299494
0.00184122375877865
0.00194754934899984
0.00205335340874929
0.0021546669608023
0.00225360250876866
0.00234914868007355
0.00244193653087193
0.002531780377587
0.0026189343886523
0.00270345488107339
0.00278552357260976
0.00286528629666783
0.00294293382087353
0.0030186610736378
0.00309268501301859
0.0031652314999448
0.0032365346454082
0.00330682676949953
0.00337632440297549
0.00344521019382025
0.00351360620633255
0.00358152834724706
0.00364883734845458
0.00371517085603273
0.00377986345903574
0.00384189584492072
0.00389984226643422
0.0039518746454024
0.00399586186558745
0.00402969334748618
0.00405131848085043
0.00406091819004389
0.00406341120476833
0.00407148104930808
0.00410745591498154
0.00420380153533592
0.00437583460352385
0.00455632920845878
0.00480606638708865
0.00510832530685817
0.00546996449967066
0.00589073777186648
0.00637466711031868
0.00692519407420139
0.00754399327683589
0.00822590709808384
0.00896061317666064
0.00974814567113874
0.0105828752252851
0.0114574458154245
0.0123629294705079
0.0132893671477745
0.0142290724007455
0.0151891203268675
0.016191426953239
0.0172462744001758
0.0183613989636376
0.0195655539610324
0.0208993612212813
0.0223990137222902
0.0241091037691626
0.0260227498118317
0.0280716579970492
0.0301843654883816
0.0322667824657795
0.0341896190886253
0.0357940577097662
0.0367642497749367
0.0370866790895183
0.03619362807069
0.0354256884434994
0.0345066409857253
0.0348977673255978
0.0343919713371873
0.0358761152725764
0.0350183640142653
0.0309445997765951
0.0292014973343545
0.0270897721065108
0.0263544983596368
0.0251512032891783
0.0328019620699258
0.0303841464560394
0.018165487532303
0.00736644707552959
0.00328364621505233
0.00192024720479071
0.00121667294624777
0.000804764481712229
0.000568639257181415
0.000429643016713246
0.000347047337956585
0.000301088353116863
0.000280223083194172
0.00027679416546093
0.00028679785448698
0.000307272954176831
0.000335519078478865
0.000368726523273112
0.000404125321942872
0.000439483957854022
0.000473285987844593
0.000505127677601194
0.000535443193476495
0.000565348939647033
0.000596432737026885
0.000630287327906091
0.000668258357246495
0.000711797504563074
0.000763290818639712
0.00082424939564744
0.000896254136044012
0.000980309970836377
0.00107640682581726
0.00118223196169536
0.00129092101193019
0.00139086670273061
0.00148001662832883
0.00159954732654866
0.00170274140154396
0.00181186695327449
0.00191380264709433
0.00201537563005032
0.00211293506419419
0.00220835807461269
0.00230073783345224
0.00239061792014083
0.00247783981566112
0.00256262417886969
0.00264502771889528
0.00272521304253982
0.00280331315261463
0.00287949614787126
0.00295393001013746
0.00302679488195273
0.00309826996682103
0.00316853011940106
0.00323773556779472
0.00330601562439078
0.00337345186447985
0.00344005567360949
0.00350572463076894
0.00357020394383688
0.00363303098877881
0.00369346655404112
0.0037504798834107
0.00380273379107073
0.00384864558875289
0.00388654332418089
0.00391485270220371
0.00393274528651922
0.00394179074170244
0.00394771893687158
0.00396249201949514
0.00400496492635399
0.00410014918111599
0.00425947678703613
0.00443496796560513
0.00467201575476957
0.00495903463106957
0.00530081556879652
0.00569720678345086
0.00615124746088899
0.00666536557852396
0.00724023075391784
0.00787106303348441
0.00854949501317081
0.00927493375234364
0.010042316952275
0.0108450548443612
0.0116753320738615
0.0125248435824307
0.0133880471415623
0.0142716976713319
0.0151939009132101
0.0161609155687925
0.0171826058165776
0.0182863205452503
0.0195058596694258
0.0208720154228046
0.022419772212476
0.024137270503906
0.0259656007249312
0.0278433200853752
0.0296862748873244
0.0313788153887006
0.0327745547725213
0.0335916998504015
0.0337989132966059
0.0329298945737458
0.0321220012488057
0.0311747760542754
0.0314317002613773
0.0309564698180421
0.0322598129693268
0.031740190589101
0.0283071416815392
0.0269962492714551
0.0249880800598725
0.0249273117715949
0.0225393651434629
0.0304170760316621
0.0323093236613264
0.0224576789321028
0.0100615642866092
0.00408785488423526
0.00216026708198367
0.00131576778568614
0.000851783851538515
0.000594920115965712
0.000449002810222292
0.000364437161421323
0.000317570569109761
0.000295589762149811
0.000291298119479571
0.000300292555449683
0.000319253318820042
0.000345127609767302
0.000375014755871586
0.000406440228423183
0.000437729154883009
0.000467838512681903
0.00049683176762596
0.000525449276892202
0.000554903959413989
0.000586673451965629
0.000622136189654769
0.000662451312742425
0.000708909326507156
0.000763518356995241
0.00082739901247214
0.000901595908059837
0.000986456613011815
0.00108124464884683
0.00118314474494685
0.00128601622586844
0.00138146128723286
0.00147037593247268
0.00158428741349423
0.00168462629667109
0.00178998066761616
0.00188909037597561
0.00198776165477187
0.00208286329582257
0.00217596090753661
0.00226629323479201
0.00235430550179614
0.002439874096866
0.0025231855198115
0.00260429829076131
0.00268335637155197
0.0027604807127985
0.00283581808152162
0.00290951172577828
0.00298170861733143
0.00305254677563341
0.00312214946120183
0.00319061576394488
0.00325800186517372
0.00332430615378799
0.00338945327016659
0.00345325149619013
0.00351536653662747
0.00357527979597852
0.00363222418834783
0.00368520463296199
0.00373300961804419
0.0037743155946296
0.00380779726867588
0.00383244906787946
0.00384841496881613
0.00385804451177829
0.00386732127878236
0.00388715936468769
0.00393340150661322
0.00402576309935755
0.00417387053337864
0.00434393887387624
0.00456960428759653
0.00484325112901325
0.00516798772694239
0.00554370979952668
0.0059726382026659
0.00645644039189075
0.00699514716756028
0.00758445295569065
0.00821745985086315
0.00889304301216797
0.00960658588888399
0.0103521120750808
0.0111227012972662
0.0119113459805545
0.0127140069816869
0.0135368909795192
0.0143946601926175
0.0152907717278962
0.0162383685686833
0.0172622010598579
0.0183910120281868
0.0196514344974838
0.0210710819669832
0.0226356371388018
0.02429360998696
0.0259904741212242
0.0276490283507077
0.0291632876370398
0.0303939905003356
0.0310851644898667
0.0311884514833348
0.0303277428077007
0.0294808484253344
0.0285164189441955
0.028630105393866
0.028172209481034
0.0292474183008831
0.0289460420820346
0.026037161888443
0.0250527158734255
0.0231818907637742
0.0235480528612161
0.0207504024424633
0.0272107479695855
0.0327391664186705
0.0261603714625606
0.0134281331024599
0.00531857260135887
0.00253053324547151
0.00145834303057673
0.000915238752554013
0.000626080875466979
0.000468002420740618
0.000379414092595873
0.000330944698065729
0.000307742324758003
0.000302356015436995
0.000310027248331127
0.000327193262712218
0.000350637491008734
0.00037753246197204
0.000405736927224902
0.000434012776451648
0.000461667627534043
0.000489042389513063
0.000517004076300212
0.000546743017553781
0.000579591322490406