/*--------------------------------*- C++ -*----------------------------------*\
  =========                 |
  \\      /  F ield         | OpenFOAM: The Open Source CFD Toolbox
   \\    /   O peration     | Website:  https://openfoam.org
    \\  /    A nd           | Version:  7
     \\/     M anipulation  |
\*---------------------------------------------------------------------------*/
FoamFile
{
    version     2.0;
    format      ascii;
    class       volTensorField;
    location    "20000";
    object      gradU;
}
// * * * * * * * * * * * * * * * * * * * * * * * * * * * * * * * * * * * * * //

dimensions      [0 0 -1 0 0 0 0];

internalField   nonuniform List<tensor> 
15600
(
(0.062115877886433 -0.000396277391400857 1.76893553826146e-22 20.1528728634312 -0.0337162095370711 -8.68101300508862e-22 0 0 0)
(0.050597055198509 -0.0156634652126477 -1.42676704190837e-19 22.1087292110875 -0.100475128557124 1.1354186188781e-21 0 0 0)
(0.806947119493265 -0.061758051995453 -6.48058540102738e-19 22.133179114432 -0.792187470050114 -2.09009998665521e-18 1.36394644694975e-17 -4.88095718543257e-19 -1.28788232085136e-36)
(1.48941762617662 -0.172118654312213 4.72318959496647e-19 16.0114111589751 -1.50322592009406 2.87986819608307e-18 1.98364139220231e-17 -1.86176227178578e-18 3.57445139114013e-36)
(0.97645595845499 -0.16699064091644 5.65943165727144e-19 6.22502677921994 -1.0249509461231 3.23461566800987e-20 1.11821005217267e-22 -2.15594906382105e-23 3.57713109974915e-41)
(-0.885449055410704 0.339220775745103 -5.46456418435768e-18 -2.05049009701643 0.794741088235172 -7.41792956472263e-17 -3.48252703215255e-21 1.24041483403988e-21 3.19059157956168e-37)
(-2.54762318718103 1.21018546456156 -4.20885203918401e-17 -5.3237079354407 2.4725456279757 -1.12023485315592e-16 2.89912614340941e-17 -1.34606742069889e-17 6.11073227931559e-34)
(-2.97862705967266 1.7200536414548 -5.57605775340005e-17 -5.13896744750812 2.92212201738479 -6.09935603493181e-17 2.93375032559754e-17 -1.66783023911212e-17 3.45105632184847e-34)
(-2.829648371504 1.87384798206624 -1.1454571405733e-17 -4.24374580705497 2.78326948338628 -1.97684946325454e-19 0 0 0)
(-2.55726340266907 1.86022657185655 -2.98229858944263e-16 -3.48029432546337 2.5157076503675 -4.01583819833087e-16 2.13665100424262e-17 -1.54434529978347e-17 2.46456319941769e-33)
(-2.22148322467034 1.72597489790579 -3.48077394024693e-19 -2.83096141346628 2.18978765850008 -4.70566402555487e-19 1.78071631821662e-17 -1.37734962044352e-17 2.96037857354438e-36)
(-1.91709097892935 1.55583816309607 1.87676242022061e-16 -2.33788176726542 1.8918336609568 2.07075332596196e-16 -1.49560892173581e-17 1.21024070001759e-17 1.32429839216749e-33)
(-1.637610601765 1.36318699095702 1.38486114179963e-16 -1.94730894350798 1.61824518263678 1.42225435095514e-16 0 0 0)
(-1.3901039880888 1.16761219721575 -9.19561573812171e-17 -1.63839478428141 1.37532887733349 -6.83936808920876e-17 1.06245094045175e-17 -8.91860925692596e-18 4.45116007786741e-34)
(-1.17590965067793 0.982497288682817 -1.23394114658283e-16 -1.39451091318459 1.1655249667688 -1.467476394972e-16 -9.0149951286657e-18 7.53462813909381e-18 -9.48411728292825e-34)
(-1.01330797946725 0.834745607098703 1.23655728458011e-16 -1.22090202019323 1.00658168170555 1.49598835468443e-16 7.83591951545944e-18 -6.46027135393252e-18 -9.59760166504186e-34)
(-0.899651888360506 0.730963788029801 -3.27495475935406e-16 -1.10101833551691 0.895288194365196 -3.759358773128e-16 0 0 0)
(-0.820621176474834 0.659107138421917 1.85988611338197e-17 -1.01810955184144 0.81828059105994 -7.03881237487736e-19 -3.13983404322562e-21 2.51041128945962e-21 -9.30127639600884e-40)
(-0.774175331072438 0.616130180856259 -1.61778693000446e-16 -0.971253988394887 0.773425064192854 -2.30570959729717e-16 2.61572968960705e-23 -3.70987726016657e-23 9.71392951309691e-37)
(-0.757156073949743 0.598298861429764 -5.8163526606053e-17 -0.958298090156023 0.757628277918536 -7.49952653030612e-17 -7.71410396723066e-23 4.73369591744363e-23 1.17536947551311e-38)
(-0.767280157929077 0.603016088135794 -4.25645514688293e-17 -0.977570521797668 0.768662622760328 2.07406939857557e-18 -1.77746682546473e-22 1.26961757645502e-22 -1.90226778064158e-36)
(-0.80226410688085 0.627814836691393 7.9908044854213e-17 -1.0270725497455 0.804152844569791 7.38490233257048e-17 -6.39669128534514e-18 5.00823231405631e-18 4.6700842909648e-34)
(-0.857540639739307 0.668575543620586 1.46628771032313e-16 -1.10185598975499 0.859560856090974 1.60368614606359e-16 6.85301244095876e-18 -5.34593438444353e-18 -1.00388819316819e-33)
(-0.921554774909858 0.715032409120353 -4.65894638553733e-17 -1.18860106142841 0.923109068725655 1.96642614219191e-18 0 0 0)
(-0.981819369040822 0.753529664054892 2.1115739569239e-16 -1.27854928785249 0.982909764076982 3.1317627237407e-16 -7.91232644603598e-18 6.08233321827634e-18 1.92756388835211e-33)
(-1.0337707805413 0.77838408239284 -2.7924398976028e-16 -1.37005628429851 1.0342439447049 -4.05974080963925e-16 -8.68554253261142e-21 6.42226020038778e-21 -1.96121330505216e-36)
(-1.07121998143387 0.784422021493869 -1.77440495349984e-16 -1.45748355265114 1.07108563116884 -2.41427945133537e-16 8.43886175384753e-21 -6.23985960287673e-21 1.90551227963021e-36)
(-1.08826259728694 0.767535898591385 -9.41584585131443e-17 -1.53482740783276 1.08764164834228 -1.71943893459038e-16 0 0 0)
(-1.0797282931025 0.725357062394977 1.42997813342751e-16 -1.59608038180359 1.07890858483635 1.72574798090187e-16 9.55939425035111e-21 -6.23597817241244e-21 -1.99594302092682e-36)
(-1.04206643566063 0.658125110684819 -2.61301525700235e-17 -1.63573710108435 1.04144794825592 9.48820615977237e-19 -1.87640896971843e-20 1.18544739744339e-20 1.9324690934191e-36)
(-0.97603043815623 0.570488116346325 4.72111158449466e-19 -1.65218152317627 0.976014443757229 7.104300617957e-19 1.84992160337271e-20 -1.0883733275363e-20 -4.0396921393651e-39)
(-0.890655493996424 0.473530305317476 -1.15511567181982e-16 -1.65468955803456 0.891892122029458 -2.70276256909325e-16 -8.99575259403402e-21 5.08438531957988e-21 3.78251696986561e-39)
(-0.795039792396292 0.378507548389353 -3.79596032565448e-17 -1.64566912081746 0.797169728029845 -8.07729960922426e-17 9.00148533214743e-18 -4.35808229885009e-18 4.4155297679095e-34)
(-0.689420568661468 0.288638607395749 9.21051117235984e-17 -1.61742050413903 0.692476938205859 2.82732707824264e-16 0 0 0)
(-0.577988186918381 0.207751320187614 -2.95459365648816e-17 -1.57060837797834 0.581828801853357 2.98575632870133e-18 0 0 0)
(-0.466195686197244 0.13913943564321 4.1171534665242e-17 -1.51019988750966 0.470633244501527 8.4837966419288e-17 -3.89428047586431e-18 1.21264175038255e-18 2.21218129024097e-34)
(-0.36061901486371 0.0850229704601537 1.08965020286633e-16 -1.4483489001154 0.365291175007029 2.50946764902803e-16 0 0 0)
(-0.266518230728017 0.0455371236017917 3.03908126226159e-15 -1.40838191566463 0.271400924318512 -6.13860837286564e-17 0 0 0)
(-0.181914493284198 0.0182855443422666 1.91014686319179e-15 -1.40995565233592 0.187254054323721 -9.44156097896154e-15 6.9915590267567e-16 -9.27611611215206e-17 4.78290525835943e-30)
(-0.11488588327392 0.00280781829861569 -3.55139900625908e-15 -1.48479572951307 0.114758813754461 -8.06479564277746e-15 7.42918629652426e-16 -5.73268814530873e-17 3.94224785937643e-30)
(-0.0614239316246994 -0.00190276327281709 -3.09286060122382e-15 -1.92977448056285 0.0711476348233949 1.57105013098302e-16 -1.4860283647285e-19 5.46319014391929e-21 6.07782326992018e-39)
(-0.050334944190126 -0.000603622184446921 4.70294018397108e-19 -2.63604053297911 0.0536674847059119 5.39290821454201e-19 0 0 0)
(-0.0452827954723281 5.5800382316628e-05 -5.81109062068809e-20 -3.23591570629292 0.0509192337367874 2.50728361448328e-21 0 0 0)
(-0.0424044421913901 3.92061752516301e-06 5.78648047192511e-20 -3.80474972930681 0.0470126565360962 -4.18837032391632e-19 -1.92585635986606e-20 8.15399497047448e-23 -1.6655679237756e-41)
(-0.0384563585756029 -6.04440437968691e-06 5.8110906206884e-20 -4.31248574791734 0.0432145365695633 4.12363597198057e-19 1.92585635986608e-20 -8.15399497047457e-23 1.66556792377562e-41)
(-0.0347873206785712 -3.08699543798495e-05 -3.46480472660014e-15 -4.77051927704943 0.0391551664567992 1.23113083821648e-16 0 0 0)
(-0.0311776435943493 -4.06047524081577e-05 -3.52388545213226e-15 -5.17746770049943 0.0353693075286679 7.08725224676102e-15 -2.9565965703368e-15 2.02236783602784e-17 4.12785185394822e-30)
(-0.0279095267669548 -5.03836292800913e-05 3.46477641840982e-15 -5.53981042789648 0.0318274829521179 6.13085240308946e-15 -3.17860760957576e-15 1.82387684402318e-17 3.44788594754221e-30)
(-0.0249337718043278 -5.60541740495434e-05 3.52388545213254e-15 -5.86144908091446 0.0286206442219865 -1.07112923479405e-16 1.41072315379486e-20 -3.64418681046151e-23 1.19243922578255e-34)
(-0.0222752645454736 -6.11246532941912e-05 -6.0273752247319e-20 -6.14726950063309 0.0257122326811233 -2.68637071207937e-19 0 0 0)
(-0.0198935019820907 -6.50666734471053e-05 3.06581689773696e-20 -6.40117273869414 0.0230863135249718 4.74588623084735e-20 -1.63779174355783e-20 3.02748541786246e-23 -1.99544167620574e-42)
(-0.0177636679915182 -6.86726851446246e-05 -3.58685520448584e-15 -6.62679375598276 0.0207046677770904 7.33234188291245e-17 1.63779174351303e-20 -3.02748541770094e-23 1.99544167958049e-42)
(-0.015852555961522 -7.18710333386811e-05 -3.66490902688275e-15 -6.82719489479327 0.0185377343743501 6.0779085182658e-15 -3.75464528099864e-15 1.02008928571401e-17 3.38752694362185e-30)
(-0.0141347001791622 -7.48049837963692e-05 3.58688592162332e-15 -7.00507852350138 0.0165568289877245 5.63764940006652e-15 -3.86266972444362e-15 9.12476536007886e-18 3.07447960276904e-30)
(-0.0125878264828389 -7.74222169640551e-05 3.66487836871381e-15 -7.16279716178726 0.0147401435094714 -5.5809445698155e-17 0 0 0)
(-0.0111958431632091 -7.96953912927995e-05 -8.50484701943906e-21 -7.30246009949814 0.0130710880469665 8.63422557129461e-23 0 0 0)
(-0.0099476818296248 -8.15489072229262e-05 8.49674232069608e-21 -7.42599419205656 0.0115391245657653 -6.1019865133438e-20 -4.78379998171414e-21 3.72785305782248e-24 -6.85638188647358e-44)
(-0.00883753705522441 -8.29081516482522e-05 8.50484701943888e-21 -7.53521753342192 0.0101390987592758 1.36061476875602e-19 4.78379998171461e-21 -3.72785305782285e-24 6.85638188647425e-44)
(-0.00786419192952832 -8.36926049424025e-05 -8.49674232069735e-21 -7.63189734896425 0.00887091125724414 -7.49788918951325e-20 0 0 0)
(-0.00703044872360916 -8.38384251533819e-05 0 -7.71780254333876 0.007738771770529 0 0 0 0)
(-0.00634222399878694 -8.33087882882907e-05 7.87909003269986e-35 -7.79474337003781 0.00675024092114642 -3.96927837387341e-20 0 0 0)
(-0.0058077419463228 -8.20968066504244e-05 -7.98746517506139e-35 -7.86459986125355 0.00591528038487507 3.96100187517899e-20 0 0 0)
(-0.00543690090225878 -8.02214810495354e-05 0 -7.92934028274831 0.00524553208886789 0 0 0 0)
(-0.00524078851005387 -7.77262071348016e-05 0 -7.99103193820339 0.00475375296358396 0 0 0 0)
(-0.00523117489136072 -7.46821209675959e-05 0 -8.05184426464034 0.00445323646628844 0 0 0 0)
(-0.00541984434580523 -7.11946311317508e-05 0 -8.11404238088377 0.00435704263558211 3.4807149833539e-19 0 0 0)
(-0.00581758981470355 -6.74145796584112e-05 -6.89380305623224e-34 -8.17996736689943 0.00447689441383189 -3.47291670374194e-19 0 0 0)
(-0.00643252560668366 -6.35617074005183e-05 4.30404345021898e-20 -8.25199668253863 0.00482145045329009 8.73903597158291e-22 0 0 0)
(-0.00726765415743377 -5.9935529919203e-05 -8.6873910074382e-20 -8.33247365600782 0.00539359726680346 -6.03865155014774e-20 2.17316233103583e-20 1.59017814781947e-23 1.48328300658235e-39)
(-0.00831779236800054 -5.68867098637797e-05 7.86504018077125e-22 -8.42359495551355 0.00618660427115905 1.16333498232686e-19 -4.37447127812373e-20 -3.37285549616981e-23 -2.93995146733196e-39)
(-0.00956046469597474 -5.50680243532668e-05 8.68739100743851e-20 -8.52723213055111 0.00717756806040835 -5.54735553978912e-20 2.20130894708822e-20 1.78267734835058e-23 1.45666846074982e-39)
(-0.0109376705255788 -5.57797652500448e-05 5.29303734819688e-15 -8.64458414003016 0.00831112489980266 1.60435630327171e-16 0 0 0)
(-0.0123629610310458 -5.89675159635098e-05 1.07443965696106e-14 -8.77562378255014 0.00947828655397484 -5.92230531352534e-15 4.84468207905404e-15 -5.20966896022679e-18 3.17225992975986e-30)
(-0.013677937650834 -6.54089831050256e-05 1.58092897072997e-16 -8.91857253477702 0.010505842743383 -1.32711694274201e-14 9.82296338013003e-15 -1.15750238961648e-17 1.46458083097481e-29)
(-0.0142756729295438 -9.43353312579899e-05 -1.07442977879942e-14 -9.06783109565565 0.0110069330703347 -7.47484795202518e-15 4.97944403151963e-15 -6.08026675718895e-18 4.23062048159234e-30)
(-0.0134564893376321 -0.00014305715839076 -5.45137373401226e-15 -9.20809275791279 0.0100865180418959 -2.06021352672048e-16 4.90527118242373e-20 6.76393489942202e-23 6.8273786843979e-39)
(-0.0120986597643897 -8.40026808862491e-05 1.05646046595103e-19 -9.31813938783564 0.00690184699575626 -1.42618905065504e-18 -9.89242378628086e-20 -1.40963839193404e-22 -6.50483445798295e-39)
(-0.00325603790621467 -0.000236904777814624 9.61818623392076e-20 -9.37033009238498 -0.000251509779250883 1.46904273028176e-18 9.99634145116371e-20 1.62682243858452e-22 -7.15449342639766e-39)
(0.0363884927732375 -0.00429589231387842 6.23844159592013e-15 -9.18367760496133 -0.0308030341591623 3.00978820314693e-16 -5.00918884730787e-20 -8.93577536592882e-23 6.83194919998292e-39)
(0.158954856722333 -0.0166294830148044 6.36446874045911e-15 -8.41919719927146 -0.174641639746572 -6.1633005049728e-15 4.65602379479057e-15 9.63421989034591e-17 3.22960313484918e-30)
(0.563606581637715 0.00748557193534444 -5.66215883637718e-15 -7.48418715336018 -0.548829203877303 -9.52901931972155e-15 4.10371748537729e-15 3.0058613894645e-16 5.4296092506611e-30)
(0.946173953469924 0.0916300023622402 -6.30193866150267e-15 -7.04845834315021 -0.929464417688427 -4.40262449186377e-16 0 0 0)
(1.32078559742989 0.221352211567327 3.39302371620024e-17 -6.78420919273462 -1.29939918133638 -2.54568467397412e-16 -3.50888541434913e-20 -7.49918420528869e-21 -2.0068902809433e-36)
(1.6894428430852 0.393541024936211 1.75790087449518e-17 -6.63259221287904 -1.66474049312781 5.1208831039988e-17 -1.6771774578385e-17 -4.20570891342054e-18 1.27610843748945e-34)
(2.05313531390244 0.606185681594861 6.61613883220241e-17 -6.53768936940751 -2.02459694302559 -3.11148880435992e-16 1.67930121624701e-17 5.19656926630428e-18 7.95670329807626e-34)
(2.41029304696576 0.856319910157781 -6.91219913533517e-18 -6.47354872037116 -2.37744364886638 1.05176159064392e-16 3.5836513411667e-20 1.17850535996711e-20 2.14075544447385e-36)
(2.7571766352184 1.1395018942767 4.43915599744283e-17 -6.42046778404488 -2.71906866590447 -1.06394332319212e-16 3.43568455533821e-17 1.45402614959257e-17 5.69502803106905e-34)
(3.08844054583684 1.44975077210962 1.99973196865952e-16 -6.36502015654814 -3.04441224306969 -4.11552605826704e-16 3.7061098353125e-20 1.61980983223559e-20 3.84714838455029e-38)
(3.40105688549705 1.78094883144519 -1.00831475843629e-16 -6.3053789748556 -3.35062863003702 4.17861811238935e-16 -3.73199446330929e-20 -2.00355325589564e-20 8.74612572251382e-36)
(3.69811562575567 2.12599930281061 4.86591440946522e-18 -6.25916269738884 -3.63860906096975 -1.21249385909409e-16 3.57827043603706e-17 2.07911564118591e-17 6.64391076121765e-34)
(3.96059540927171 2.45476785110848 -6.13231828294873e-17 -6.22735684946856 -3.89138697317236 -5.09077854131802e-18 4.34639177380027e-22 -1.15500798537735e-21 -4.58765947453049e-36)
(4.16304561918478 2.73800956710938 -6.21920092505147e-17 -6.17150775463302 -4.08352229989773 -3.09052325497948e-18 4.03587411869325e-20 2.48665841033583e-20 -8.99630480709276e-39)
(4.28765616606242 2.95401439550661 -1.53501820994282e-16 -6.06637016333513 -4.19822373278558 1.29371729233355e-16 -3.65377718868399e-17 -2.52810049717556e-17 8.00293184974341e-34)
(4.32029875626639 3.08457344827977 -3.83035785054561e-16 -5.89411394343167 -4.22218373909152 7.11091448613232e-16 -3.59194556820663e-17 -2.57266819195823e-17 4.28365299897635e-33)
(4.24932151309789 3.11533790581179 1.71582573457765e-16 -5.63991659929108 -4.14480882888793 -1.43895981886997e-16 3.46868143663685e-17 2.5488686393626e-17 9.05840586787051e-34)
(4.06599732717884 3.03613364212656 -1.49140675824428e-19 -5.29095348989468 -3.95763460756978 -1.77363005148671e-19 0 0 0)
(3.76036566262386 2.83971295856343 2.5891761619629e-14 -4.83002079063411 -3.65234960847436 1.7920460455601e-15 0 0 0)
(3.33101169758281 2.5317865987718 7.72759045641708e-14 -4.24057127756027 -3.22786465834809 -6.66626703714824e-14 1.06447457632056e-14 8.0996577438462e-15 1.63110394024543e-28)
(2.80091917823446 2.14544923619312 3.32517899123289e-14 -3.52467172378424 -2.70558316720911 -8.02875199427117e-14 8.78447847376456e-15 6.74510753560069e-15 2.03651582714155e-28)
(2.18773274099402 1.69460871802448 -2.63251718904966e-14 -2.70651874252109 -2.10294283996905 -1.48081716570525e-15 -1.6940036695268e-17 -1.31595869870718e-17 -6.49466082411602e-34)
(1.49857880191721 1.18032407823417 6.82609163223645e-17 -1.80160151867838 -1.42601272062651 3.7814753617486e-18 0 0 0)
(0.728213794271976 0.594276810471863 3.41765514213785e-16 -0.810976847218978 -0.670388330018859 -5.09167665821006e-16 2.21093289821424e-21 1.28932740118989e-21 6.08252334803374e-36)
(-0.13089977198293 -0.0757506624194793 -5.13011569716879e-17 0.266727629871836 0.172406696839676 2.32135674884939e-16 1.67053699565666e-18 1.07868868600825e-18 1.43499328227116e-33)
(-1.11199455199189 -0.861213520868972 -3.57710502349e-16 1.46266414390876 1.1326532524837 5.15519825667245e-16 -8.45485549275463e-22 -8.39829157977056e-22 1.96724518089921e-38)
(-2.24572492017622 -1.79680740040399 -6.51276334584632e-17 2.80416130859804 2.24290966755554 -1.61542627184336e-18 0 0 0)
(-3.63176086672996 -2.9654693399314 1.18714029190217e-19 4.40482135724247 3.59376809764077 -1.22204141923396e-19 4.37067441223372e-21 3.54368487530307e-21 -4.58313329401082e-42)
(-5.37743227475449 -4.42418617317329 5.3983878089479e-16 6.44039541072504 5.28962315138187 -6.95109161654603e-16 -4.52931362236886e-21 -3.67230744394199e-21 4.74948397061827e-42)
(-7.50911924496841 -6.12770032294748 -1.58018960012463e-16 9.03992028272701 7.35683854666031 1.88725556038289e-16 5.84200308977356e-17 4.75430228638128e-17 1.21691359438078e-33)
(-10.0406662487003 -7.99347326884067 5.85673972648465e-16 12.3663978506397 9.80709351491957 -6.40784930239679e-16 -7.91112837874541e-17 -6.27372456224929e-17 4.098026234169e-33)
(-12.9728971426834 -9.89327093457164 -5.07938391982002e-16 16.6630194493234 12.640638190162 5.91493175038788e-16 0 0 0)
(-16.2123122028769 -11.5874466979283 6.88408447307917e-16 22.2226549303654 15.7677542244924 -9.26216933640039e-16 0 0 0)
(-19.5169497678121 -12.6857061364093 -2.54655931673902e-16 29.4528587586244 18.9473693453182 4.35379251508208e-16 0 0 0)
(-22.0190132221321 -12.4769475082513 -2.41337860116893e-17 38.2950261551549 21.3655396694899 5.35240599702681e-19 3.42688033396348e-20 1.63097786399604e-20 -3.85371944278577e-37)
(-22.4069100887315 -10.3515862333426 -3.05382292699403e-17 48.1612842764139 21.7215575933697 6.39462758182216e-17 2.62255088228847e-16 1.18250305444351e-16 3.48853387113846e-34)
(-18.2320793375541 -6.22033476786816 2.04481911866022e-17 54.2472810660425 17.7749476494524 2.99157649414572e-19 1.40950784577411e-16 4.6173344213163e-17 1.79527064964505e-36)
(-11.3582141640267 -2.61725976712036 -3.41640013382357e-18 52.1366572682341 11.1192992840592 7.18014445075606e-18 3.65825970606164e-20 9.46655997577046e-21 -4.18655345324678e-38)
(-5.38187633413324 -0.77951467902835 4.67370378995794e-18 43.6611516395683 5.29491584352228 -2.60278716527696e-17 1.17007235957597e-20 9.7421982123464e-22 -2.23616201880224e-38)
(-1.83428167989655 -0.163518453034978 2.31977845281674e-18 33.695641718982 1.79157825140059 -1.16313870630329e-17 -3.47076027955877e-21 -7.42298996731057e-22 1.5433725904349e-38)
(-0.257680881576995 -0.0265117250297374 8.1116143756406e-19 24.1047886397396 0.288410048317646 -2.54472444542926e-20 2.05634938433425e-21 -1.4010259830408e-22 6.85756500084893e-39)
(-0.049313481436604 -0.00164430457620368 -5.50845547314399e-23 20.1674830216597 0.00208240781415341 -2.53535133939167e-21 -3.00918827971544e-21 -2.45122514217586e-24 5.15237544044765e-43)
(0.0760246315495061 -0.0069981315478312 1.86975544485276e-22 22.3206016079131 -0.0320912534896057 -2.96255242550899e-23 9.41202740004916e-21 -3.338919326352e-23 5.06614431110622e-43)
(0.0929061385030212 -0.0386762317596509 -2.75751735737097e-21 22.8743144207452 -0.138960549741645 1.28481940604489e-21 -2.2696338833828e-20 1.04127759857725e-22 -1.65059410530253e-42)
(0.645109234286285 -0.098721531569576 9.77924539651462e-19 22.5863601449877 -0.616156598354995 4.4484707743388e-18 1.39198241103521e-17 -3.79074346742841e-19 2.73367508749977e-36)
(1.28978268597463 -0.159024035046971 9.05793004157823e-19 18.7497753191575 -1.27554965348904 8.06252917213778e-18 -1.91471482198784e-17 1.79694542973517e-18 -3.44355260588379e-36)
(1.2779629838249 -0.137252109920681 -6.57955205263236e-18 10.7880845552771 -1.23102420140717 -1.7066690188526e-19 0 0 0)
(-0.0334115009102077 0.231757731447974 1.6514493527573e-17 1.97411883928401 0.0913533936809153 1.36491167095002e-16 4.57306424964865e-20 2.21246017788135e-18 1.69443823436742e-34)
(-1.7080785441054 0.970683413322663 -1.27348763631926e-16 -3.15699549999619 1.7777391597967 -2.50128099142553e-16 -7.30849963912644e-17 3.56287728527277e-17 -2.54043645826338e-33)
(-2.34829390613295 1.43392058028326 -4.6447649813415e-17 -4.09320922678229 2.40382202286943 -1.32025879296078e-16 -2.83025587250972e-17 1.60903886754897e-17 -3.33078267552912e-34)
(-2.34055389225051 1.59076530460234 -2.35349598212825e-17 -3.61547938389682 2.38703773086152 -3.13763462966131e-19 9.49387389107489e-21 -5.85285057369832e-21 2.60552424272213e-37)
(-2.17362387646439 1.60561436437125 1.36197220175896e-16 -3.04862018592413 2.20906797702133 1.83356059119816e-16 -5.9907233418833e-17 4.33314813674374e-17 -3.62703157733501e-33)
(-1.93501529339321 1.51653656470963 -9.4041438607983e-17 -2.53862234170756 1.96406699444374 -2.00524934524508e-16 1.59536460490841e-17 -1.23420888144836e-17 1.26282534902705e-33)
(-1.70058539347075 1.38624479750341 6.00850734763136e-18 -2.13098972563319 1.72310368427917 7.29117156368832e-18 1.44151826501884e-17 -1.1664744290334e-17 -1.27649452755245e-33)
(-1.47484777325881 1.22801294395275 -3.4084840390122e-16 -1.79991020113119 1.49260827131449 -3.44431358869249e-16 0 0 0)
(-1.27019822439657 1.06272798433115 -1.2582889483145e-16 -1.53447243370182 1.28332405254306 -1.46841843360918e-16 -1.02462221915439e-17 8.60105327854334e-18 -4.29409923219754e-34)
(-1.0925005123172 0.906128155220878 3.27431973956954e-16 -1.32472217842225 1.10155062571998 3.56273222653178e-16 -8.552991298078e-18 7.11184483724268e-18 2.3044052213377e-33)
(-0.956306953260003 0.781401315865619 -5.13579614925213e-16 -1.17348401847255 0.962547861614967 -5.81670110821662e-16 7.52426670553689e-18 -6.17137485952149e-18 3.73495250120615e-33)
(-0.861473074781212 0.694571470678353 1.13274232732476e-16 -1.06936357254132 0.86530566315652 1.38731788898152e-16 -1.35730631424818e-17 1.10093585227306e-17 -1.42875750166531e-33)
(-0.797866612577261 0.636553501961271 -2.52958151057762e-18 -0.999588459714829 0.799889567929097 3.58798322263247e-19 0 0 0)
(-0.763474323753717 0.604904305940666 3.22329183884904e-16 -0.962113501212902 0.76407116609331 4.49376969801249e-16 -1.1945748624184e-17 9.49917532335639e-18 1.42783629588757e-33)
(-0.755553517942557 0.596210205411623 8.35965212519588e-17 -0.955129980868689 0.755026983784788 6.7919875968261e-17 -1.17978409370741e-17 9.32641699334492e-18 -2.47927354769758e-35)
(-0.771722336221354 0.607892510565988 -1.13585116479229e-16 -0.976731503242517 0.770413351318109 -2.33408157637394e-16 8.54043309441873e-21 -6.73000617166044e-21 1.36449935638002e-36)
(-0.809139405234792 0.636980981854097 -5.20801947445443e-17 -1.0244255545419 0.807371281117149 -6.89365907032582e-17 6.17085841289923e-18 -4.83142504166659e-18 -4.49392860462035e-34)
(-0.862284803201103 0.678233548097235 -3.29821722101484e-16 -1.0929243449069 0.860725072464811 -3.85273460602286e-16 6.81868476985324e-18 -5.36956853379085e-18 2.40370140722109e-33)
(-0.921464261233473 0.721963398742089 7.16975294107826e-17 -1.17166292665129 0.920168666648826 -4.35050993412987e-18 -2.00826166344967e-20 1.56434759330549e-20 2.04347504659058e-40)
(-0.976215065038035 0.756242911917385 -7.87385960688379e-17 -1.25351932618744 0.975509384559439 -5.53504545334674e-17 2.30185865420116e-17 -1.77673204879839e-17 -3.3633895406543e-33)
(-1.02194319432538 0.775729757347618 1.77304444066342e-16 -1.33637341839279 1.02189761477153 3.9090119912265e-16 -1.6346944054001e-17 1.24180096190019e-17 -3.5493132090592e-35)
(-1.05346709945661 0.77587637019764 1.98729462680551e-16 -1.41609629569351 1.05410491273511 2.23474522534737e-16 -1.71988546368782e-17 1.27172371893757e-17 -4.58693674646992e-35)
(-1.06615257163355 0.753455183347384 1.51896711090014e-16 -1.48839018881433 1.06735126886007 1.61616074808865e-16 0 0 0)
(-1.05628125789017 0.707105449444813 -2.73412290735007e-16 -1.54939984915035 1.05782354326133 -4.0833913735812e-16 0 0 0)
(-1.02202773332505 0.63827826798215 4.24999103232519e-19 -1.59639085264424 1.02349500569416 6.7082881419601e-19 0 0 0)
(-0.965405375414957 0.552635643001317 -4.21934811297967e-17 -1.62998699896378 0.966054691130738 2.04106386307999e-18 0 0 0)
(-0.892047245897453 0.459539844466069 2.25277537931198e-16 -1.6558943300989 0.892193913583045 5.0485962435068e-16 -1.821078118048e-17 9.80341534848734e-18 1.35304343614711e-33)
(-0.80830311958521 0.367979428027796 -1.19820995878844e-17 -1.67559388993528 0.807631192246445 -2.01318573942135e-16 -8.65838810705733e-18 4.19128471063702e-18 -4.20327356025069e-34)
(-0.71489317705747 0.281068483371487 -6.67441174322622e-17 -1.68506825376223 0.713531281774177 -2.58634245438304e-16 1.73826441626108e-17 -7.39044505616008e-18 -8.09817353448902e-35)
(-0.615154036856703 0.202536940957917 1.5825065537815e-18 -1.68499559014245 0.613169398671749 -1.08029316450251e-18 4.716210554934e-20 -1.59615459601528e-20 -5.9092771457575e-36)
(-0.51346653856873 0.13554428403377 4.51918468317101e-17 -1.67989495891191 0.511036781947929 7.08150573285405e-17 1.18462121799268e-17 -3.6517807849298e-18 -6.16006767538913e-34)
(-0.415398926269496 0.0821872068174875 -1.37857893479229e-16 -1.68027525242712 0.412580130885005 -3.74689306996235e-16 7.77018727833268e-18 -1.92631389659897e-18 3.45424065612131e-34)
(-0.324486930866495 0.0421514459305103 -4.56968838262665e-15 -1.70446800850181 0.322127149012402 7.36705907357463e-18 0 0 0)
(-0.241939929985405 0.0144507477883707 -7.26472446256504e-15 -1.77819574252434 0.241240547539335 -2.16252879481736e-14 -6.85756983958325e-16 9.06679620678082e-17 -4.69517413750131e-30)
(-0.189543730517611 0.00014682142065895 2.97008668899331e-15 -1.97118588489293 0.181420138740135 -2.27254813994649e-14 -7.03796861685641e-16 5.39939344187053e-17 -3.70608046021713e-30)
(-0.144590159326956 -0.00476302074332486 4.40052921501757e-15 -2.40531941843776 0.148042074031683 -2.20558385338843e-16 8.48383919899037e-20 -2.7507810740851e-21 -2.87298885699911e-34)
(-0.136676141432907 -0.00228523958948583 -4.99089712686851e-19 -2.97759817831748 0.131088552000255 5.39452959008735e-19 3.32628797222453e-20 -1.05956152785073e-21 -3.78935859771026e-38)
(-0.122068642263535 -0.00101675801085199 -8.13305912162071e-20 -3.47074233274287 0.11978630322466 4.85381462608134e-19 0 0 0)
(-0.111734025571544 -0.00111952488513662 -1.71654927479635e-33 -3.91276880164264 0.108099820592353 -6.76999682463726e-20 0 0 0)
(-0.0997952939595585 -0.00113108244595293 1.05331030609624e-34 -4.29611284172167 0.0965451313625705 -8.63280430699365e-19 0 0 0)
(-0.0890233807461402 -0.00110353271580592 4.60269259439737e-15 -4.63081558525213 0.0855551576467449 -1.63090667474839e-16 0 0 0)
(-0.0789272439883179 -0.0010184275311312 4.55899161565314e-15 -4.92119406896024 0.0755946019773183 2.49246928536929e-14 2.88196829350351e-15 -1.96985292659744e-17 -4.02910304639204e-30)
(-0.0699797901969579 -0.000924451812424829 -4.60269259439798e-15 -5.17392174688558 0.0667076701390347 2.56252218617821e-14 3.03858775124813e-15 -1.74183087532044e-17 -3.28171955128397e-30)
(-0.0619999098315412 -0.000826866090131822 -4.55903072618365e-15 -5.39386116372814 0.0588806056380388 1.38647074892496e-16 0 0 0)
(-0.0549618172077332 -0.000737517698410157 3.88312707548754e-20 -5.58560288881885 0.0520026791604305 -1.05034975295075e-20 -4.35675306969785e-20 1.98014543255987e-22 -9.11593538546645e-42)
(-0.0487263353617303 -0.000657179873942737 7.89637543667705e-20 -5.75281644364222 0.0459622282917985 2.19923012517628e-19 4.35675306974153e-20 -1.98014543257567e-22 9.11593538221072e-42)
(-0.043197958766069 -0.000587004158837929 4.59067018689853e-15 -5.89866362436671 0.0406449051281638 -9.34122707219273e-17 4.65682364954304e-20 -1.57400358758615e-22 -1.49856867417987e-34)
(-0.0382762522801047 -0.000525681885323159 4.62649684025834e-15 -6.02577314033488 0.0359531795063333 2.58344628449207e-14 3.64246332963734e-15 -9.89302866189682e-18 -3.29075683198755e-30)
(-0.033885023146091 -0.000471942445857973 -4.59070901816935e-15 -6.13640676895939 0.0318052516773918 2.65461706127394e-14 3.70832029091991e-15 -8.75638163186588e-18 -2.9450324534091e-30)
(-0.029961636966272 -0.000424089242976683 -4.62653669348199e-15 -6.23252193070263 0.0281371440906968 7.04537565479159e-17 0 0 0)
(-0.0264612601910635 -0.000380519704487319 0 -6.31586144528619 0.0249011218603604 0 0 0 0)
(-0.0233532856851657 -0.000339657349374748 1.08874770757063e-20 -6.38801152707381 0.0220644902128251 5.87189804594917e-20 0 0 0)
(-0.0206206672319877 -0.000300069090304662 -1.0857500530682e-20 -6.45045657803639 0.0196078308027399 -1.17647951629742e-19 1.30502727323272e-20 -1.94217270193818e-23 -2.44632807150635e-43)