/*--------------------------------*- C++ -*----------------------------------*\
  =========                 |
  \\      /  F ield         | OpenFOAM: The Open Source CFD Toolbox
   \\    /   O peration     | Website:  https://openfoam.org
    \\  /    A nd           | Version:  7
     \\/     M anipulation  |
\*---------------------------------------------------------------------------*/
FoamFile
{
    version     2.0;
    format      ascii;
    class       volScalarField;
    location    "20000";
    object      k;
}
// * * * * * * * * * * * * * * * * * * * * * * * * * * * * * * * * * * * * * //

dimensions      [0 2 -2 0 0 0 0];

internalField   nonuniform List<scalar> 
15600
(
4.36342758434757e-06
4.63796814845035e-06
3.73395266029045e-06
2.53983080006579e-06
1.40123865561131e-06
6.34513577652698e-07
2.39260061730384e-07
1.33652639423558e-07
1.096064577896e-07
7.95408463132621e-08
4.99461466159125e-08
3.16931610938426e-08
2.18798751081368e-08
1.62107935080138e-08
1.28187637167289e-08
1.09677750643019e-08
1.02803677137521e-08
1.03950393739872e-08
1.12058392168702e-08
1.26613593813522e-08
1.48609611850453e-08
1.79653016139703e-08
2.21608632025571e-08
2.76012135616381e-08
3.44143952105696e-08
4.284235113344e-08
5.30793615617808e-08
6.52041888526116e-08
7.9152198691438e-08
9.46818718238639e-08
1.1142446905367e-07
1.29129298254171e-07
1.47632432216105e-07
1.66017089958872e-07
1.83254454231628e-07
1.97836240419043e-07
2.08941110247673e-07
2.17647503560807e-07
2.28424987003817e-07
2.47130881287989e-07
2.88004133896409e-07
3.73206925969578e-07
4.70439452405193e-07
5.73404557253215e-07
6.79853991281209e-07
7.88477278334157e-07
8.97582323529021e-07
1.00631966066242e-06
1.11381433589993e-06
1.21954889645372e-06
1.32302885130031e-06
1.42389810793477e-06
1.52182380108563e-06
1.61653349989003e-06
1.70778420246182e-06
1.79538250289799e-06
1.87918819188938e-06
1.95913612390466e-06
2.03525585858522e-06
2.10769764873505e-06
2.17675754345932e-06
2.24290219976603e-06
2.30679106979861e-06
2.36929658587796e-06
2.43152249598606e-06
2.49482272253806e-06
2.56082376717967e-06
2.63145425068981e-06
2.70898639034944e-06
2.79609242829478e-06
2.8959202861376e-06
3.01219721937364e-06
3.14934907921701e-06
3.31263449196847e-06
3.50846903166181e-06
3.74492942206983e-06
4.03280951023732e-06
4.40147596091594e-06
4.88468398793452e-06
5.22226660596539e-06
4.47367282347835e-06
4.060028375574e-06
3.92480539694778e-06
3.92309855690564e-06
4.00087699314895e-06
4.12928202919093e-06
4.2906008417675e-06
4.47270402317748e-06
4.66442156871172e-06
4.87689742700015e-06
5.16935538360311e-06
5.5307814463239e-06
5.93416077919404e-06
6.35993949068261e-06
6.79462171613391e-06
7.22265607472086e-06
7.62924227423447e-06
7.9519467273908e-06
8.12517887868121e-06
8.16828713387089e-06
8.11784234741322e-06
8.00971106874222e-06
7.87668799091306e-06
7.77837833181281e-06
7.73863367459101e-06
7.91188563031947e-06
8.32385115630568e-06
8.95712504398275e-06
9.87088379892295e-06
1.11484983855118e-05
1.29194159660373e-05
1.52679677208675e-05
1.77600353228235e-05
1.90441008837181e-05
1.56339857077455e-05
1.21675062105438e-05
8.98117554634519e-06
6.55493875656922e-06
4.92218365870585e-06
4.47846537203426e-06
0.000140773443783128
0.000148809478810052
0.000120605416683518
8.22281919638334e-05
4.56694400515518e-05
2.09420431118532e-05
7.99846144895096e-06
4.40487089295719e-06
3.58825500774609e-06
2.62683825194065e-06
1.66339832113059e-06
1.05632075603885e-06
7.26863489648497e-07
5.36744114709616e-07
4.22803682126978e-07
3.5988190804755e-07
3.35452075434862e-07
3.37607150097728e-07
3.62553612134016e-07
4.08379309144173e-07
4.7810538887348e-07
5.76831700923432e-07
7.1060801337168e-07
8.84586560883591e-07
1.10292293830784e-06
1.37340711985708e-06
1.702582710816e-06
2.09341509577662e-06
2.5442988958423e-06
3.04789331219392e-06
3.59229345886193e-06
4.16866214141616e-06
4.77138091982551e-06
5.36920082662689e-06
5.93086092787539e-06
6.40773838782545e-06
6.77314892617216e-06
7.06248158215418e-06
7.42127400674665e-06
8.02992174860395e-06
9.34879985068986e-06
1.20938804883136e-05
1.52341226217203e-05
1.85619008370521e-05
2.20014210651693e-05
2.55105362975635e-05
2.9034557551056e-05
3.25461985737782e-05
3.60172254824786e-05
3.94310171881174e-05
4.2771648944986e-05
4.60276880331405e-05
4.91884361248416e-05
5.22451518080631e-05
5.51900358603797e-05
5.80168869418238e-05
6.07212116245819e-05
6.33009291931031e-05
6.5757001449624e-05
6.80942689004463e-05
7.03222578701462e-05
7.24559787754336e-05
7.45166395359263e-05
7.65322942357368e-05
7.85384311122454e-05
8.05785757923886e-05
8.27050064455441e-05
8.49796954081198e-05
8.74756316055498e-05
9.02786193697146e-05
9.34896888048188e-05
9.72284074499912e-05
0.000101636692081137
0.000106883032662324
0.00011317286178573
0.000120764744846684
0.000129998627224803
0.000141819925850549
0.000156133061022184
0.000163913400367704
0.000142230989943718
0.000130255291531695
0.000126508030181289
0.000126814918596674
0.00012956210167151
0.00013386562371456
0.000139176986525784
0.000145117180434102
0.000151400649782522
0.000158488615465699
0.000168090216033684
0.000179773746830172
0.000192695149329254
0.000206257413976252
0.000220037825474575
0.000233546208693917
0.000246240651468568
0.000256161693157353
0.000261409356787337
0.000262663524431422
0.000261063406913518
0.000257697497771024
0.000253632614769768
0.000250715089841598
0.000249812173644646
0.000255665872121756
0.000268981044682388
0.000289253621064597
0.000318288812343101
0.000358551830562089
0.000413702326037067
0.000485531143212419
0.000560377147103413
0.000598749680224955
0.00049901391829638
0.00038867174231026
0.000287761112811391
0.000210822660197543
0.00015885596756502
0.000144809665972531
0.00100870721683932
0.00105064127740539
0.000867052162048847
0.000596059801518874
0.000334861811852708
0.000156534845400436
6.05383949711255e-05
3.27575931496158e-05
2.64296972642336e-05
1.95287131688119e-05
1.24853882160937e-05
7.94565520136822e-06
5.45551171033872e-06
4.01824740990466e-06
3.15556811049735e-06
2.67385614552345e-06
2.47919131736996e-06
2.4840087714675e-06
2.65707176123291e-06
2.98298096146742e-06
3.48258459623803e-06
4.19232508096453e-06
5.156440717629e-06
6.41422659270917e-06
7.99661681504393e-06
9.95981122438108e-06
1.2353076944314e-05
1.52009001538016e-05
1.84948883233661e-05
2.21846367497833e-05
2.61830561818936e-05
3.04190835013691e-05
3.48528766574921e-05
3.92214720168344e-05
4.32966644250923e-05
4.67765923502567e-05
4.95008376537914e-05
5.1764900312717e-05
5.44526541809512e-05
5.89061987874281e-05
6.84699181726252e-05
8.81963141221926e-05
0.000110793823537704
0.000134691181243302
0.00015931296450164
0.000184357045214077
0.000209435277149216
0.00023436042418988
0.000258936539930415
0.000283053131524327
0.000306603177081168
0.000329512604740072
0.00035171178237813
0.000373145135729776
0.000393763220510069
0.000413527576810363
0.000432411127768532
0.000450403060474715
0.000467512979240975
0.000483776591281096
0.000499261133584806
0.000514070767894624
0.000528351371726723
0.000542294870292244
0.000556143069669151
0.000570191469477701
0.000584793663106035
0.000600367010096482
0.000617400568110291
0.000636465791839845
0.000658230514211006
0.000683477646529262
0.000713125812624612
0.000748248921539048
0.000790117085690195
0.000840240324621157
0.000900290946457231
0.000972498652609589
0.00104112242290308
0.00105898588804716
0.000948655980498456
0.000891395944331516
0.000876718960077836
0.000885043462706918
0.000907640448275492
0.000939546032517702
0.000977577860439845
0.00101962841904983
0.0010647239392699
0.00111644237054117
0.00118360701815145
0.00126296591396476
0.00134947969843092
0.00143958765136961
0.00153062892695887
0.00161947256764109
0.00170210294403067
0.00176660397126281
0.00180242990633112
0.00181391932385522
0.00180778498184664
0.00179022814109623
0.00176835738658882
0.0017534561964107
0.00175203056016304
0.00179291642797311
0.00188099117576765
0.00201322677776399
0.00219913083534813
0.00245091556535604
0.00278475862943959
0.00320231171945405
0.00362199741775889
0.00385120729706142
0.00337882615844732
0.00266109824496657
0.00199739587846074
0.00148607510125062
0.00113561641064634
0.00104023876494659
0.00342529338806091
0.00348954475476926
0.00297071761264777
0.00211309266372622
0.00123350045046469
0.000601705091241379
0.000239292000324292
0.000126265790966254
0.000100008004591023
7.45940392589844e-05
4.82045090434311e-05
3.07722304128037e-05
2.1093910408078e-05
1.55008261240081e-05
1.21393100384986e-05
1.02431820157664e-05
9.44825420108883e-06
9.42537109254905e-06
1.00384737005189e-05
1.12282938837753e-05
1.30675630096433e-05
1.56887899089997e-05
1.92560623763872e-05
2.3919373794104e-05
2.97934927370347e-05
3.70807779250619e-05
4.59628816708662e-05
5.65318089048168e-05
6.87572156248267e-05
8.24516290058347e-05
9.72844309977851e-05
0.000112970421856898
0.000129357481083257
0.000145529234601179
0.000160314299956033
0.000172986021508877
0.000183322168096415
0.000192218774507864
0.000202152090674884
0.000218588365755957
0.000253173684884281
0.000322196882287935
0.000400155039330518
0.00048140249727548
0.000563787871231158
0.000646399358326019
0.00072800705322948
0.000808139265485985
0.000886257275573473
0.000962132588739347
0.00103552499632414
0.0011063071676058
0.00117435354946823
0.00123958139143144
0.0013019188859798
0.00136132302443984
0.0014177777676654
0.00147130864394222
0.00152199317555157
0.00156997655327582
0.00161548595749813
0.00165884501095658
0.00170048635688023
0.001740962856456
0.00178095669226955
0.00182128732422516
0.00186291949402075
0.00190697214797652
0.00195473016669094
0.00200765831550489
0.00206741418540444
0.0021358581168591
0.0022150433038403
0.00230714926264856
0.00241433556690782
0.00253840253461005
0.00267990607641183
0.00282092366495687
0.00292836262596712
0.00292360163155414
0.00273027692329024
0.00264740994487549
0.00264609852166341
0.00269586167201799
0.0027789855225639
0.00288548296097977
0.00300868550846067
0.00314463294999841
0.00329281626418687
0.00346213198892934
0.00366834015846019
0.00390248271761488
0.00415318005933553
0.00441208387226796
0.00467245457387863
0.00492625639395567
0.00516234993265163
0.00535369153790223
0.00547913305606044
0.00554841679787171
0.00557564582479682
0.0055733677907028
0.00555962789817155
0.00556092590161092
0.00559677026060141
0.00573685979714098
0.00599557020844256
0.00636381204725118
0.00685663208872232
0.00749004992902039
0.00827859220740215
0.00919646758574711
0.0100507203804404
0.0105094338213236
0.00964986146777546
0.00793066714561514
0.00617459463312566
0.0047756858766421
0.00378750500393775
0.00351570595168009
0.00703927450932414
0.00705833628800348
0.00624442686218688
0.00473666011347965
0.00298626312917823
0.00158144168295661
0.000683725116944982
0.00034699324173552
0.000267925916339878
0.000201568181974595
0.000131857629513038
8.45306397469041e-05
5.78843166573718e-05
4.24482811787447e-05
3.31599000433568e-05
2.78717068965838e-05
2.55770324559446e-05
2.54052338531545e-05
2.69233800547485e-05
2.99881516680409e-05
3.47692754174385e-05
4.15990702319036e-05
5.08937265640318e-05
6.30342930571837e-05
7.82943418036776e-05
9.71482646692745e-05
0.00012001016186582
0.000147049465095784
0.000178104171515325
0.000212602037313603
0.00024961238088485
0.000288324526611528
0.000328294446605364
0.000367391627202836
0.000403137760141135
0.000433704015193657
0.000458741272266059
0.000480446156307329
0.000505110055426827
0.000545219381422376
0.000625678803422123
0.000776761974440698
0.000941447578662197
0.00110847401802279
0.00127303033138171
0.00143425113454082
0.00159014474138802
0.00174051261694057
0.00188477438573747
0.00202298765485156
0.0021550651256141
0.00228111223950331
0.00240117638892243
0.00251535690286143
0.00262373764797798
0.00272642997092066
0.00282356722221764
0.00291533257325288
0.00300197523914641
0.00308383626181656
0.00316137064474362
0.00323516983732213
0.00330598067251808
0.00337472170150779
0.00344249424806476
0.00351058863026311
0.00358048654254976
0.00365385812485265
0.0037325550121475
0.00381859446645522
0.00391411893538526
0.00402131790719504
0.00414227131186887
0.00427862914952525
0.00443100710841996
0.00459776791665327
0.0047711825392978
0.00492198070289574
0.00501498969297909
0.00498197917320701
0.00479250769860879
0.00474122145667461
0.00479115833272974
0.00491210038411229
0.00508201644680914
0.0052889003077995
0.00552459997566437
0.00578492431003727
0.0060706098517594
0.00639242657048959
0.00676453840425928
0.00717360984406196
0.00760470227991994
0.00804626439348892
0.00848832903184351
0.00891902974971437
0.00932164993586496
0.00966267396151945
0.00992045581307221
0.0101081305158108
0.0102431395856211
0.0103400113615092
0.0104247009805608
0.010532348925633
0.0106935446183329
0.0109989156226498
0.0114671389275917
0.0120809885463112
0.0128486508753802
0.0137746158326186
0.014852728433733
0.0160232686771564
0.0170380018667393
0.0175452684151534
0.0165612318737399
0.0143044611224577
0.0116555778274742
0.00939473750711215
0.00772316172611245
0.00722067974267511
0.0106768932851222
0.0105725542530176
0.00962906881294935
0.00778996766035428
0.00535903440470079
0.00314958066573613
0.00155256512450126
0.000780051500179886
0.000581757893652444
0.000440451944447923
0.000292441905919735
0.000188674180627799
0.000129211752460785
9.4611547677282e-05
7.37562507443464e-05
6.17737327039353e-05
5.63951963949558e-05
5.57473435341883e-05
5.87415396530534e-05
6.50925703474385e-05
7.50975090494257e-05
8.93950696635968e-05
0.000108782257952936
0.000133955071365497
0.000165328068357148
0.000203639061946348
0.0002494297860114
0.000302668750036565
0.000362605633762877
0.000427704458729383
0.000495877619448032
0.000565444429837365
0.000635541272476318
0.000702775102034037
0.000763659846783717
0.000816026786400434
0.000860181864090486
0.00090051925269118
0.0009477202743036
0.00102213845533537
0.00116012148800357
0.00139830733085466
0.00164858446789222
0.00189685599004492
0.00213561437314764
0.00236555460018072
0.00258450657834333
0.00279320454996976
0.00299140520922739
0.00317974271066144
0.00335848416523677
0.00352810794207654
0.00368894275677408
0.00384134799824657
0.0039856264481271
0.00412209066637524
0.00425105840041115
0.00437289080542891
0.00448801324835166
0.0045969472903703
0.00470033717495601
0.00479897625280255
0.00489382814975781
0.00498604401503899
0.0050769703354932
0.00516814620892277
0.00526129133664444
0.00535827883252384
0.00546109431113982
0.00557177491977047
0.00569229888991336
0.00582440895507567
0.00596932110928982
0.00612723542882683
0.00629654746725036
0.00647285745785634
0.00663865062089014
0.00677201543712813
0.00684044100541723
0.00679762213140014
0.00664947394718135
0.00664614370218745
0.00675481753418309
0.00694619313143109
0.00719727177394511
0.00749542344416
0.00783221906997238
0.00820379248340985
0.00861152761230642
0.00906510548896234
0.00957372341782598
0.0101221624039292
0.0106942762700868
0.0112769824025023
0.0118584322547051
0.0124245927612262
0.012955869837165
0.0134187507346256
0.0137958977293853
0.0141023199147574
0.014356376414513
0.0145722874945063
0.0147831691382469
0.0150259959377343
0.0153374624733561
0.0158080518962577
0.0164539732891286
0.0172514483305276
0.0181983422211655
0.0192862880151605
0.0204917523211047
0.0217340567792983
0.0227592140285832
0.0232254975897952
0.0222538080170999
0.0199402241808232
0.0169251643044266
0.014120078046341
0.0118765277611519
0.0110389516568634
0.0139416677396319
0.0136525963684853
0.0126378712615133
0.0106998992959091
0.0079280796423941
0.00510100101740033
0.00289035309439896
0.00152558078425904
0.00109070513376052
0.000826930562355226
0.000559631827389638
0.000364791538686643
0.000250412401599147
0.000183305214411165
0.000142720764783716
0.000119167307675141
0.000108215018365793
0.000106357246595753
0.000111296712162658
0.000122504881654333
0.000140354168526568
0.000165798716630237
0.000199999836798421
0.000243833166828227
0.000297541041469343
0.000361738621840732
0.000436551640636687
0.000521061897003073
0.000613245542268037
0.00071015146601213
0.000808535116748157
0.000906239050833454
0.00100247096691312
0.00109359353170697
0.00117640406704459
0.00124962261529999
0.00131512252801283
0.00137973967454313
0.0014580050679608
0.00157586739693058
0.00177424239649183
0.00208619712362791
0.00240557369098116
0.00271767025129162
0.00301321041231905
0.00329489348472847
0.00356084223269145
0.00381276811393841
0.00405089268828587
0.00427636235659
0.00448978883634982
0.00469195308280188
0.00488342173906665
0.00506475775260141
0.00523643849627918
0.0053989317194605
0.005552696693932
0.00569822661316697
0.00583607268069254
0.00596687809198739
0.00609140607935159
0.006210566977789
0.00632543843486651
0.00643728103882517
0.00654754059297749
0.00665783345009778
0.00676991867345006
0.00688564502509714
0.00700687640695189
0.00713539524711079
0.00727274057748359
0.00741997193429093
0.00757731502646619
0.00774363408711851
0.00791560382526473
0.00808573650818137
0.00823719118467236
0.00835227704316134
0.00840515952301025
0.00836682364868791
0.00826368910117887
0.00830524098933163
0.00846638629403401
0.00871762592420502
0.00903632133171178
0.00940946684328858
0.00982864186117557
0.0102901490348925
0.0107953295880061
0.011351933102042
0.0119647791485689
0.0126180934132862
0.0132953602338753
0.0139826751559937
0.0146670004770962
0.0153330023876903
0.0159597101215445
0.016515434039418
0.016987027232998
0.017390491327311
0.0177429347087762
0.01806013786968
0.0183805240288488
0.018740493582506
0.0191799002024804
0.0197823124941401
0.020560363731349
0.0214862831452295
0.0225492210771977
0.0237303541800466
0.024993783343609
0.026244087222697
0.0272356914896859
0.0276331563411059
0.0266828028656531
0.0244606941020595
0.0214192884355359
0.0183993206044955
0.0157786887791487
0.0145621627884967
0.0168716577432365
0.0163704929129113
0.0152814522731459
0.0133069710029627
0.0104486790157489
0.00719166655158434
0.00454351753214509
0.00266023646132601
0.00181798580878986
0.00137341239834079
0.000951580144627906
0.000630278714378961
0.000435275932219563
0.000319235980079041
0.000248599335174195
0.000207098996041756
0.000187043095220654
0.000182534788545086
0.000189386781505256
0.000206629128053181
0.000234482505011017
0.000273999974743913
0.000326401201197008
0.000392273745055377
0.000471081748541148
0.000562686054999732
0.000666178877793256
0.00077933751595428
0.000898862367886233
0.00102092916752419
0.00114209500852611
0.00126064328059926
0.0013764358021752
0.00148652166310619
0.00158875060089334
0.00168320487283632
0.00177347664696608
0.00186854347020424
0.00198558059566477
0.00215280630122179
0.00240944606503993
0.00277963615434971
0.00315213684038286
0.0035119236380329
0.00384988018451465
0.00417016677663699
0.00447155682196827
0.00475639143149186
0.00502531675807175
0.00527977613038795
0.00552062598402581
0.00574882119368781
0.00596508298943878
0.00617009775968914
0.00636445622972065
0.0065487257157743
0.00672345838234138
0.00688923247973775
0.00704667804252102
0.00719650978895026
0.00733955472601578
0.00747677795219474
0.00760929987528948
0.00773840958250923
0.00786556192553223
0.00799235072814869
0.00812046818051918
0.00825162969445078
0.00838747095189985
0.00852943216424033
0.00867856793944767
0.00883529125672416
0.00899901420796293
0.00916768182480818
0.0093372675496617
0.00949727485428878
0.00963580511554389
0.00973786658857826
0.0097840845217176
0.00975688207936853
0.00969377395633408
0.00977418800549687
0.00997991835493693
0.0102811322030039
0.0106558631561331
0.0110907545809931
0.0115773674626348
0.0121119301687719
0.0126953438426428
0.0133334460237782
0.0140278299507678
0.0147626390275516
0.0155212301545231
0.0162891553333035
0.0170525280311685
0.017795160966845
0.0184954927960866
0.0191239639695698
0.0196707090104722
0.0201521703612174
0.020581845675089
0.0209815868782695
0.0213911708114102
0.0218461388543069
0.0223877537043722
0.023091465803031
0.0239668167140478
0.0249837328870401
0.0261245838680481
0.0273620021520016
0.0286506716717618
0.0298834147116537
0.0308248908844927
0.0311428151656552
0.0301927813639472
0.0280669319980439
0.025120213573979
0.0220828585730562
0.019294538715825
0.0177603761747036
0.0195235790403747
0.0188101663705398
0.0176474490875621
0.0156367604938385
0.0128337323263611
0.00928310357735155
0.00634219059808756
0.00411835697604211
0.00274833365319879
0.00205983917702456
0.00146183503533663
0.000989004122739617
0.000690117360100767
0.000508585536695365
0.000396915742983658
0.000330299715421463
0.000296720033826193
0.000287140426569789
0.00029491253801498
0.000318286171429221
0.000356908968763114
0.000411481421173831
0.0004827498910659
0.000570426255136013
0.000672706043560479
0.000788358513280704
0.000915365213221668
0.00105052928310639
0.00119000133616702
0.00133002103575041
0.00146776861283091
0.00160238539615005
0.00173448190194328
0.00186206693166717
0.00198413397415465
0.0021020671574407
0.00222093479731129
0.00235125749938315
0.00251137902665773
0.0027288656083654
0.00303778626740009
0.00345278065798537
0.00386604170562861
0.00426188376931742
0.00463283455384379
0.00498354228473298
0.00531353407423905
0.00562536288801863
0.00591999410380375
0.00619897891203698
0.00646332475202126
0.00671406565231085
0.00695201508982105
0.00717792886983929
0.0073924693318061
0.00759626682100538
0.00778993397959695
0.00797410293709715
0.0081494510809432
0.00831673113128645
0.00847679700027217
0.00863062766488587
0.00877933997546572
0.00892420031481976
0.0090666185578467
0.00920810974341136
0.00935024582988392
0.00949456374264404
0.00964243820961346
0.00979496363073086
0.00995275384139776
0.0101156953787794
0.0102826150025819
0.0104508898408423
0.0106154402491393
0.0107666588745402
0.0108952376323582
0.0109892640727726
0.0110345359735133
0.0110207910889713
0.0109919170121264
0.0111058064096142
0.0113493270703904
0.0116927446461736
0.0121146999779151
0.0126015075210082
0.0131446118879252
0.0137399869697785
0.0143879107450917
0.0150925432808262
0.0158531403915975
0.0166538802999251
0.0174780577626752
0.0183108076534466
0.0191375891221702
0.0199416319524444
0.0207012335827699
0.0213889026846359
0.0219972952844747
0.0225421339947249
0.0230339201139475
0.0235021006502299
0.0239852554760203
0.0245181108598549
0.0251421554339054
0.0259249509770381
0.0268734090376821
0.0279560059405185
0.0291497114153104
0.0304198791411837
0.0317135684314603
0.0329140556113222
0.0337952722072682
0.0340279659634889
0.0330585538187108
0.0310055749614893
0.0281750411092188
0.0252033064147124
0.0223905842946297
0.0206393166658687
0.0219251169013899
0.021026698885658
0.0197950862264778
0.0177504446160987
0.0150517102203103
0.0113267017330965
0.0081730511744875
0.00577109724869013
0.00387761706479907
0.00285792573128992
0.00206364560493799
0.00142785692822425
0.00100955177230731
0.000749471917236731
0.000587382730240335
0.000489001410950099
0.000437196365502969
0.00041921198808558
0.000425828124299995
0.000454074546825763
0.000502536062804568
0.000571037190181204
0.00065933751238519
0.000765884045196406
0.000887512534085534
0.00102200427347594
0.00116659088764861
0.00131770935853139
0.00147164223908962
0.00162523231375706
0.00177652585246308
0.00192548464449398
0.0020733451592184
0.00221903407914136
0.00236254706030259
0.002506346335639
0.0026565790240578
0.00282455630139196
0.00302840019136735
0.0032931697953959
0.00364693280471458
0.00409676808888695
0.00454227843362462
0.00496686753112972
0.0053651939887287
0.00574162096395244
0.0060963650438069
0.00643191037980385
0.00674944136585722
0.00705050607458892
0.00733619810804536
0.00760757784735678
0.00786551249956136
0.00811079693139219
0.00834413995903061
0.00856621328008939
0.00877766973871284
0.00897917546413976
0.0091714344880311
0.00935521513837585
0.00953137322173099
0.00970087426298706
0.00986480047939865
0.0100243618424896
0.01018089031991
0.0103357899990384
0.0104904874806865
0.0106463290576315
0.0108044296835479
0.0109655685805137
0.0111299901401141
0.011297186963656
0.0114656102778315
0.0116324030814248
0.011791366655404
0.0119354532754058
0.0120568721704139
0.0121465182183954
0.0121940994380695
0.0121941348897343
0.0121945508018244
0.0123375012993008
0.0126133237089977
0.0129929144297358
0.0134553726165561
0.0139867213086848
0.0145781937938383
0.0152253960769362
0.0159279147446569
0.0166884759073699
0.0175045904021296
0.0183604630676462
0.0192393370560919
0.0201259975018396
0.0210053766060163
0.021860307295871
0.0226692252482771
0.0234065730671344
0.0240669475675511
0.024663632483384
0.0252074704046297
0.0257338408457822
0.0262791715900403
0.0268773617734933
0.0275692533351163
0.0284150374777737
0.0294192355497816
0.0305492284760922
0.0317775015753215
0.0330629985265857
0.0343464952108151
0.0355037806490163
0.0363169339615564
0.0364609160193831
0.0354582096348042
0.0334500846230066
0.0307318671133446
0.0278528813790239
0.0250902925222449
0.0232108440930352
0.0240954063596213
0.023050269350497
0.0217572078081059
0.0196979606781458
0.0170893033509706
0.0133152614280616
0.009979112244838
0.0074783051975856
0.0052105667094815
0.00375398486051697
0.00273299141639092
0.0019268967620157
0.00138014306188075
0.00103295779716774
0.00081394471520526
0.000678794538992222
0.000604651052464549
0.000574564066177016
0.000577286099307172
0.000608193259610404
0.000664414724780096
0.000744466907181765
0.00084677331142626
0.000968389224136223
0.00110497821212732
0.00125362383734877
0.00141122504817308
0.00157431000185682
0.00173964057978587
0.00190480231918137
0.00206864497356309
0.00223179512254315
0.0023959855452765
0.00256092946531032
0.00272742811882748
0.00289874055727248
0.00308163636141219
0.00328749031907791
0.00353321552719664
0.00384063746975446
0.00423249332314932
0.00471058088805305
0.00518283090846597
0.00563186142744421
0.0060542666499414
0.0064537445163146
0.00683105316523155
0.00718847362778192
0.00752732375694213
0.00784909537458633
0.0081549238225398
0.0084458687456018
0.00872282680608577
0.00898661482571491
0.00923797228350932
0.00947759874331003
0.00970617385464408
0.00992438439131237
0.0101329467931778
0.0103326294856943
0.0105242724936109
0.0107088092826007
0.010887265891262
0.0110607726230547
0.011230563566838
0.0113979133659455
0.011564093565049
0.0117302658416377
0.0118973014244196
0.0120657074343797
0.0122354330682208
0.0124056974002812
0.0125747435370745
0.0127390810185782
0.0128933467037588
0.013031850469324
0.0131483309162547
0.013236047807194
0.0132876323125212
0.013300912824637
0.0133266391685256
0.0134950307436504
0.0137987412444089
0.0142097296053628
0.0147074311168749
0.0152776199489242
0.015911245796286
0.0166034805081751
0.0173532055356459
0.018161911648363
0.019025744600755
0.0199288902288787
0.0208545308173207
0.0217871430888454
0.0227112246683525
0.023609351947537
0.0244602858499634
0.025240269528067
0.0259453550744643
0.0265842991388864
0.0271736100264219
0.0277505532685068
0.0283495512645025
0.0290035966634779
0.0297522031121884
0.030648700253977
0.0316952879318164
0.0328583418998519
0.0341064959821124
0.0353929489515902
0.0366534617325379
0.0377584149654373
0.0384973500293496
0.0385506622736045
0.0375057406611352
0.0355230006857115
0.0329048547614344
0.0301234967022641
0.0274428609962566
0.0254991291743591
0.0260542589522342
0.0249004568838561
0.0235545510850458
0.0215100853678253
0.0189518942962697
0.0152515443215243
0.0117329967182933
0.00915998892568199
0.0066907210558951
0.00476262784483855
0.00346569532120598
0.00247374295830906
0.00178991817440128
0.00134895770287081
0.00106849712727277
0.000893216524653081
0.000793742942045338
0.000748119786319698
0.000744138993992724
0.000775162549940841
0.000836641798150036
0.000925503372536637
0.00103865296130751
0.00117179722912054
0.00131969905701071
0.00147902597392886
0.00164664653952596
0.00181941668885248
0.00199467698022679
0.0021707074164191
0.00234702139237808
0.00252476840349326
0.00270607405209577
0.00289128461841652
0.00308179922832853
0.00328137934195649
0.00349698825918802
0.0037395090762413
0.00402414332997943
0.00436952610531964
0.00479420731698962
0.0052964180556904
0.00579190934544513
0.0062628975753862
0.00670742434741282
0.00712843549879976
0.00752705188408387
0.00790530990456837
0.0082645882197666
0.00860630076552541
0.00893159250039114
0.00924150816434356
0.00953695737110068
0.00981876839166253
0.0100877005574014
0.0103444721573642
0.0105897801818552
0.0108243225729468
0.0110488180558669
0.0112640242479355
0.0114707524767915
0.011669891728343
0.0118623967284846
0.0120493011507225
0.0122317299114981
0.0124108175067866
0.0125876789605499
0.0127633085276219
0.0129383547763123
0.0131130985792893
0.0132872608877446
0.0134598897040354
0.0136288906522369
0.013790731539663
0.0139411390242167
0.0140753674609276
0.0141885578050332
0.0142759013826612
0.0143322460536993
0.0143578990477385
0.0144057347657212
0.0145965474545962
0.0149245553875752
0.0153630636961629
0.0158917772712494
0.0164962621025117
0.0171671367064613
0.0178991021538788
0.0186903432682328
0.0195412625597718
0.020446881397911
0.0213913148322841
0.0223576665463193
0.0233301338786398
0.0242928522774021
0.0252282550712654
0.0261155614290995
0.0269326673633852
0.0276758898080462
0.0283502968068797
0.028980132197202
0.0296017260692051
0.0302477382661434
0.0309500961808659
0.0317464296424356
0.0326836343113925
0.03376154587511
0.0349454968188801
0.0362007596025703
0.0374753653280746
0.0387014815390571
0.0397462807228391
0.040406522010168
0.0403685368843163
0.0392762497210598
0.0373079095978064
0.0347763040540554
0.032089673858814
0.0295011324628001
0.0275352205805133
0.0278225398862384
0.0265927839404821
0.0252036446441387
0.023202315427412
0.0206618601773062
0.0171312160147231
0.0134266442994232
0.0107850384901421
0.00826309148151919
0.00592078504155819
0.00427480707399287
0.00306943169544625
0.0022348878768328
0.00169177933231888
0.0013451250188669
0.00112690378448029
0.000999472806449073
0.00093590950167808
0.000922670297595099
0.000951285380960255
0.00101547856270308
0.00111045884432334
0.00123156611782929
0.00137328290765989
0.00152971754646296
0.0016973238740753
0.00187310806241803