/*--------------------------------*- C++ -*----------------------------------*\
  =========                 |
  \\      /  F ield         | OpenFOAM: The Open Source CFD Toolbox
   \\    /   O peration     | Website:  https://openfoam.org
    \\  /    A nd           | Version:  7
     \\/     M anipulation  |
\*---------------------------------------------------------------------------*/
FoamFile
{
    version     2.0;
    format      ascii;
    class       volScalarField;
    location    "20000";
    object      k_conv;
}
// * * * * * * * * * * * * * * * * * * * * * * * * * * * * * * * * * * * * * //

dimensions      [0 2 -3 0 0 0 0];

internalField   nonuniform List<scalar> 
15600
(
-3.95774453689372e-06
-1.24692453075863e-05
-7.20966722321871e-07
-7.75321678968236e-07
-3.56542949446963e-07
8.02831954929277e-08
2.62140856287877e-08
-1.06535960304833e-07
-1.01949618866135e-07
-6.67943894356957e-08
-3.30060562729457e-08
-1.64464521401584e-08
-8.99664389111493e-09
-5.47955374625137e-09
-3.25009872896775e-09
-1.72028821855156e-09
-9.60864698391318e-10
-3.65571942449831e-10
-9.80092166780061e-11
-1.51266158109412e-10
-2.25583051238648e-10
-3.31148234530989e-10
-4.73804065976059e-10
-6.54288212264244e-10
-8.86826027328391e-10
-1.16856488778633e-09
-1.48082842404539e-09
-1.79225516128191e-09
-2.05789785427615e-09
-2.23932558286657e-09
-2.34324288684213e-09
-2.39570542638679e-09
-4.55733647500642e-09
-1.6008854812403e-08
-2.81018514685494e-08
-3.70195012834794e-08
-3.73033048503325e-08
-2.41678465615549e-08
-1.67404459536816e-09
-4.10479416342037e-09
-1.25918449548992e-08
-1.90933746276995e-08
-2.49512197302243e-08
-3.02886684388956e-08
-3.50991473518977e-08
-3.90467519773424e-08
-4.23078403159275e-08
-4.48232510716973e-08
-4.67254746396342e-08
-4.8033280963939e-08
-4.88274252623241e-08
-4.91413385307731e-08
-4.90282601930614e-08
-4.85268973020132e-08
-4.76867660026303e-08
-4.65600186447153e-08
-4.5211712777261e-08
-4.37192191646198e-08
-4.21762183307335e-08
-4.06925097327171e-08
-3.93939938513686e-08
-3.84212904918864e-08
-3.7928921795444e-08
-3.80850422922231e-08
-3.90733230124517e-08
-4.10976990401138e-08
-4.43906626995345e-08
-4.92262258983552e-08
-5.59368100494851e-08
-6.49351861303092e-08
-7.67444357001526e-08
-9.20201664846869e-08
-1.1156810958994e-07
-1.36475923931224e-07
-1.68190045506014e-07
-2.08675138471136e-07
-2.71168135756491e-07
-3.57680987020828e-07
-4.15643070281552e-06
-1.44097951259806e-05
-7.9529543177277e-06
-3.93917124358543e-06
-2.35081794520584e-06
-1.60624089973242e-06
-1.28449663903809e-06
-1.23212961957223e-06
-1.38242820067044e-06
-1.70876158726665e-06
-1.99796443503959e-06
-1.99237913552309e-06
-2.44274535349192e-06
-3.47652732970848e-06
-4.98943672493304e-06
-6.89282753299138e-06
-9.14606202835267e-06
-1.16470808665913e-05
-1.45267028188495e-05
-1.73269289348666e-05
-1.92205393527823e-05
-2.02228303680054e-05
-2.05515528330251e-05
-2.06385535982075e-05
-2.05907063095534e-05
-2.11429707732455e-05
-2.23512821532392e-05
-2.67938706510482e-05
-3.39620458834315e-05
-4.37028900041383e-05
-5.83413589375726e-05
-8.06663842615009e-05
-0.000115312224096736
-0.000164749353359469
-0.000206472512164533
-0.000173146793385834
-7.88425483842014e-06
-7.60438274973703e-06
-5.80065833240102e-06
-3.31306361008638e-06
-1.58636689976827e-06
-3.03519116615423e-07
-5.6351972471036e-05
-0.000190533717629962
-5.16975095785712e-05
-5.55481834920418e-05
-3.25320327523029e-05
1.04402205847251e-06
2.52330025210172e-06
-8.38633621456032e-07
-1.81311098314094e-06
-1.18100297506836e-06
-5.95288204502004e-07
-3.05768418314248e-07
-1.72344658633927e-07
-1.070877893318e-07
-6.49993764731386e-08
-3.60052732319951e-08
-2.1211819276275e-08
-9.6630666816836e-09
-8.92866332953638e-09
-1.32475517414696e-08
-1.92003886393276e-08
-2.76077094449527e-08
-3.90082595370181e-08
-5.39175607705945e-08
-7.32816263825724e-08
-9.71083310355995e-08
-1.24333256803729e-07
-1.52987213964387e-07
-1.8005178033273e-07
-2.02875346505767e-07
-2.20892864081473e-07
-2.32991662105025e-07
-2.31799842147918e-07
-3.49051338496874e-07
-5.64732957110942e-07
-6.9619692407324e-07
-6.33839019645962e-07
-2.88204158057237e-07
-2.02831435544204e-07
-4.20785977691896e-07
-9.90915022617102e-07
-1.47950341741274e-06
-1.90420737090445e-06
-2.29530259534486e-06
-2.6458445582999e-06
-2.93868683731858e-06
-3.18450655975842e-06
-3.37862461449598e-06
-3.52978671418687e-06
-3.6382959412584e-06
-3.70954013039657e-06
-3.74529435542713e-06
-3.74916849280171e-06
-3.72367179712975e-06
-3.67229211913787e-06
-3.59872200571478e-06
-3.50768441019818e-06
-3.4048272299477e-06
-3.2970389219013e-06
-3.1924199441533e-06
-3.10030163142981e-06
-3.03115405735152e-06
-2.99653468519057e-06
-3.00906603683005e-06
-3.08258341772428e-06
-3.23251299037197e-06
-3.47653466414778e-06
-3.83563662812962e-06
-4.33550682994957e-06
-5.00832971152632e-06
-5.89539346028324e-06
-7.05000185639865e-06
-8.54013208560143e-06
-1.04585638428797e-05
-1.29509762600754e-05
-1.62770082746572e-05
-2.1614502803994e-05
-4.01467576546452e-05
-0.000111936553740852
-0.000204614863541231
-0.00012627577830223
-7.06708183009504e-05
-4.88590592680873e-05
-3.95567253265854e-05
-3.74553319751004e-05
-4.01301445139223e-05
-4.64586366562851e-05
-5.54452194809825e-05
-6.44015500259432e-05
-7.18706654508842e-05
-8.76864701222638e-05
-0.000113458452896298
-0.000147174588596003
-0.000187213892865324
-0.000232596026275132
-0.000281605172526211
-0.000334332014982701
-0.000383038091419549
-0.000416547142480855
-0.000435239657118842
-0.00044304352673766
-0.000446687456523951
-0.000448350443077889
-0.00046162656695624
-0.000490179109284713
-0.000576874770200968
-0.000714098685218739
-0.000900186331075398
-0.0011712363508046
-0.00157017921261453
-0.00216257073904337
-0.00295862682848877
-0.00364801141734325
-0.00328437756193284
-0.000634265038048901
-0.000505647885425764
-0.000396367200015064
-0.0002429850544081
-0.000122673747265561
-3.36472779741941e-05
-0.00013143263259733
-0.000670863598020387
-0.000418155201538749
-0.000441579064793375
-0.00029850951559386
-3.32314928252976e-05
3.79684795678618e-05
5.95858417744104e-06
-7.90902065699661e-06
-5.21200776007565e-06
-2.64799006870351e-06
-1.43543130781576e-06
-8.53861256595745e-07
-5.54063613460703e-07
-3.49851042734478e-07
-2.06112956336467e-07
-1.33277477023439e-07
-7.62066060556217e-08
-9.86957084330751e-08
-1.40308529916879e-07
-1.97027305234152e-07
-2.77280373522197e-07
-3.88241170558138e-07
-5.38783786585371e-07
-7.37625610721584e-07
-9.86972293447556e-07
-1.28134504695963e-06
-1.606896701558e-06
-1.93907807348487e-06
-2.25229719301707e-06
-2.52679304669226e-06
-2.73444249318998e-06
-2.81716378128848e-06
-2.66854510375349e-06
-3.32284642402681e-06
-3.65377152930222e-06
-2.83852322385747e-06
-1.65605441718384e-06
-2.27389394270401e-06
-4.08426959629646e-06
-8.75800735288894e-06
-1.27315477844144e-05
-1.64554322047459e-05
-1.98197113563394e-05
-2.29246740341139e-05
-2.55493014703039e-05
-2.78298705978061e-05
-2.96772967779713e-05
-3.11788830518298e-05
-3.23137699979986e-05
-3.3130496555728e-05
-3.36341291654764e-05
-3.38548956914754e-05
-3.38094038387515e-05
-3.35256173105304e-05
-3.30317925993537e-05
-3.23657789441127e-05
-3.15728886975671e-05
-3.07094210827684e-05
-2.98423125659117e-05
-2.90497901987931e-05
-2.84207786751293e-05
-2.80546927882298e-05
-2.80612478771669e-05
-2.85618505791368e-05
-2.96931930502055e-05
-3.16135608242211e-05
-3.45131675832052e-05
-3.86280411912268e-05
-4.42585833887267e-05
-5.17979758788622e-05
-6.17678098816955e-05
-7.48661817949365e-05
-9.20944500694123e-05
-0.000114991318839353
-0.000145899800099736
-0.000189678852956597
-0.00032040301775736
-0.000476812784807263
-0.000571278280021922
-0.000419001196452
-0.000286417611699895
-0.00023976673808112
-0.000228413594333503
-0.000241054026176026
-0.000270652553188115
-0.000313862522153162
-0.000367565462714058
-0.000427793773860123
-0.000496775667203685
-0.00059693465513345
-0.000731813928305709
-0.000893908605510556
-0.00107708406185475
-0.00127670428269763
-0.00148547393519448
-0.00169683581052949
-0.00188690937173429
-0.00202976535231139
-0.00212691260110189
-0.00219072906248836
-0.00224061209912213
-0.00228810236792376
-0.00238745626051599
-0.00256176163758349
-0.00297355077213629
-0.00358910023279394
-0.00439269656800366
-0.00548750059694957
-0.0069773617473443
-0.0089856792318492
-0.0113685380860114
-0.0132768349393508
-0.0124130855114048
-0.00650628379279297
-0.00405518844628238
-0.00297094669669608
-0.00182749635961095
-0.000976077443751942
-0.000279972448056536
-0.000544359377646603
-0.000955491605793669
-0.00120079617529513
-0.00127927468280119
-0.00106290042044992
-0.000356240329991654
0.000229011855714605
3.16096334151354e-05
-1.41784165567443e-05
-1.08689049555289e-05
-5.50317342743037e-06
-3.33372434790806e-06
-2.19421607297253e-06
-1.52973286144517e-06
-1.01581388092958e-06
-6.38310491201831e-07
-4.55288735368547e-07
-3.05811293020824e-07
-4.70734042095746e-07
-6.53815370253448e-07
-9.0066132155763e-07
-1.25072754414266e-06
-1.74345170483869e-06
-2.42595795850801e-06
-3.33695044498406e-06
-4.49173168787662e-06
-5.8810556811277e-06
-7.45895619838717e-06
-9.12783093007651e-06
-1.07631775571186e-05
-1.22309337081581e-05
-1.3389471763828e-05
-1.40089840832896e-05
-1.38624285755968e-05
-1.20060559264799e-05
-9.89787410064867e-06
-8.38499555587072e-06
-8.2960544168527e-06
-9.23466080512581e-06
-1.571392074841e-05
-3.35084158907631e-05
-4.53104886586188e-05
-5.77694677317437e-05
-6.81445543302797e-05
-7.8001765716514e-05
-8.60257280505686e-05
-9.31478656047344e-05
-9.88002262194345e-05
-0.000103455531823305
-0.000106940211960963
-0.000109479794623178
-0.000111053947904034
-0.000111779455103808
-0.000111691987705253
-0.000110877132155899
-0.000109406136496361
-0.000107380643464713
-0.000104918059615316
-0.000102167741367373
-9.9308954765187e-05
-9.65556535369845e-05
-9.41556467525791e-05
-9.23913615868625e-05
-9.15787557771146e-05
-9.20706692758675e-05
-9.42665956674663e-05
-9.86292249310311e-05
-0.000105713357376428
-0.000116203159421292
-0.000130956098394906
-0.000151068919765901
-0.000177951176189759
-0.000213407604969505
-0.00025978912949467
-0.000320212983842967
-0.000399667963669715
-0.000521466761143256
-0.000648164268010937
-0.000702751106739765
-0.000669447139883477
-0.000633619754670593
-0.000544196352615082
-0.000547653442797433
-0.000585316784320804
-0.000653315138107832
-0.000744021067632069
-0.000855511737901424
-0.000987473496630454
-0.00114385722491929
-0.00133061822556967
-0.00155541988022698
-0.00182066263945769
-0.00211606818779799
-0.00243273155662929
-0.00276267723297533
-0.00309343014566201
-0.00340984703983034
-0.00369461648946523
-0.00393827256004578
-0.00414356541679611
-0.0043244034029616
-0.00450191882338271
-0.00469936498002551
-0.00498611282506765
-0.00541613231505528
-0.00621314615252879
-0.00730566001259279
-0.00864543027662391
-0.010312745197205
-0.0123627646074148
-0.0148309782315806
-0.0173919587053759
-0.0194926411758944
-0.0189451536106262
-0.0155136300910095
-0.010579765204589
-0.00763692459356981
-0.00435112842491198
-0.00235133901481443
-0.000455159458298616
-0.000795457293264857
-0.000947827866750411
-0.0016277891245835
-0.00134036705116926
-0.00152188267662797
-0.000844329257662624
0.000399615073731661
0.000150626480380805
7.20894278268296e-06
-7.48954266110398e-06
-3.59664110938833e-06
-3.73006280751558e-06
-3.3361840420602e-06
-2.72220453511145e-06
-1.95718614505017e-06
-1.32836719645228e-06
-1.06641535219091e-06
-9.58862676360217e-07
-1.45345807362784e-06
-2.00817475630756e-06
-2.74499929517008e-06
-3.78601209925081e-06
-5.25960688863866e-06
-7.30403117970569e-06
-1.00231577359021e-05
-1.34531776081159e-05
-1.75666186831873e-05
-2.22220195655014e-05
-2.71136646045731e-05
-3.18254231928929e-05
-3.5908318656719e-05
-3.89957011613175e-05
-4.0507162926641e-05
-4.00022570678479e-05
-3.71674838945446e-05
-3.19711597667773e-05
-2.56578667209981e-05
-2.01054779498309e-05
-1.99327057417407e-05
-3.36362811086645e-05
-7.05381015451998e-05
-8.50603079806618e-05
-0.000108385401645728
-0.000125163942665253
-0.000143008607427724
-0.000156814476427221
-0.000169815881425194
-0.000179953060461879
-0.000188595992259053
-0.000195093597632889
-0.000200013494021599
-0.000203220328110462
-0.000204967909796458
-0.000205288385172211
-0.000204337386564963
-0.000202220134591399
-0.000199099329105807
-0.000195154339792101
-0.000190617464155184
-0.000185768088379371
-0.000180944590514587
-0.000176543575491205
-0.00017302264672504
-0.000170895213070972
-0.000170730519308038
-0.000173163198554186
-0.000178906501978029
-0.000188783369112687
-0.000203761048366217
-0.000224964563093435
-0.000253696455631488
-0.000291417370778484
-0.000339656008122273
-0.000399735146233271
-0.000471816629999643
-0.000549802101738711
-0.000672120101309524
-0.000715519071364762
-0.000702620722111949
-0.000702361780044265
-0.000793137049995568
-0.000789607008209572
-0.000870670072139836
-0.000973093651518061
-0.00110302162121587
-0.0012540029220252
-0.00142726720331883
-0.00162611401480353
-0.00185735020763489
-0.00211914742115446
-0.00240447579823352
-0.00271493585935134
-0.003040846575612
-0.00337355628134499
-0.00370503589378984
-0.00402251516198652
-0.00431357315171991
-0.00457933691636014
-0.00482618627694207
-0.00505679811357011
-0.00529012993172545
-0.00555583734096559
-0.00583378344637013
-0.00621074783784924
-0.00674567471688873
-0.00761489487322725
-0.00873625082916825
-0.0100583725955091
-0.0116121358109925
-0.0134165952116156
-0.0154933367712294
-0.017579266011567
-0.0197163675913306
-0.0201071387351849
-0.0202766116242999
-0.0157932906598382
-0.0122054389123319
-0.00676364553631852
-0.00360668040202906
-0.000232170853262709
-0.00168779805121718
-0.00146454063822922
-0.00208078527119816
-0.000651657437307119
-0.000701944342194724
-0.000625361720596663
0.000483134530661385
0.00055057926731772
0.000134267670908354
3.37582811160109e-05
1.82932423891465e-05
4.35090409375413e-06
-1.13844848696931e-06
-2.61037487457513e-06
-2.37282862078013e-06
-1.86516382543777e-06
-1.82330825601647e-06
-2.17682221395793e-06
-3.39956727252601e-06
-4.73618532590992e-06
-6.46580637016008e-06
-8.86821594331953e-06
-1.22265027664899e-05
-1.67960428316842e-05
-2.2730577603483e-05
-3.0001097743088e-05
-3.84244439217739e-05
-4.75579923430428e-05
-5.66302736090187e-05
-6.47183968110704e-05
-7.09970350360063e-05
-7.4981608946126e-05
-7.58929555541907e-05
-7.33816618057331e-05
-6.6954368824424e-05
-5.68934062021238e-05
-4.4704503486869e-05
-3.43662815559766e-05
-3.35433148164496e-05
-5.56185113000523e-05
-0.000104621469024561
-0.00011726166385877
-0.00015872473307827
-0.000184623103897023
-0.000214444744406558
-0.000236037758185336
-0.000256417371604759
-0.000271614529906759
-0.000284316117614408
-0.00029348849596034
-0.000300189397895058
-0.000304286402326425
-0.000306246111677675
-0.000306175874224549
-0.00030434983321889
-0.000300953674291987
-0.000296239597465049
-0.000290469467775076
-0.000283964758481466
-0.000277099488339931
-0.000270316469560265
-0.000264125320344148
-0.000259105774796017
-0.000255893522433895
-0.000255167659237044
-0.000257651307937519
-0.000264102735682161
-0.000275328632361112
-0.000292199119732825
-0.000315594454892368
-0.000346347373667447
-0.000385111515160238
-0.000432151536159465
-0.000486975923527895
-0.000548613080314711
-0.000635263369350708
-0.000670986297725334
-0.000679953684714936
-0.000683813407344157
-0.000785246972013369
-0.000939637993071045
-0.00100878225986956
-0.00114839642417673
-0.00130079143394034
-0.00147616841950985
-0.00166969490731815
-0.00188441216391759
-0.00212449453065851
-0.00239347751032313
-0.00268037298655106
-0.00297632425597541
-0.00328236802523026
-0.00358995086840493
-0.00389139239681794
-0.00417996541291116
-0.00444492752063353
-0.00468084080131523
-0.00489961344607277
-0.00511068636735144
-0.0053151593849202
-0.00557028148437663
-0.0058258294524083
-0.00609297919901343
-0.00644537512584025
-0.00693364399109649
-0.00768075003451176
-0.00861802664448709
-0.00971350804169223
-0.0109824946370129
-0.0124464535297652
-0.0141539574977953
-0.0159489830167373
-0.0181562392036266
-0.0193809894582829
-0.0215212712059199
-0.0192385285306421
-0.0163834370000272
-0.0103292063174357
-0.00680833118952895
-0.00176213444116174
-0.00373148499846348
-0.00282096812360352
-0.00314938552733482
-0.000877583092280502
0.00047868982503375
0.000303080027624688
0.000720923478506033
0.00150963501133202
0.000407268722888421
0.000162921866813264
8.89001590309251e-05
3.57550897555623e-05
1.17179558401489e-05
2.62333493157449e-06
-1.14451308655347e-07
-1.00961758347695e-06
-2.05826544640452e-06
-3.80095499388923e-06
-6.40799454722772e-06
-9.11579224482055e-06
-1.24669558088753e-05
-1.6955573807808e-05
-2.30199997134577e-05
-3.09386654295907e-05
-4.07624911374989e-05
-5.21548625986998e-05
-6.45464586244337e-05
-7.70410936914106e-05
-8.8434286904989e-05
-9.75966822066657e-05
-0.000103777960888529
-0.000106726270282988
-0.000105928381584708
-0.000101522765883554
-9.31176957473421e-05
-8.14187585391955e-05
-6.87994192974585e-05
-6.0909070884054e-05
-6.77558777258781e-05
-0.000101959382607544
-0.000154893988291856
-0.000172518081436393
-0.000234331594644417
-0.000268736733548893
-0.000308046954087314
-0.000334479278040297
-0.000358640974384523
-0.000375620317939265
-0.000389132339274312
-0.00039814801343692
-0.000404066627652895
-0.000406876028188509
-0.000407192009241176
-0.000405219436849611
-0.000401318032569234
-0.000395743435015903
-0.000388807938179754
-0.000380827399314753
-0.000372172713842592
-0.000363265782192206
-0.000354596351473573
-0.000346717616252412
-0.000340250713554981
-0.000335860381629655
-0.000334224213343055
-0.000336025339670354
-0.000341913942362089
-0.000352498997831465
-0.000368361434880158
-0.000389944137661266
-0.000417458201469481
-0.000450711254300578
-0.000488914688871232
-0.000530196299804955
-0.000568283538751149
-0.000627379831623023
-0.000641983070689982
-0.000651142022941206
-0.000697698310707015
-0.000884370763866378
-0.00106959719730593
-0.00119446530161224
-0.00137395016557556
-0.00156216893559804
-0.0017689563962969
-0.00199124508088597
-0.00223251308069076
-0.00249621948937598
-0.0027818157750371
-0.00307302534591018
-0.00336351696371482
-0.00365330520267806
-0.00393479399929856
-0.00420121985324955
-0.00444731875894303
-0.00466491500911612
-0.00485461530892959
-0.0050325915994043
-0.00520717305702998
-0.00537788591118349
-0.00566622493733981
-0.00586201385051838
-0.00609194131198744
-0.00638905582352495
-0.00679318505550948
-0.00739315079022805
-0.00813588851632685
-0.00900903123679029
-0.0100291388444871
-0.0112307557927743
-0.0126864415428607
-0.0143398474249848
-0.0166036983971111
-0.018502339804462
-0.0216780539805259
-0.021352734277884
-0.0195810329645908
-0.0137972617711858
-0.0106745397278656
-0.0050296774525569
-0.00631040335734765
-0.005099138493643
-0.00455736826574045
-0.00219762822351158
0.00145583478769166
0.000877424235105477
0.00198018242627759
0.00213378637848659
0.000771008856324665
0.000425544287158106
0.000240564584139157
0.000112274800531606
4.76219081857419e-05
1.99259790309398e-05
8.88745453519011e-06
3.71044238785372e-06
-2.36789691729857e-07
-4.98370128035585e-06
-9.87239377594991e-06
-1.46290330801188e-05
-2.01409588053938e-05
-2.71170437934664e-05
-3.60613414168579e-05
-4.71179664307002e-05
-6.01007964740744e-05
-7.42604544435377e-05
-8.87340421423921e-05
-0.000102474671660021
-0.000114318789008357
-0.000123399447604089
-0.000129261242753373
-0.000131841532518816
-0.000131028213894603
-0.000127426571849559
-0.000120976892219444
-0.000113086299135407
-0.000107148263744527
-0.000110016235110011
-0.000131246703817668
-0.000176856798788476
-0.000226045326326745
-0.000252966142579754
-0.000326341603857958
-0.000365493153019293
-0.000408450710131744
-0.000436054615625696
-0.00046024396576113
-0.000476365159174238
-0.000488391611487294
-0.00049558394929941
-0.000499413718452836
-0.000500023144264723
-0.000498070899396198
-0.000493836363226156
-0.000487709134581608
-0.000479980330635322
-0.000470979310271531
-0.000461035929537039
-0.000450525548894518
-0.000439870322605452
-0.000429555302576092
-0.00042011993326691
-0.000412167519293055
-0.000406333004626303
-0.000403230390460277
-0.000403446760306599
-0.000407473317235198
-0.00041567678599425
-0.000428345464617824
-0.00044554100271055
-0.000467020971266017
-0.000492091099160507
-0.000519583279515575
-0.000548208280878215
-0.000595409493877173
-0.000607859426533785
-0.000620445487714227
-0.000644793408089807
-0.000732757146258538
-0.000978229805641423
-0.00118275688849774
-0.00134964432361478
-0.00155754334833704
-0.00177221893533546
-0.00200154698015001
-0.00224396288681122
-0.00250264670470101
-0.00277986618394417
-0.00307194494523514
-0.0033603820528814
-0.00364150876899617
-0.00391424816584637
-0.00417181414128507
-0.00440826842908173
-0.00461974939726902
-0.00480064483752907
-0.00495594906110095
-0.00510272366166823
-0.00524741836818335
-0.00543074385524131
-0.00568483737147497
-0.00584207365017702
-0.00603398801118742
-0.00627703147706703
-0.00660145577710752
-0.00707611193815782
-0.00765942659010693
-0.00835379835142144
-0.00918180114577405
-0.0101926108664514
-0.0114753437923711
-0.0130621064111002
-0.0153783033642271
-0.0178327492279072
-0.0216551192839253
-0.0226136297031239
-0.021826219242996
-0.0166443559889055
-0.0137271093748207
-0.00848145730416215
-0.00877997817623873
-0.00725762921073864
-0.00597789620819753
-0.00405241691538697
0.00215674843395367
0.000742334484347182
0.00336643096559631
0.00281774357712538
0.00156167319628635
0.000832899365121976
0.000480447655546645
0.000249824211852289
0.000119617331010521
5.7844047768646e-05
3.00422678756492e-05
1.57963326183871e-05
6.06817686796367e-06
-3.94656037287237e-06
-1.22406359768056e-05
-1.97624027139698e-05
-2.78082890095648e-05
-3.72963944927899e-05
-4.87433142373119e-05
-6.21630730485863e-05
-7.72206657647914e-05
-9.29218265701874e-05
-0.000108407588813644
-0.000122776483081145
-0.000135110834139075
-0.000144832087130105
-0.000151650057988444
-0.000155572829342897
-0.000156963095017858
-0.000156828288936128
-0.000155609698828449
-0.000155418001360406
-0.000160315233049531
-0.000177036372231005
-0.000212070634451241
-0.00026363733918758
-0.000305115949125762
-0.000342971160582438
-0.000419468426278473
-0.000460917226638653
-0.000503280918116442
-0.000530026890937882
-0.000552282166335977
-0.000566478548388856
-0.000576244913364409
-0.000581246891151139
-0.000582842926059518
-0.000581315009408628
-0.000577295415730419
-0.000571109447079815
-0.00056314013166247
-0.000553686883317482
-0.000543067566125343
-0.000531598328727867
-0.000519629394002638
-0.000507551869866939
-0.000495814448523348
-0.000484907423602584
-0.000475383385081845
-0.000467821986010516
-0.000462749807414383
-0.000460650834692044
-0.00046186711226106
-0.000466544638167902
-0.000474754708425354
-0.00048631276493653
-0.000500757297862771
-0.000517240209867034
-0.000534628420170141
-0.000551541371800355
-0.000583513160615309
-0.00059264170090559
-0.000611040237592463
-0.000654680528308603
-0.000776157099991216
-0.00106093643820173
-0.00128073230796511
-0.00147922727708614
-0.00170867805810748
-0.00194359184441314
-0.00218980546570159
-0.0024467983433081
-0.00271716763742019
-0.00300199994171741
-0.00329555727143057
-0.00357881279713455
-0.00384997578616825
-0.00410708751126332
-0.00434407919560724
-0.00455578665359857
-0.00473966902915865
-0.00489249994688638
-0.0050222879780665
-0.00514530382260809
-0.00526598338717255
-0.00549458744423317
-0.00567523629522324
-0.00580911753823566
-0.00596746066025761
-0.00616341980298292
-0.0064196066331235
-0.00679332949628434
-0.0072505751240138
-0.00780427957536832
-0.00848369840305704
-0.00935227511305028
-0.0105106801872883
-0.0120691973181073
-0.0144441554482667
-0.0173709572797023
-0.021663436547324
-0.0240492575272859
-0.0233404537290637
-0.0188551151819127
-0.0159185168548384
-0.0113653709075211
-0.0108612211918992
-0.00924509255701379
-0.00733671632541516
-0.00592164911430565
0.00220504744791343
0.000389590528979188
0.00436100626901557
0.00352781592096315
0.00260314034276139
0.00119466438380866
0.000785385375120493
0.000443561882458252
0.000231821298737188
0.000121454909566268
6.74288021785732e-05
3.83353673870101e-05
1.94098652895398e-05
1.49059534082022e-06
-1.15816200812876e-05
-2.27536946747501e-05
-3.37839681966648e-05
-4.58354475451028e-05
-5.94881852774093e-05
-7.47861861830048e-05
-9.13938670985858e-05
-0.000108252772120285
-0.000124665761739366
-0.000139947554167761
-0.000153424134988701
-0.000164741299694284
-0.000173703997370084
-0.000180374783003998
-0.000185620414360819
-0.000190758804646529
-0.000196703263625396
-0.000205976172208258
-0.000222623304712079
-0.000252015673391664
-0.000296829186488686
-0.000349993918802771
-0.000384500462115441
-0.000432146173086268
-0.000506524495387491
-0.000548630568543034
-0.000588232629784099
-0.000613324987286965
-0.000633054725808937
-0.000645197515189169
-0.000652758941971293
-0.000655795039837738
-0.000655479884286577
-0.000652204271274458
-0.000646548643552147
-0.000638863190229434
-0.000629508732425654
-0.000618776790238375
-0.000606959005106051
-0.000594341796217308
-0.000581233375364055
-0.000567975012213853
-0.000554962278660194
-0.000542615302899193
-0.000531419075368066
-0.000521893038938318
-0.000514471680776488
-0.000509552758783694
-0.000507366858418584
-0.000507878595723469
-0.000511036039595703
-0.000516541554362726
-0.000523919759363742
-0.000532435517113262
-0.000541433145729755
-0.000568571757663743
-0.000573152382008902
-0.000583715617038145
-0.000611338696850293
-0.000673700728178878
-0.000820815821551647
-0.00113212145636399
-0.0013651968030369
-0.00158756446802973
-0.00183411171864496
-0.00208490914463876
-0.00234416746946799
-0.00261194924123276
-0.00289021035486714
-0.00317902416003358
-0.0034713975173737
-0.00374861541235451
-0.00401001843995068
-0.00425304203597013
-0.004472276749331
-0.00466330980625246
-0.00482484519032688
-0.00495580715021561
-0.00506619338583251
-0.00517061323545286
-0.00527178657594083
-0.00556145799614343
-0.00565794581225509
-0.00577117045180983
-0.00590029183491875
-0.00605551079802332
-0.00625361296695542
-0.00654522779250939
-0.00690104686734802
-0.00734149734010734
-0.0079019689542519
-0.00865965748138335
-0.00972378022637234
-0.0112744542508432
-0.0137185405485909
-0.0170588035407617
-0.0217281082928612
-0.0247156787021784
-0.024307091205384
-0.0204870373854842
-0.017483264168172
-0.0135729142115523
-0.0125163233001017
-0.0109380161522984
-0.00862057117392988
-0.00748231762985779
0.00123834891803126
0.000469732905646486
0.00467038591665617
0.00495497149814531
0.00273308163594776
0.00161767092080617
0.00114065078040782
0.000675869101460399
0.000376951052350348
0.000208766023307627
0.000121075848413274
7.21438078962737e-05
4.12218393433486e-05
1.28074079052705e-05
-6.58232494373194e-06
-2.2504072162984e-05
-3.7167259063308e-05
-5.20191721718252e-05
-6.78112455760889e-05
-8.4813892683863e-05
-0.000102800686088974
-0.000120796267102145
-0.000138330634947148
-0.000154945323484928
-0.000170188772987816
-0.000183888176797195
-0.000195912359630731
-0.000206360679744875
-0.000216541516804461
-0.000227962620161207
-0.000241844188590428
-0.000260735395655644
-0.000288071405166622
-0.000327333473974083
-0.000378145250017722
-0.000431152018826126
-0.000460854055445993
-0.000515258118021921
-0.000585193415832146
-0.000626894917470397
-0.000663097669814389
-0.000686386829024567
-0.000703688928541466
-0.000714005870925817
-0.000719699189689308
-0.000721138460329871
-0.000719317359791866
-0.00071470214687283
-0.00070782101848989
-0.000699034257050115
-0.000688675893358111
-0.000677019980203035
-0.000664324769192126
-0.000650837866954913
-0.000636816103368978
-0.000622539088690283
-0.000608342221720249
-0.000594562086249743
-0.000581606910969831
-0.000569943733711258
-0.000559917190054778
-0.000551865727136633
-0.000545959667844495
-0.000542016070581069
-0.000539949722811882
-0.000539454830172829
-0.000540197851664316
-0.000541718446587924
-0.000552111889366516
-0.00056255578723769
-0.000566058598373221
-0.000580387946693352
-0.000618153962988949
-0.000696985800582935
-0.000863403316718745
-0.00119285336169826
-0.00143759218707851
-0.00167811835520046
-0.00193855135732725
-0.00220201780546622
-0.00247153250993159
-0.00274736736881879
-0.003030869707099
-0.00332129039771355
-0.00361092141974179
-0.00388174144150121
-0.00413369250048663
-0.00436385041277248
-0.0045674317600507
-0.00474076798920561
-0.00488373680225289
-0.0049971641369695
-0.00509227583015761
-0.00518147583788774
-0.00533157379655915
-0.00556299978067943
-0.00563287398334482
-0.00572746888839363
-0.00583062583422758
-0.00594977836131744
-0.00609743374242408
-0.00632031180088067
-0.00659182068318111
-0.0069377102991904
-0.00739860099224871
-0.00806511332865744
-0.00905296656922203
-0.0106063055940154
-0.0131299114760495
-0.016842402945453
-0.0218330179874722
-0.0250324901722009
-0.0249293104728915
-0.0216579445210436
-0.0186042071460944
-0.0152007610878733
-0.0137985045041941
-0.0122889272539479
-0.00981969615027127
-0.00862226886335368
-0.000629731160782725
0.00127198375557392
0.00405931886578189
0.00611064769405032
0.00261861170750935
0.00234898236477991
0.0014633180266035
0.000937421844288133
0.000545921453043487
0.00031407045633734
0.000187766032091529
0.000115557553830649
6.61249062599858e-05
3.02764720624138e-05
3.1964672419092e-06
-1.85253713472273e-05
-3.74618256721578e-05
-5.53718784834603e-05
-7.33186604540214e-05
-9.19825536149609e-05
-0.000111330275666502
-0.000130587729250864
-0.000149530358055578
-0.00016791748924402
-0.000185487028965793
-0.000202204871778037
-0.00021797747341451
-0.000232904653000301
-0.000248621108139032
-0.000266701581228201
-0.000288470512651361
-0.000316190493002917
-0.000352387014045896
-0.000398765264875592
-0.00045309350711262
-0.000505685401873767
-0.000532302922658032
-0.000590346818400627
-0.000655398234595127
-0.000696064559393243