/*--------------------------------*- C++ -*----------------------------------*\
  =========                 |
  \\      /  F ield         | OpenFOAM: The Open Source CFD Toolbox
   \\    /   O peration     | Website:  https://openfoam.org
    \\  /    A nd           | Version:  7
     \\/     M anipulation  |
\*---------------------------------------------------------------------------*/
FoamFile
{
    version     2.0;
    format      ascii;
    class       volScalarField;
    location    "20000";
    object      k_diff;
}
// * * * * * * * * * * * * * * * * * * * * * * * * * * * * * * * * * * * * * //

dimensions      [0 2 -3 0 0 0 0];

internalField   nonuniform List<scalar> 
15600
(
0.0014629711177056
0.0015466537470867
0.00125516735745262
0.000858227398269971
0.000482663424342036
0.000228209692236439
9.15299888646593e-05
5.3611064215677e-05
4.51228030884825e-05
3.28420346125538e-05
2.02685390030425e-05
1.24324354112705e-05
8.17994036139347e-06
5.70537736042385e-06
4.20197571040635e-06
3.33038064531014e-06
2.90180273480563e-06
2.73948306099116e-06
2.76815862485151e-06
2.94258500276876e-06
3.26089401723146e-06
3.73425104766079e-06
4.37706290133658e-06
5.19104081068259e-06
6.14969077708728e-06
7.25011664197934e-06
8.48077036772308e-06
9.80852247236106e-06
1.11814221555071e-05
1.25324430065563e-05
1.37948655548803e-05
1.49492329308318e-05
1.60384553467619e-05
1.70013812229132e-05
1.77931534117815e-05
1.83368706859271e-05
1.86348790430564e-05
1.88504054118175e-05
1.94023798841357e-05
2.07699078821881e-05
2.41856098919548e-05
3.13551242871534e-05
3.95214978715456e-05
4.81692357940983e-05
5.71094060268309e-05
6.62321786828705e-05
7.53952675763633e-05
8.45274316985254e-05
9.35551332474782e-05
0.000102434983460697
0.000111125464841385
0.000119596728167899
0.000127820850326653
0.000135774991505602
0.000143438764821957
0.000150795937285306
0.000157834721014571
0.000164549609376663
0.00017094302155639
0.000177027484393252
0.00018282773990893
0.000188382829968092
0.000193747960133945
0.000198996194827799
0.000204219994799216
0.000209532795296056
0.000215070877939551
0.000220995836516538
0.000227498040903839
0.000234801351353497
0.000243169440507526
0.00025291448247974
0.000264407171815962
0.000278087890135093
0.000294494009012381
0.00031430260106052
0.000338408412410295
0.000369278287862504
0.000406077045300077
0.000423989040793604
0.000367844535929511
0.000340734314711012
0.000337816929314545
0.00034879565126672
0.000370103728279071
0.00040013919318833
0.000438216465827377
0.000484120331468792
0.000537863366150649
0.000601658978867373
0.000681666455887864
0.000777710150340081
0.000887565291327948
0.00100917416941988
0.00114061721850829
0.00127895612940493
0.00142030618888759
0.0015533023952612
0.00166971769026321
0.00177218599084109
0.00186616604786598
0.00195805774564829
0.00205549645408756
0.00217515408109294
0.00232867090924864
0.00256861338963858
0.00289819122917241
0.00330819161553268
0.00381798200449667
0.00444916759389491
0.00522678930593922
0.00612923120427386
0.00692168006541942
0.00709522577336038
0.00559899158730148
0.00417738233293125
0.00302770055408201
0.00220025792003831
0.00165295885982565
0.00150529907903057
0.00785732922975888
0.00814787629841533
0.00675936871463542
0.00465436177928374
0.00264503399617209
0.00127632343440952
0.00051767078707092
0.000296673630717588
0.000247093085298624
0.000181683819054133
0.000113270400374142
6.96290084957591e-05
4.57168061060687e-05
3.18130098918482e-05
2.33648875506807e-05
1.84396218556438e-05
1.59847167020906e-05
1.50270033542787e-05
1.51256734502439e-05
1.60255811777346e-05
1.77098969581414e-05
2.02354200813244e-05
2.36815027935372e-05
2.80657827094609e-05
3.32476456982654e-05
3.92079496881397e-05
4.58896003378787e-05
5.31215712885023e-05
6.06294978600778e-05
6.80534540139723e-05
7.50229949426751e-05
8.1408912212204e-05
8.74436447502149e-05
9.26828613045358e-05
9.6900908121536e-05
9.9850032019137e-05
0.000101632915872032
0.000103223931786065
0.000106408077728844
0.000113913059191891
0.000132476833742721
0.0001709463903041
0.000214941785294465
0.000261500302523263
0.000309547965043455
0.000358499062665413
0.000407601114573573
0.000456488584413238
0.000504776663526756
0.000552246232391962
0.000598683021060826
0.000643936597877985
0.000687863964794834
0.000730349110575937
0.000771287257253183
0.000810594780035077
0.000848210082324996
0.000884103557222098
0.00091828608509144
0.000950820696453131
0.000981833756319708
0.00101152614560454
0.00104018325927695
0.00106818411034119
0.00109600944017289
0.00112424981655793
0.00115361500015364
0.00118494603949316
0.0012192322603545
0.00125763441816869
0.0013015152847288
0.00135248095484577
0.00141242852488117
0.00148359458973906
0.00156864130574405
0.00167073773085607
0.00179328191318467
0.00193797120338173
0.00205889099964485
0.00206093154430722
0.00185606151168347
0.00177340819459138
0.0017847316425989
0.00185806444648723
0.00198003024288952
0.00214467182188905
0.00234958907556063
0.00259476490376283
0.00288347404749794
0.00322985549254337
0.00365612457062217
0.00415867684863788
0.00472735102766152
0.0053526727197888
0.00602498653214106
0.00672958850832883
0.00744377761716256
0.00811460748641512
0.00871230482946699
0.00925171106355573
0.00975821060833308
0.0102594155216934
0.0107960224292348
0.0114450164772306
0.0122709817930821
0.0135102246837278
0.0151731692868188
0.0172099279067294
0.0196841654241697
0.0226528045590047
0.0261494027513008
0.0299726295279996
0.0331205006498776
0.0338959886342392
0.0286249499723794
0.0215226558124261
0.0157601365608733
0.0116201750518486
0.00885933456550879
0.00811210298629772
0.0169642549739959
0.016975311672511
0.0146837278949507
0.0105101756987239
0.00625104345405545
0.00318637305244005
0.00133438468514871
0.000731813180692483
0.000592199374052955
0.000440088196558438
0.000277634735398233
0.000171267413258036
0.000112327266804784
7.80370154254936e-05
5.72063565952113e-05
4.50036551745934e-05
3.88386621257753e-05
3.63822857406786e-05
3.64636984903823e-05
3.84897743232825e-05
4.23987462021913e-05
4.83103788520035e-05
5.64069272835472e-05
6.67350030733194e-05
7.89597872353026e-05
9.3013128198499e-05
0.000108755326994559
0.00012578759060813
0.000143470649264687
0.000160965152862507
0.000177406466038304
0.000192490381179166
0.00020675791216529
0.000219397907589646
0.000228886856272802
0.000235700484796765
0.000240893928835782
0.000246028098687228
0.000253722259354887
0.000271897908702463
0.000315508683420303
0.000401424406901995
0.000498588991627627
0.000600406924417794
0.000704297553824238
0.000809301569597728
0.000913900157363367
0.00101756845212508
0.00111958959069615
0.00121966236327068
0.00131741772207284
0.00141263787093766
0.0015050831376563
0.00159456822426682
0.00168091037831036
0.00176396151318082
0.00184360373208452
0.00191977328003287
0.00199247633116487
0.00206181446814208
0.00212800814031489
0.00219142136915086
0.00225258401029222
0.00231221248012748
0.00237122722555249
0.00243076830241996
0.00249221113426185
0.00255718385814406
0.00262759040901344
0.00270563937837355
0.00279387205789918
0.00289518598088342
0.00301282657778995
0.00315025522222098
0.00331073809887
0.00349639969123334
0.003705745458337
0.00386593629053644
0.00393922688828345
0.00382928736260493
0.00362517289987596
0.00361966339963201
0.00372350170660289
0.00392655726999442
0.00421388837590689
0.00458174445363637
0.00502996748090659
0.00556345654415645
0.00619583269607862
0.00695588153324694
0.00786431970874756
0.00890981650855297
0.0100779425410317
0.0113534593838175
0.0127180509933572
0.0141436908622542
0.0155826197945557
0.0169481004441282
0.0182109182886746
0.0193992403394458
0.0205529365595889
0.0217109793383043
0.0229532207500073
0.0243981443414272
0.0261747698549191
0.028630490165255
0.0317694273195589
0.0354611319321554
0.0396893707652284
0.0443784937513772
0.0493247838977992
0.0540133547072273
0.0571101108882864
0.0575883989006809
0.0518925788687747
0.040496563374974
0.0301451747589894
0.0230453105397862
0.0184333149114558
0.0172879701546068
0.018613238586263
0.0184382395877601
0.0172466037132704
0.0137358659142445
0.00922611194829771
0.00541287417189746
0.00265806422590694
0.00131486829054325
0.00101513797197902
0.00075950598583088
0.000485229354631712
0.000300418909255997
0.000196809399764228
0.000136503765899054
9.9924142924598e-05
7.84181138940831e-05
6.7400834431222e-05
6.29455203569643e-05
6.27341343025876e-05
6.59255641208335e-05
7.23240055976119e-05
8.20768569648984e-05
9.54353069204259e-05
0.000112416946005661
0.000132406696618674
0.000155194047299772
0.000180462549629284
0.000207490168334676
0.000235191574363322
0.000262208643282757
0.000287237715626693
0.000309931214769676
0.000331156898909782
0.000349860874040326
0.000365634853551421
0.000377252945702842
0.000385358258421017
0.000392707783340109
0.000406116931282724
0.000434941877521587
0.000499275818290154
0.000616574802914276
0.000744683272219723
0.000878352615104311
0.00101290973186205
0.00114876707775375
0.00128373665406549
0.00141785284500634
0.00155010375310796
0.00168036751225389
0.00180813060594972
0.00193319781858698
0.0020552416584373
0.00217404382506037
0.00228935569587844
0.00240098284925749
0.00250875618233877
0.00261257307868624
0.00271240892320124
0.00280835045142515
0.00290062198993808
0.00298961665431557
0.00307592386466857
0.00316035620196734
0.00324396817442179
0.00332806565363873
0.00341420650806431
0.00350418535859818
0.00360000385855288
0.00370381593322408
0.00381780389662568
0.00394394740315909
0.00408359103004751
0.00423657897498238
0.00439944452148753
0.00456121374207646
0.00468342682103371
0.00474265890742732
0.00471248109629692
0.00455384763655942
0.00443342412424002
0.00453650564153997
0.00472921561471117
0.00503293796935118
0.00543335471014872
0.00593316265555613
0.0065361399238571
0.00725223818787861
0.00809965584827041
0.00910580888392509
0.0102747073218326
0.0115899881711966
0.0130390764621939
0.0146059902888468
0.0162695788055742
0.0179998363762708
0.0197465198425994
0.021439570857626
0.0230843415014342
0.024710933851448
0.0263526529249733
0.0280348993070801
0.0298360079767843
0.0318522872949087
0.0342085048247364
0.0371373131765102
0.0406106063537764
0.0444325585535196
0.0484411706844306
0.052413159424242
0.0560019342508668
0.0588126358012248
0.0599876730398748
0.0597826605449533
0.0554354626792431
0.0460344870588734
0.0338865322301716
0.0254150265736101
0.0202567526724426
0.0189374665103359
0.0126124168139766
0.0121888339142413
0.0126560136574694
0.0118195236061659
0.00910570989630193
0.00663288451787432
0.00434872598373917
0.00213059759829701
0.00150832268823331
0.00111873786937556
0.000722591391981392
0.000448186194730047
0.000292859963104178
0.000202627167252298
0.000148112457345909
0.000115984829694776
9.92617051585357e-05
9.22713224758663e-05
9.13433850768257e-05
9.54070185462124e-05
0.000104024002967329
0.000117243257934938
0.000135225039779563
0.000157756422304154
0.000183771499864206
0.000212710403834615
0.00024386256349596
0.000276023485976057
0.000307617568681834
0.000336907417346662
0.000362524895525801
0.000384468378832
0.000403916779149176
0.000420168808260525
0.000432892163387816
0.000443034782030582
0.000452271076240709
0.000464152895623049
0.000483782817395023
0.00052222864737056
0.000599591290596099
0.000728760208613987
0.000867174439919232
0.0010183080991813
0.0011710619943015
0.0013277522656291
0.00148354254212856
0.00163885022238104
0.00179162605536927
0.0019418077279258
0.00208854025445395
0.00223166484821479
0.0023708040442801
0.00250582287129883
0.00263655229251253
0.0027629267414667
0.00288491151131665
0.0030025488999564
0.00311594902371672
0.00322531400580879
0.00333094902941361
0.00343328159273458
0.00353287471374574
0.00363044152935337
0.00372684514776401
0.0038230762002634
0.0039202109038639
0.00401932639234671
0.00412137703119499
0.00422703289106501
0.00433640720132684
0.0044486557531211
0.00456139272282033
0.00466991607878509
0.00476641295088367
0.00484245371696729
0.00483553785655631
0.00482352198067275
0.00474967372264655
0.0045946683048069
0.00453584770745168
0.00465454988514039
0.00485182701638463
0.00515268475053232
0.00554394877382889
0.00602929767988032
0.00661249227813004
0.00730236668114298
0.00811308364175928
0.00906208307273798
0.0101366730535049
0.0113229488814754
0.01261238140465
0.0139929625916277
0.0154483264298891
0.0169582728935586
0.0184886283000834
0.020007626993828
0.0215515017277579
0.0231443587451546
0.0248021102670158
0.0265239306981815
0.0284128267666125
0.0304968077671178
0.0328588458307986
0.0355749559898344
0.0386085068146731
0.041793257292762
0.0449526741777195
0.047891064557677
0.0503431588966778
0.0521179975298918
0.0526929474338392
0.052547960473246
0.0500774416104384
0.0461503003715715
0.0361230150763957
0.0262645073467678
0.0181487140207349
0.01437945853678
0.0108357890368508
0.00949330502198564
0.0096303213650025
0.00955605476104296
0.00754922706313949
0.00594673957908027
0.00553446557224214
0.00339578294994215
0.00214249096222303
0.00152397017834789
0.000989014435942045
0.000611270440488786
0.000396704710615495
0.000273119338827208
0.000199127976986218
0.000155494486870587
0.000132319340891337
0.000122053185400286
0.000119668716730648
0.000123831628636961
0.000133662882124811
0.000148878678853977
0.000169270164874238
0.000194101713681544
0.000221703600766885
0.000251028811481769
0.000280893197172487
0.000309713107306328
0.000335768704601368
0.000357557895116366
0.000374449760103169
0.000387387859768541
0.000397858389779416
0.000406028661342765
0.000413090315824504
0.000421213002937973
0.000433628115347751
0.000454485891825219
0.000490180199240925
0.00055212330565013
0.000661150019052235
0.000821953795516857
0.00098501620989853
0.0011620384118943
0.00133306686995484
0.00150366758232857
0.00166741345935665
0.00182659926719128
0.00197950052132252
0.00212709900521807
0.00226909668896193
0.0024059616199401
0.00253777485887965
0.00266481754271839
0.00278725903489301
0.00290531905575469
0.00301918977190614
0.003129081091586
0.00323520455743066
0.00333778840297119
0.0034370787209543
0.00353334885948844
0.00362690016922323
0.0037180700263003
0.00380722487175846
0.00389472157888559
0.00398085752057972
0.00406576770570721
0.00414928286023844
0.00423080476392702
0.00430910393590856
0.00438208848324833
0.00444653437894219
0.00449788930120034
0.00452941585098197
0.00451257248360999
0.0045056558111267
0.00447553928445102
0.00441059741573243
0.00428147616284403
0.00427997605397901
0.00437723418678932
0.00453862017240857
0.00478302219571348
0.00510337747605863
0.0055022404597232
0.00598247189568605
0.00654985931089118
0.00721402523297323
0.00798607467437832
0.00884686543137222
0.00979026264179929
0.0108124107875189
0.0119063166006673
0.0130611937968077
0.0142655173475144
0.015497440688845
0.0167457691932413
0.0180508481991789
0.0194284956717743
0.0208453041991619
0.022368038235513
0.0240548194169544
0.0259098741537965
0.0279858253338391
0.0302788225338915
0.0327588700225661
0.0353018404505475
0.0377449615104047
0.0399043190460746
0.0415326969065079
0.0424352141892287
0.0422604541067443
0.0414340885302872
0.0398167558716132
0.0394994786436369
0.0354385358119892
0.0289792790533341
0.0199970394543937
0.0143272355732873
0.0126719674049376
0.0105313450605247
0.00976779115228721
0.0091706914341335
0.00720448049329888
0.00459546831015949
0.00500301395783947
0.00512568362471786
0.00294751908098137
0.00200693718951171
0.00130047129337603
0.000795040197152146
0.000508237868764002
0.000346156982448014
0.000250868361927034
0.000194858995071839
0.000164350349544762
0.000149624654662315
0.000144633317165305
0.000147570956069379
0.000156892518789864
0.000171761119199469
0.000191417992414418
0.000214543464548499
0.000239105478441853
0.000263917685045401
0.000287762090461359
0.000309242586499312
0.000327117067528972
0.000340677628629012
0.000350341572837789
0.000357906188977466
0.000364822151390104
0.000371848957231884
0.00038110787718896
0.000395568371936273
0.000419277542857944
0.000457527180185903
0.000517609985009156
0.000610669733937574
0.000757715996663101
0.000942643607436761
0.00110966538829926
0.00128104178252507
0.00143704410763767
0.00158832008700137
0.0017302278514797
0.00186684621706378
0.00199738866528255
0.00212331395945379
0.00224466858732313
0.00236202342983971
0.0024755531079467
0.0025855388322904
0.0026921476260773
0.00279555761036481
0.00289590570157658
0.00299331603591069
0.00308788549100007
0.00317968739269724
0.00326876715799234
0.00335514603442857
0.00343881286950028
0.00351973426840603
0.00359785818932259
0.00367307580583867
0.00374519718941851
0.00381387116419224
0.00387845860626371
0.00393800397478936
0.00399114963819765
0.00403610343353263
0.00407063304308292
0.00409245711328732
0.00410276788427996
0.00407190544590162
0.00405938041725731
0.0040332967232431
0.00397986657826839
0.00386604553151585
0.0038939479502752
0.00395997569327776
0.0040780990722755
0.00426042746714321
0.0045060447304501
0.00481610593980437
0.00519272611140414
0.00563938738738642
0.00616308981166957
0.00677217996464187
0.0074470751881815
0.00818731646503222
0.00899160439048521
0.00985599914119616
0.0107731097090549
0.0117362663707045
0.0127307969727859
0.0137554326189475
0.0148462027693929
0.0160124265142104
0.0171451241154762
0.0184644835186985
0.0198986432538352
0.0214659173414453
0.0231959852307094
0.0250433361122621
0.0269768626470058
0.0288932053848744
0.0306353738256054
0.0320200331456648
0.0328209158365064
0.0328622643111316
0.0319921201128763
0.0305574590086641
0.0292390150346161
0.029803352427226
0.0294273853851724
0.0277922303872345
0.0218564122393934
0.0166388589071218
0.014008952768802
0.011403301423872
0.0105482075294368
0.00946948118226798
0.00828340958829359
0.00388886539425277
0.00383777844428434
0.00564679424439891
0.00374196022619954
0.00257555930637026
0.00167592380810654
0.00101578110683132
0.000634937012929212
0.000424123391360983
0.00030350917235948
0.000233307013514443
0.000194033763428432
0.000173091527738599
0.000164118142781513
0.000164379151991169
0.000171583692975911
0.000184345461897059
0.000201497613268166
0.000221443124209877
0.000242273460325749
0.000263038290721341
0.000282674609730265
0.000300002277935626
0.000314150004677037
0.000324956111293575
0.000333441855390182
0.000341770612280343
0.000351264087364656
0.000363097519981298
0.000379858894455456
0.000404892762296
0.00044255038925218
0.000498157554477203
0.000577866032449251
0.00069002156403134
0.00085152015773066
0.0010199907505396
0.00115934809230918
0.00129824124074315
0.00142348523674382
0.00154552159881325
0.00166150849431387
0.00177461503765886
0.00188431769506164
0.00199144470942717
0.00209593808684653
0.00219801643957769
0.00229770316869337
0.00239507594230522
0.00249017039305478
0.00258302636078726
0.00267366388621492
0.00276208519497415
0.00284826241267911
0.00293212891510567
0.00301357016311568
0.00309242575929334
0.00316847123796131
0.00324143314003088
0.00331101380495567
0.00337685348279938
0.00343854415346727
0.00349558443916985
0.00354724757722476
0.00359264452769612
0.00363070785045103
0.00366027813722226
0.0036801445465363
0.00368890270273148
0.00366682839637375
0.00366519288735904
0.00365207021159007
0.00362943506787212
0.00358096598908799
0.00347474217627175
0.0035136221670921
0.00355126153769868
0.00363034341169229
0.00375919830870143
0.00394134203803884
0.00417696762892432
0.00446766566673629
0.00481545342002076
0.00522572831174551
0.00570516813415386
0.0062353699480748
0.00681894591063793
0.00745578475663884
0.00814369805902245
0.0088773533715943
0.00965289227757388
0.0104604747456046
0.0113051651394737
0.0122181847040061
0.0131613075767182
0.0141034303407447
0.0152208364831595
0.0164198350941544
0.0177144788102415
0.0191146214437675
0.0205478009554272
0.0219781889020287
0.0233129575326593
0.0244012542783253
0.0250697768734549
0.0251382644769974
0.0245000246171273
0.0231985724383674
0.021498257416705
0.0204939698770676
0.0212260214075864
0.0220980042279562
0.023091101608912
0.0207947637961403
0.0172667940567405
0.0137271150760152
0.0114783006862731
0.0107857103979092
0.00949128479961813
0.00974755358550131
0.00414024279103951
0.00286986308401837
0.0047659803294926
0.00462322410092998
0.00317868081846412
0.00209340939162846
0.00128363581763005
0.000789661409450423
0.000515350510664598
0.000361764742506374
0.000273523715700539
0.000223110886577784
0.000193770415860784
0.000179638107087259
0.000176403956921509
0.000181102487167711
0.000191919991034528
0.000207427868690011
0.000225828956955492
0.000245250152368215
0.000264675603263211
0.000282854931938407
0.000298620583671711
0.000311430665388307
0.000321636954388935
0.000330707507966483
0.000341026149893255
0.000353905050000516
0.000370879565613797
0.000394687720186786
0.000428622540215267
0.000476566276985258
0.000542547219714238
0.000629985691466451
0.000743074989540882
0.00089383437223264
0.0010229388377543
0.00112906903574621
0.00123524796679704
0.0013353465400619
0.00143476295670501
0.00153226650970425
0.00162897319177139
0.00172455632493864
0.0018190437384984
0.00191228430277245
0.00200416076300808
0.00209457790799062
0.0021834480887894
0.0022707099357638
0.0023563019618525
0.00244016363950989
0.00252221607105952
0.00260235275822876
0.00268042180406461
0.0027562117185547
0.00282945771074466
0.00289980948558227
0.00296684976745347
0.0030301500488521
0.0030892218530521
0.00314357337558995
0.0031927083827266
0.00323594732953071
0.003272575215671
0.00330184218029418
0.00332312241088846
0.00333597899137808
0.00334050841257734
0.00332081700883795
0.00331648736501701
0.00330304762138554
0.00328093739917783
0.00323423275824258
0.00313268770854896
0.00317394641472812
0.00318934489564927
0.00323574529839696
0.00332073527534889
0.00345073172053253
0.00362556672144295
0.00384649379105792
0.00411458218168866
0.00443400059696527
0.0048099970532791
0.00522562329710896
0.00568497831443991
0.00618849499152889
0.00673506970793702
0.00732074354807647
0.00794348849957221
0.00859721847568398
0.00929194196829572
0.0100551280725351
0.0107729572656916
0.0115936527323641
0.0125234624418094
0.0135123100861134
0.0145599842895221
0.0156587127899288
0.0167162030879502
0.0176910363307819
0.018496725503588
0.0189913922801576
0.0190219906002316
0.0184741161553569
0.0173451156248509
0.0158472318222055
0.0141540429646375
0.0135541895151713
0.0138238603063555
0.0156523913819173
0.0175760266905135
0.0177011840320921
0.0158208148297051
0.0122518910740895
0.0106012407005197
0.0102656167327649
0.00909345254962004
0.0105298718464397
0.00518640903685207
0.00266597278876555
0.00288232696559226
0.0052394760296248
0.00360332946853959
0.00249992493387313
0.00157933555459942
0.000975784668826074
0.000628160544601051
0.000433192333846743
0.000321665703995256
0.000257104688679538
0.000217027837059049
0.000196845867169418
0.000189911839928756
0.000192568480191392
0.000202449713012943
0.000217613029538985
0.000235698230838458
0.000254494314480961
0.000272726857136421
0.000289098931810864
0.000302799715736024
0.000313885067572161
0.000323224737849913
0.000332534871815385
0.000344222134248054
0.000359498391241316
0.00038004058450604
0.000408380960084195
0.000447305576657994
0.00049961975190441
0.000567503322324114
0.000651699941126059
0.000753252290867246
0.000882119139475409
0.000972995889622844
0.00105373030830897
0.00113578144992123
0.00121896268011144
0.00130292256388069
0.00138804375320714
0.00147358855093673
0.00155950497764389
0.00164521746906304
0.00173054811207497
0.00181515344971208
0.00189886901958782
0.00198150104390064
0.00206292783615186
0.00214302478758588
0.00222168274748743
0.00229877576126268
0.00237415453043968
0.00244762309462557
0.00251891674245871
0.00258772051669795
0.00265361582831139
0.00271609661669554
0.00277467025912256
0.00282877802321382
0.00287789732412001
0.00292160404252582
0.00295928978780195
0.00299040487722551
0.003014427548117
0.00303107751211882
0.00304023996884211
0.0030242148729196
0.00302471026616717
0.00301804653049971
0.00300332645816304
0.00298044909762821
0.00293490131809221
0.00283691099736076
0.00287667788687534
0.00287554736498343
0.00289517978702537
0.00294431040940154
0.00303123614110884
0.00315590269771858
0.00331936101999877
0.00352200516374726
0.00376690862827527
0.00405796957452028
0.00437962163588546
0.00473655121036336
0.00512939936614026
0.00555778378784873
0.00601874476796198
0.0065115933859644
0.00703341973255861
0.00759845840577456
0.00823109754209359
0.0087296715901106
0.00946330547768294
0.01022597498602
0.0110244801439046
0.0118460386906036
0.0126670389860599
0.0133796456781499
0.0139368687084276
0.0142572460284158
0.0142120179567504
0.0136777535323448
0.0126213166120927
0.0111678896933821
0.00966079243538439
0.00816220468186942
0.00801460112295513
0.00843092873964188
0.0104943418016215
0.0125947757814016
0.014001422346387
0.0132834584625057
0.0102074194905973
0.00915447262234839
0.00915276457484803
0.00844367854179246
0.0101469873047595
0.00678473767381845
0.00291263816706914
0.00155418345711136
0.00429381918250016
0.00396394635879354
0.00288930411847156
0.00187416716940754
0.00118040061849718
0.000761203802417189
0.00052111166746808
0.000382513604647441
0.000301599677819047
0.000248569506201498
0.000221324875429576
0.000210157561489494
0.000210562237771909
0.000219304706487814
0.00023358298361641
0.000250291422391689
0.00026697267418346
0.000282399392468248
0.000295645685056248
0.000306486719133563
0.000315492745541789
0.000323761988922005
0.000332964909611498
0.000345337525808467
0.000361860448409748
0.000384129687262165
0.000414229383239419
0.000454192524998303
0.000505613148587617
0.000569095612297002
0.000643699385456163
0.000729022729323027
0.000835575751388328
0.000897739638642471
0.000960886011000532
0.00102628607336396
0.00109787106374985
0.00117095568692746
0.00124719175356379
0.00132457026578356
0.001403264157849
0.00148231983602575
0.0015615459514462
0.00164046170270518
0.00171885538821045
0.00179646692918785
0.00187313414685118
0.00194869320994003
0.00202300549463136
0.00209591954959471
0.00216726639797528
0.00223683435182015
0.00230433256611125
0.00236943386291151
0.00243168989216298
0.00249053332070596
0.00254544839046124
0.00259582993773558
0.00264113289586469
0.00268103895652595
0.00271498922051925
0.00274255970422172
0.00276334886895132
0.00277726973482164
0.00277618644779838
0.00276975711694955
0.00276758418900217
0.00275870356901007
0.00274229530019404
0.00271874305083973
0.00267481566290465
0.00257979535303101
0.00261631968581803
0.00260311971462995
0.00260100349561661
0.00262061182531756
0.00267152876315139
0.00275409996965311
0.00286926721770272
0.0030168847405319
0.00319899921765693
0.00341823770790003
0.00366025700136076
0.00392981786502632
0.00422756972422409
0.00455364197122053
0.00490586002597214
0.00528461927299233
0.00568982806793354
0.00613950994812942
0.00658976323962443
0.00700347838183669
0.00760970376866576
0.00821948195820968
0.00884145153478116
0.00945150973369293
0.0100117369709258
0.0104018704449575
0.0105699199370404
0.0104401311247127
0.009901824264551
0.00886848880430813
0.00740189677290791
0.00577373738440406
0.00441226639020929
0.00323031519263353
0.00353334123234221
0.00435246877420237
0.00641621181617993
0.0084522514166498
0.0104561670123264
0.0104639242552438
0.00801817656529095
0.00748449236635255
0.00769093995958488
0.00767023704790249
0.00881475268502886
0.0086021756099527
0.00321592005353487
0.00102614821516303
0.00223233837091033
0.00445982787817514
0.00321190846608592
0.00216677532213745
0.00139164292035071
0.000906027312558643
0.000621463924295238
0.000454832563836878
0.000352241114223297
0.000289740514462353
0.000254215068176004
0.000237548517491518
0.000234330844271707
0.00024032331188539
0.000251828897094216
0.000265211005370945
0.000278122726166259
0.000289638486631359
0.000299297504467535
0.000307293896067939
0.000314400640558259
0.00032165502563257
0.000330508401832912
0.000342941804367155
0.000359633875668048
0.000381959703776805
0.000411473012280747
0.000449450504575979
0.000496498610115778
0.000552242602241457
0.000615036333841706
0.00068423553005668
0.000772077316508005
0.000814397624180979
0.000864901114504908
0.000918598561193365
0.00098149515208062
0.00104639346119057
0.00111564659526613
0.00118654606323318
0.00125936458539801
0.00133294928415073
0.00140707938195309
0.00148119679027081
0.00155504918564344
0.00162833431783779
0.00170085939243454
0.00177243543569421
0.00184290547996134
0.00191210575280486
0.0019798621944416
0.00204596817991095
0.00211012163994246
0.00217201183914663
0.00223118951394029
0.00228522664618561
0.00233576827600304
0.00238421195645588
0.0024289863301639
0.0024661640175741
0.00249753175292378
0.00252275561769285
0.00254145441070668
0.0025467599567233
0.00254299695230439
0.0025448299348001
0.00254048163912225
0.00252956927927892
0.00251173873335987
0.00248830964795033
0.00244674546443083
0.00235430690192851
0.00238683172609582
0.00236484262216353
0.0023451464995792
0.00234025197704508
0.00236071283055852
0.00240740200427487
0.00248121749878208
0.00258154228908141
0.00270946055677791
0.00286642641525573
0.00303915451261084
0.00323219098107496
0.00344606980465833
0.00368131200430749
0.00393640596446487
0.00421269775590957
0.00451268010577337
0.00485792306850489
0.00510844740890837
0.00549116160470783
0.005964128370527
0.00643082460847009
0.006885697058011
0.00729428783168548
0.00760581103009663
0.00769027713694886
0.00749185741663867
0.00694182052242859
0.00595119917800994
0.00447212018880356
0.00268319517596242
0.00102281711020375
-4.79688018842428e-05
-0.000842146787960838
-0.00012871616299258
0.00103436486798238
0.00315160361517421
0.00508596563206352
0.00732585976847639
0.00776970256751677
0.00590901847732679
0.00579420472583322
0.00609484554642956
0.00680248129519564
0.0070878373118821
0.0101083759380015
0.00344959792235632
0.000949675206337354
0.000516558464365913
0.00460265848329263
0.00348603852350405
0.00248336658407238
0.00161270217543096
0.00105864960801656
0.000728864409158485
0.000534516330659661
0.000412313183490006
0.000337642404506681
0.000292819228056146
0.00026917830100351
0.000260578180751112