/*--------------------------------*- C++ -*----------------------------------*\
  =========                 |
  \\      /  F ield         | OpenFOAM: The Open Source CFD Toolbox
   \\    /   O peration     | Website:  https://openfoam.org
    \\  /    A nd           | Version:  7
     \\/     M anipulation  |
\*---------------------------------------------------------------------------*/
FoamFile
{
    version     2.0;
    format      ascii;
    class       volScalarField;
    location    "20000";
    object      nut;
}
// * * * * * * * * * * * * * * * * * * * * * * * * * * * * * * * * * * * * * //

dimensions      [0 2 -1 0 0 0 0];

internalField   nonuniform List<scalar> 
15600
(
1.16774650825295e-09
1.24122044717742e-09
9.98757379738781e-10
6.75723123081287e-10
3.65837528407492e-10
1.58833217217524e-10
5.6303146025244e-11
2.99274513063567e-11
2.39072746421211e-11
1.73023072216624e-11
1.10589145081376e-11
7.2617191788815e-12
5.26140343848518e-12
4.14140116160539e-12
3.51676559459966e-12
3.24907429457217e-12
3.27677404111769e-12
3.5494955400647e-12
4.08247299482889e-12
4.90286671607517e-12
6.09491362720842e-12
7.77798383450996e-12
1.00967806017071e-11
1.32064374994366e-11
1.73301304510251e-11
2.27807388073577e-11
2.98933815582813e-11
3.90033017870701e-11
5.04174531336547e-11
6.43651873882215e-11
8.0984093591777e-11
1.00366842410772e-10
1.22266203820524e-10
1.45761047147064e-10
1.69589931234471e-10
1.9170816080567e-10
2.10418321412648e-10
2.25871581411915e-10
2.42005940467037e-10
2.64584082842595e-10
3.0848645806112e-10
3.99512609051499e-10
5.03598620370972e-10
6.13821273855266e-10
7.2777385126279e-10
8.44053506849371e-10
9.60848877549608e-10
1.07725062209538e-09
1.19232211507939e-09
1.30550943078645e-09
1.41628322373756e-09
1.52426230206369e-09
1.62909033831254e-09
1.73047569919131e-09
1.82815825469997e-09
1.9219309666205e-09
2.0116437429184e-09
2.09722684624545e-09
2.17871191977015e-09
2.25625980694281e-09
2.33018742404269e-09
2.40099432063827e-09
2.46938643069824e-09
2.53629768038679e-09
2.60290961593249e-09
2.67067159167192e-09
2.74132475406015e-09
2.81693366370833e-09
2.89993069630692e-09
2.99317644836063e-09
3.10004072436271e-09
3.22451349733976e-09
3.37133257691587e-09
3.54612724638507e-09
3.75576528483225e-09
4.00889270808126e-09
4.31706417306404e-09
4.71171626907709e-09
5.22898346364258e-09
5.59366459963566e-09
4.78961841907051e-09
4.30141640037533e-09
4.07310898236459e-09
3.9508348170531e-09
3.87694776418001e-09
3.82137863068127e-09
3.76709694008392e-09
3.70420329407347e-09
3.62546123036758e-09
3.54456360457272e-09
3.51415240882882e-09
3.52293327251168e-09
3.54964715913076e-09
3.5818083015416e-09
3.61293202905282e-09
3.63712833574485e-09
3.65038700336956e-09
3.62301146525782e-09
3.51775390855311e-09
3.35005279559183e-09
3.14347755660733e-09
2.91807052570189e-09
2.68957796968109e-09
2.47928760034359e-09
2.29247915824667e-09
2.17058741294879e-09
2.12650952777953e-09
2.15389933774341e-09
2.26167361415852e-09
2.46846451414075e-09
2.81032594609264e-09
3.33023714925751e-09
3.97682076923733e-09
4.48149509458779e-09
3.91354312239954e-09
3.17671110565097e-09
2.3894457807829e-09
1.75331453086868e-09
1.31728265619801e-09
1.19853307965644e-09
2.22266541509999e-07
2.35542431962007e-07
1.89528015943733e-07
1.27977901752978e-07
6.988734395397e-08
3.09473739823122e-08
1.11728603917554e-08
5.86610908764611e-09
4.65327479870624e-09
3.39474678695102e-09
2.18628455115741e-09
1.43559359453636e-09
1.03597354474261e-09
8.12153981737815e-10
6.86572418350029e-10
6.30821487130377e-10
6.32658011289744e-10
6.82120860334515e-10
7.815572334823e-10
9.35699178450649e-10
1.16019693952321e-09
1.47757288629074e-09
1.9154399537965e-09
2.50364965384708e-09
3.28429501473369e-09
4.31696437718886e-09
5.66643859938171e-09
7.3982051023394e-09
9.57310995693143e-09
1.22377621213661e-08
1.54198374721086e-08
1.91360932649076e-08
2.33428223597847e-08
2.7855343550375e-08
3.24407585958995e-08
3.67064222253782e-08
4.03213387230324e-08
4.33099998994608e-08
4.64264818780076e-08
5.06660264872557e-08
5.87830281803762e-08
7.60431782023413e-08
9.58094094768284e-08
1.16755157060331e-07
1.3841119371764e-07
1.60518053700816e-07
1.82724898188075e-07
2.04859831654509e-07
2.26742481710719e-07
2.48267819333566e-07
2.69334851368191e-07
2.89871543422193e-07
3.09810407103401e-07
3.29096358016775e-07
3.47680081422869e-07
3.65522144847479e-07
3.82593597970478e-07
3.98880386098121e-07
4.14387295872555e-07
4.29143239343073e-07
4.4320638272625e-07
4.56669232879871e-07
4.69663185175665e-07
4.82362657163625e-07
4.94988838174393e-07
5.07813542901528e-07
5.21163792871041e-07
5.35427882325843e-07
5.51063959655565e-07
5.68611805612478e-07
5.88708924844167e-07
6.12113568971457e-07
6.39732207450778e-07
6.72651054097411e-07
7.12224308374364e-07
7.60222508534622e-07
8.18983493194213e-07
8.9492045302067e-07
9.89849174051274e-07
1.04713951106033e-06
9.02735241220002e-07
8.14897727046562e-07
7.73800945694554e-07
7.51898911145158e-07
7.38735194743571e-07
7.28771692241773e-07
7.18866927631605e-07
7.07187627677691e-07
6.926458668606e-07
6.78295713569048e-07
6.73497680204305e-07
6.75754217732902e-07
6.81121844454281e-07
6.87354852577126e-07
6.93265546802095e-07
6.97752835974964e-07
6.99845111662146e-07
6.93824936789288e-07
6.73049602603755e-07
6.40702440030777e-07
6.01202805592315e-07
5.58246219620484e-07
5.14854263955797e-07
4.74978674745236e-07
4.3979828982725e-07
4.17024390112362e-07
4.08901825550727e-07
4.14250273476729e-07
4.3470572388117e-07
4.73616053816886e-07
5.37294410399242e-07
6.32582455876708e-07
7.48689528877994e-07
8.36450845775832e-07
7.31152402074018e-07
5.87364551898204e-07
4.4176411447498e-07
3.26527974901735e-07
2.47589677925468e-07
2.28087236989066e-07
4.65258340454008e-06
4.91452776129914e-06
3.96558731679997e-06
2.65368494590917e-06
1.46842532268063e-06
6.79253161791318e-07
2.54252116334101e-07
1.32658147049515e-07
1.04443744881993e-07
7.68782423349594e-08
4.99461297322621e-08
3.2840066086777e-08
2.36300378723473e-08
1.84656172580718e-08
1.55523572553546e-08
1.42172825438775e-08
1.41793387739974e-08
1.52156078902318e-08
1.73589007800197e-08
2.07044244674094e-08
2.55872479352839e-08
3.24954241502128e-08
4.20365133527127e-08
5.48823210556592e-08
7.19554475394518e-08
9.45647874446335e-08
1.24162970487465e-07
1.62243579164533e-07
2.10223315566134e-07
2.69216102452614e-07
3.39844321798669e-07
4.22358969334263e-07
5.15973825575945e-07
6.16061070582126e-07
7.17226250346968e-07
8.11320278389091e-07
8.91184372182198e-07
9.57514994414526e-07
1.02262836888226e-06
1.10509601795957e-06
1.26241781511798e-06
1.62464783260574e-06
2.04289259530284e-06
2.48625487186414e-06
2.94459731210208e-06
3.41249119511537e-06
3.88227759510523e-06
4.35038795905815e-06
4.81293449197307e-06
5.26776981702432e-06
5.71277864234644e-06
6.14650788464801e-06
6.56757265100391e-06
6.97485416313823e-06
7.36732994763121e-06
7.74416769560637e-06
8.10472615733681e-06
8.4486487793369e-06
8.7759432604315e-06
9.08709443109456e-06
9.38317407061937e-06
9.66595152384391e-06
9.93799292001959e-06
1.02027522650633e-05
1.04646544068934e-05
1.07291804932741e-05
1.10029697570114e-05
1.129395483971e-05
1.16115565679615e-05
1.1966960076558e-05
1.23735066555676e-05
1.2847281635428e-05
1.34079115247897e-05
1.40796290780804e-05
1.48936580578813e-05
1.58923417082176e-05
1.71312857723856e-05
1.86950142987533e-05
2.03724751122484e-05
2.10801468159541e-05
1.84095861062324e-05
1.68915878492392e-05
1.61675497571953e-05
1.57845738901623e-05
1.5556089234529e-05
1.53807692619903e-05
1.51999191885514e-05
1.49799350674782e-05
1.47082586107032e-05
1.44559397216761e-05
1.43925432523745e-05
1.44602083704957e-05
1.45838454609173e-05
1.47214052541902e-05
1.48495668300684e-05
1.49458321395734e-05
1.49854055235754e-05
1.48513091127605e-05
1.44161967201662e-05
1.37467429829399e-05
1.29295749105798e-05
1.20364346956139e-05
1.11313892867724e-05
1.02932248206144e-05
9.55168022369741e-06
9.060473771737e-06
8.86803849016403e-06
8.95107627215541e-06
9.3361297039271e-06
1.00785737899067e-05
1.12803220466441e-05
1.30371729938592e-05
1.51116911202376e-05
1.66741272630237e-05
1.48467263468931e-05
1.15909026863996e-05
8.58287640196929e-06
6.38437675262737e-06
4.94870344942213e-06
4.71317058636014e-06
3.08714168404271e-05
3.27957449543652e-05
2.71072688701617e-05
1.815014018768e-05
1.02743320880536e-05
5.16205981260324e-06
2.11161301667464e-06
1.11205139685781e-06
8.67192761015717e-07
6.44712212294948e-07
4.22965505856546e-07
2.78691317798753e-07
2.00041322965756e-07
1.55838881282656e-07
1.30760547657872e-07
1.18900834414889e-07
1.17862543367173e-07
1.25807973115961e-07
1.42749803713401e-07
1.69415212094131e-07
2.08402771718749e-07
2.63556216292451e-07
3.39748739609348e-07
4.42504824074069e-07
5.79157951892752e-07
7.60125569229781e-07
9.97213724561753e-07
1.30272593844153e-06
1.6884470279039e-06
2.16351520329512e-06
2.73199443535956e-06
3.39366406380319e-06
4.14293073477674e-06
4.94295458928875e-06
5.73470380180569e-06
6.45944780193769e-06
7.06625972434225e-06
7.54448247932626e-06
7.94410188749522e-06
8.40936071268735e-06
9.40624322214542e-06
1.20011105670829e-05
1.49961129789229e-05
1.81622300075546e-05
2.14183592497685e-05
2.47270583150293e-05
2.80291445390129e-05
3.13021683664815e-05
3.45176346342389e-05
3.76630610053951e-05
4.07245183801794e-05
4.36941359096876e-05
4.6563805302579e-05
4.93276460442323e-05
5.19800428022165e-05
5.45166116383757e-05
5.69339149098918e-05
5.92301615242546e-05
6.14056315086261e-05
6.3463436276161e-05
6.54102139256852e-05
6.72568640876861e-05
6.90192031019069e-05
7.07185861201403e-05
7.23824734296976e-05
7.40450089918311e-05
7.57476957810759e-05
7.75402667765465e-05
7.94819383137983e-05
8.16432016973147e-05
8.41083331357459e-05
8.69791737499657e-05
9.03804237078667e-05
9.44660957451226e-05
9.94305812584219e-05
0.000105525907957918
0.000113045413488956
0.000121539368035429
0.000129682250126547
0.000131138216188798
0.000116417626075935
0.000109353003999539
0.000105812636308116
0.000104058437820375
0.000103084596712998
0.000102380164031309
0.00010162481056932
0.000100641536253351
9.94000102232216e-05
9.83515085619407e-05
9.83819102231822e-05
9.90933933092542e-05
0.000100080050552672
0.000101114678847389
0.000102063923146155
0.000102793279323727
0.000103132371138543
0.000102381657164868
9.98251927674859e-05
9.5848304799096e-05
9.09204908353132e-05
8.54328337231528e-05
7.97739186150025e-05
7.44097958827792e-05
6.95702964813512e-05
6.62221721025697e-05
6.47340638864168e-05
6.49741494136637e-05
6.70600304685063e-05
7.12368567831858e-05
7.7942301727864e-05
8.75384937043282e-05
9.83772777968316e-05
0.000106758861537494
9.65458881237122e-05
7.46839673239687e-05
5.39256570806207e-05
3.9700170097571e-05
3.10440541323244e-05
3.04285334819919e-05
9.985411650096e-05
0.000107270633553614
9.31015719296967e-05
6.40593921241565e-05
3.6970506504044e-05
2.04260811474681e-05
9.9606524253865e-06
5.45382207254316e-06
4.25152512275241e-06
3.19612506003085e-06
2.11932620634612e-06
1.40012288404549e-06
1.00268439235756e-06
7.78558265132858e-07
6.50581989768808e-07
5.88084586645243e-07
5.78894314090216e-07
6.14064806048234e-07
6.91726064958349e-07
8.15396596589975e-07
9.96463085616428e-07
1.2522604625843e-06
1.60521530123843e-06
2.08126591458631e-06
2.71334173232811e-06
3.54824071917679e-06
4.6395549029194e-06
6.04258497209297e-06
7.80829445408823e-06
9.97062848061627e-06
1.2531436177615e-05
1.54668507290559e-05
1.87407798229709e-05
2.21697516071455e-05
2.54780647645079e-05
2.83611949795606e-05
3.05715775175663e-05
3.20432212227363e-05
3.30127377816581e-05
3.41838400365988e-05
3.77079958897549e-05
4.77039716251226e-05
5.8910750459508e-05
7.06855371587732e-05
8.2575956497362e-05
9.4497359645294e-05
0.000106194322328231
0.000117629033261435
0.000128697536065991
0.000139386818680976
0.000149659658647763
0.000159511287629202
0.000168928340380294
0.000177907794952783
0.000186444018666125
0.000194535269092129
0.000202180781281962
0.000209383931433908
0.000216152961734729
0.000222503563677435
0.000228460832882902
0.000234061572279757
0.000239356282912985
0.000244411170777809
0.000249309940918662
0.000254155573968707
0.00025907230329918
0.000264207954114207
0.000269737218633835
0.00027586624698311
0.000282838536542684
0.000290943278888271
0.00030052576891079
0.000311994750461063
0.000325822706995049
0.000342509695152422
0.000362199983070784
0.000382945052232873
0.000400012804658462
0.00039712599203797
0.000359240897555166
0.000343680012464284
0.000335259975315957
0.000331626003181106
0.000329919103797933
0.000328963144392796
0.000327901190051377
0.000326295782588822
0.00032415266171781
0.000322727665197409
0.000324093151788255
0.000327029341612369
0.000330544193213953
0.000334076277015874
0.000337281233946991
0.000339799085538102
0.000341118742868127
0.000339362564831987
0.000332764584276646
0.000322329430484775
0.000309187395844507
0.00029427863188173
0.000278618755439589
0.000263438688702039
0.000249457109802826
0.000239495254940496
0.000234802229193948
0.000235072435882278
0.000240611258710413
0.000251980999579381
0.000270080826788181
0.000295729616503212
0.000323462997203353
0.000346136312344147
0.000318353900174898
0.000252882014964411
0.000182278947394972
0.000132378939560875
0.000101007011455662
9.79589937852487e-05
0.000217420148611543
0.000232733935333192
0.000211347776779581
0.00015290357518562
8.83000584852166e-05
5.15073425630854e-05
3.06363427090407e-05
1.8830980757766e-05
1.50667841836619e-05
1.1507924167678e-05
7.73219126996733e-06
5.12872156110708e-06
3.66578420201064e-06
2.83610216986481e-06
2.35857540020486e-06
2.11726522516428e-06
2.06672843789539e-06
2.17435158699258e-06
2.42603811199534e-06
2.83322289505723e-06
3.43028500330078e-06
4.271628592684e-06
5.42909329550513e-06
6.98627596706539e-06
9.04263049222692e-06
1.17390889005679e-05
1.52340935543591e-05
1.96801776243192e-05
2.51961063794234e-05
3.18165654469337e-05
3.94453439109956e-05
4.79043643060477e-05
5.70142395097023e-05
6.61474031198186e-05
7.44778637952105e-05
8.1181069027182e-05
8.5696322657895e-05
8.8064928896297e-05
8.92465287577625e-05
9.17165907612324e-05
0.000101363333895252
0.000127469540947723
0.000154997458325449
0.000183746029436808
0.000211844998652998
0.000239528289325644
0.000266045429273702
0.000291538344017475
0.000315771548588422
0.00033884028492109
0.000360700051308953
0.000381412181105362
0.000400987457091853
0.000419465049541437
0.000436865801621046
0.000453217354110521
0.000468543083330099
0.000482871919896973
0.000496238614434964
0.00050868986137754
0.000520287956103063
0.000531115697187876
0.000541280428744059
0.000550918373920286
0.000560198387786448
0.000569325469046445
0.000578544479325276
0.000588143963597106
0.00059846124353122
0.000609889468113752
0.000622884992830413
0.000637975911817898
0.000655767418418802
0.000676927819770397
0.00070212907702715
0.000731889257885217
0.000764957377522666
0.000797594548006465
0.000819163115376281
0.000804357992592514
0.00074076447534676
0.000716677866442494
0.000702740298582658
0.000697569950806619
0.000695676091180542
0.000695249102139125
0.000694744254969262
0.00069346763717218
0.000691588598855079
0.000691352368700257
0.000695852028880596
0.000702767912996439
0.000710494180421562
0.000718095068444099
0.000724966473443879
0.000730452149927283
0.000733517491133697
0.000730847434527702
0.000719645565964525
0.00070167850620536
0.000678788540227168
0.000652506325436679
0.000624698627615056
0.000597437494155608
0.000572125949126716
0.000554035271684641
0.000545648251332813
0.000546458698856643
0.000557026772328238
0.000578281046486189
0.00061142411751949
0.000657907997520798
0.000706122001290791
0.000747617183276606
0.000698968599213013
0.000578438666286918
0.000428590327195013
0.000314789839894859
0.000233345585010425
0.000218284300372913
0.000388666970016401
0.000408794516460746
0.000381003727327576
0.000293032475176678
0.00016904917951264
9.76447237785597e-05
6.65867098197888e-05
4.88097737068542e-05
4.19810911375981e-05
3.31004416781271e-05
2.27095329482347e-05
1.51885746435796e-05
1.0853329638932e-05
8.36660764829577e-06
6.91914105394234e-06
6.15992762498472e-06
5.95079980957025e-06
6.19204578154853e-06
6.82233226121486e-06
7.86792503324311e-06
9.40661966527347e-06
1.1568990761555e-05
1.45305253760604e-05
1.84916265826261e-05
2.36679985837971e-05
3.0363790979613e-05
3.88982257685731e-05
4.95259688211374e-05
6.23536627887265e-05
7.72231592432279e-05
9.3661069681938e-05
0.000111087571446508
0.000129008310589339
0.000146011948322159
0.000160543125716307
0.000171298002975493
0.000177738470942298
0.000180639319115593
0.000182644099866793
0.000189322988440582
0.000211627831653062
0.000264012492020492
0.000315143035578341
0.000368285097497772
0.000418191800941556
0.000466654973950888
0.000512004208864983
0.000555039470246968
0.000595345251578388
0.0006333152642816
0.000668925657523299
0.000702386358928785
0.000733764835676238
0.000763183533337827
0.00079071443006731
0.000816438362292704
0.000840420650907566
0.000862731956525027
0.000883447440355853
0.00090265789920082
0.000920475418217641
0.000937041660417818
0.000952534432489432
0.000967175090261134
0.000981234757485588
0.000995039652965479
0.00100897654280442
0.00102349714401858
0.00103912329661995
0.00105645430796446
0.00107617059734131
0.00109903264403356
0.00112586239127688
0.00115747458058747
0.00119448708778451
0.00123673176092335
0.00128153468349255
0.00132206380892999
0.00134194966025148
0.0013111084398965
0.00122534274214097
0.00119342133595353
0.00117445095120132
0.00116835356173916
0.00116695148722736
0.00116788362230267
0.00116891357655137
0.00116916668492436
0.00116908891282118
0.00117184861072682
0.00118111314265236
0.00119347996314294
0.00120679458123771
0.00121974841116102
0.00123144457495744
0.00124087113862641
0.00124631730162159
0.00124303369998642
0.00122745523658923
0.00120212734580677
0.00116949627896472
0.00113182665035596
0.0010919265906825
0.00105264027424091
0.00101618820150759
0.000990400553501969
0.000979045019427336
0.000981351465154192
0.000998072996642236
0.00103041401078867
0.00107956765694171
0.00114765636436101
0.00121584668355538
0.00127654595973554
0.00120836663448625
0.00103666331181572
0.000796431460394207
0.000604150335952843
0.000444401377914542
0.000402410411419984
0.000620256721213158
0.000637746346078312
0.000600955447215997
0.000488033316656369
0.0002896249867158
0.000158190290509423
0.000112717478780516
9.79577604452786e-05
9.36200509602599e-05
7.89181441383278e-05
5.62153192820307e-05
3.82899779828622e-05
2.74893218468898e-05
2.11449720074005e-05
1.73844653741346e-05
1.53291442783126e-05
1.46231075882269e-05
1.499882054146e-05
1.62634108519948e-05
1.84586424508759e-05
2.17214154780653e-05
2.63047066396645e-05
3.25521472795969e-05
4.08357612443853e-05
5.14985424155448e-05
6.50281970627716e-05
8.18669307013041e-05
0.000102227341331725
0.000125942607243038
0.000152321689170764
0.000180219957264771
0.000208528608855181
0.000236395655650719
0.000261565417849194
0.00028200100477925
0.000296375020837034
0.000304809243613284
0.000309508210606562
0.000315483081891991
0.000331920049979623
0.000374728473458325
0.000460904287254842
0.000539462651959276
0.00062091184968664
0.000694769889739641
0.000765951139740272
0.000831438399515602
0.00089314388054039
0.000950408167825042
0.00100404713143762
0.00105406004979364
0.00110084147529374
0.00114452433269195
0.00118532737274602
0.00122338059701098
0.00125882495192542
0.00129177332541834
0.00132234367293039
0.00135065707231277
0.00137685414779893
0.00140110285970971
0.00142361041972767
0.00144463243279315
0.00146448370647978
0.00148354711252835
0.00150228015243864
0.00152122165056299
0.00154099495699237
0.00156230983546309
0.00158596655979246
0.00161284840030024
0.00164389913723374
0.00168006063275217
0.00172212366274467
0.00177041272411856
0.00182336841789694
0.00187699883763458
0.00192100424431337
0.00193483326097307
0.00188750353730666
0.00178442947877528
0.00174522190302804
0.00172224813198373
0.00171586176242516
0.00171569626248511
0.00171882792495305
0.00172240792676426
0.00172544950851046
0.00172872048228743
0.00173612123723749
0.00175148776458141
0.00177049630063646
0.00179049726126024
0.00180981137830814
0.00182721569118949
0.00184128452166
0.00184952573255304
0.0018458828765984
0.00182631050963019
0.00179407747453274
0.00175200533975158
0.00170350332564413
0.00165215435911707
0.00160151954325609
0.00155474401861476
0.00152208294485219
0.0015085041924329
0.00151291076374098
0.00153612394047923
0.00157944868078545
0.00164383269166858
0.00173197039168449
0.0018180466345433
0.00189608178872737
0.00181081100778284
0.00159660502007037
0.00126744216705398
0.000996999324792228
0.000741756231202891
0.00065846365217843
0.000915234117034287
0.00092009931880049
0.000872097011458252
0.000731760424841472
0.000466725456825086
0.000236838596737901
0.000164966872014295
0.000157719019935013
0.000167896858967606
0.000157454274519707
0.000119226202316447
8.39831580416073e-05
6.11591843832622e-05
4.71447799251901e-05
3.85826742932972e-05
3.36815058348978e-05
3.16708679386643e-05
3.19213943724134e-05
3.39644395599728e-05
3.78353747971653e-05
4.37237327799855e-05
5.20395915573846e-05
6.3339402345973e-05
7.81696566828814e-05
9.69212527345179e-05
0.000120187081625275
0.00014835894281791
0.000181331965690084
0.000218345991510077
0.00025792479578336
0.000298192810417757
0.000337629378715221
0.000375150704875344
0.000407912004393554
0.000433878825865676
0.00045223223570461
0.000464256800891862
0.000473929461981078
0.000488729409957126
0.000521142896613695
0.000590722242633397
0.000713269572388561
0.000820110833518604
0.000930615225812068
0.00102849364348373
0.00112254375401033
0.00120821590726948
0.00128867892392543
0.00136300476423757
0.00143243646234834
0.00149699421287779
0.00155724754269174
0.00161339326644321
0.0016657406820678
0.0017144769747603
0.00175980164087447
0.00180187599177971
0.00184086656671498
0.00187694286476354
0.00191029832219744
0.00194116031661562
0.00196980555845856
0.00199657146362487
0.00202187036306115
0.00204620101694585
0.00207015521246839
0.00209442500027899
0.00211980249094587
0.00214717387146915
0.00217751660873112
0.00221187310402723
0.00225129662929235
0.00229672978837882
0.00234875568097487
0.00240697427519703
0.00246871742080662
0.00252814157406153
0.00257211112829911
0.00257770217841778
0.00251547657597224
0.00239956823827748
0.00235363737191788
0.00232786892652135
0.00232183319338432
0.00232367635401394
0.00232984231586328
0.00233697859419605
0.0023440240016709
0.00235205110228762
0.00236546553965933
0.00238798120627056
0.00241454845751487
0.00244205292804327
0.00246844388460003
0.00249214079308615
0.00251125389180212
0.00252245882598634
0.00251857868251482
0.00249533821678335
0.0024565562660805
0.00240539728208473
0.00234668898792389
0.0022845788276989
0.00222329534077278
0.00216698195212772
0.00212806667063071
0.00211257363852731
0.00211904352019912
0.00214825252414349
0.00220141226227042
0.00227916605886332
0.00238464211415975
0.00248620857808047
0.00257898421013603
0.00247921921008483
0.00223094079812338
0.00181993705490356
0.00147805141904739
0.0011227867795571
0.000987332581621551
0.00127256344338511
0.0012542813973436
0.00119608066968751
0.00101291614457733
0.000716990611707965
0.000341958106600017
0.000224038801256128
0.000218627298310931
0.000251538400014077
0.000265549940833785
0.000218390501637648
0.000161534005688401
0.000120789371731437
9.40144865799769e-05
7.6872952728288e-05
6.6528364410155e-05
6.16409040952891e-05
6.09432355039783e-05
6.35361310354756e-05
6.93868177367865e-05
7.86938035068112e-05
9.20208748173499e-05
0.000110120390389854
0.000133619832023841
0.000162774563808533
0.000198111645680381
0.000239719051597057
0.000286904648724621
0.000338124461893226
0.000391103018961774
0.000443414830619332
0.000493373526391277
0.000539863891951031
0.000579843481125612
0.00061171931156687
0.000635541090978546
0.000653957152945253
0.000672682170861817
0.000701327611746363
0.00075484688554214
0.000854589489044966
0.00101233548173679
0.00114709390929116
0.0012856931429668
0.00140704114638443
0.00152343200851702
0.001628998687225
0.00172799438139535
0.00181928546478375
0.00190446320816241
0.00198358236588336
0.00205735525460065
0.00212604250163492
0.00219003189550348
0.00224956647671065
0.00230490087642498
0.00235624521849225
0.00240381516984225
0.0024478305806362
0.00248853978794729
0.00252623181583232
0.0025612549801777
0.00259402975529615
0.00262506617089626
0.00265497808967055
0.00268448801997346
0.00271443436266474
0.00274576578348713
0.0027795218490474
0.00281682089345623
0.00285880825044423
0.0029065646122215
0.00296091809773835
0.00302210393701141
0.00308869064314313
0.00315715644591868
0.00321974182004528
0.00326132217585527
0.00325813490795737
0.00318348123747566
0.00305853338754327
0.00300664280853319
0.00297928347127775
0.00297424760002292
0.00297885565866362
0.00298885373086893
0.00300049175198534
0.00301264361538754
0.00302662811223391
0.00304713756563295
0.00307757528636522
0.00311234519761867
0.00314788631851363
0.00318177544779548
0.00321204826632572
0.00323631461739654
0.00325041846014628
0.00324627684725231
0.00321958138836582
0.00317439742546547
0.00311454976231812
0.00304620819525723
0.00297394435615578
0.00290259797316844
0.00283734046300469
0.00279245246805762
0.00277483531034062
0.00278266516736731
0.00281660759543181
0.00287761522543381
0.00296617267745592
0.00308578742468864
0.00320068486117629
0.00330571600873625
0.00319416846128444
0.00291832909953262
0.00243569418844041
0.00203013864531698
0.00157924149998403
0.00138461338445894
0.00168859752798278
0.001637530500379
0.0015726912753991
0.00132504396260803
0.00104503890767102
0.000486454340346186
0.000294970975094657
0.000276330804497077
0.000331706786732116
0.000386252393499384
0.000350075649483497
0.000274653762017603
0.000213020756145253
0.000168877125089218
0.000138779260054276
0.000119489700163317
0.000109284401842712
0.000106026768437847
0.00010835969606097
0.000116077973291494
0.00012929944808143
0.000148667515588484
0.000175013864237651
0.000208846086759233
0.000250038515561355
0.000298850058809809
0.000354841083237403
0.000416590744065495
0.000481775806257716
0.000547495884266941
0.000611048747684308
0.000670821168713511
0.000725862626201258
0.00077329945671091
0.000812251457433572
0.00084378156065406
0.000871850195534379
0.000903639135774041
0.000950342329550062
0.00102837016626016
0.0011591764851226
0.00134935072284637
0.00151140026943364
0.00167647752020691
0.00182070378523736
0.00195870438943055
0.00208382784754371
0.00220104907981736
0.00230916096596275
0.00240998637798809
0.00250364158120083
0.00259094347323702
0.00267221925496215
0.00274792286311237
0.00281835282309586
0.00288381589013242
0.00294457173938576
0.00300088575855415
0.00305302979706434
0.0031013084692024
0.00314607330880099
0.00318774447340994
0.00322682391278754
0.00326391560752276
0.0032997431726681
0.00333515031847196
0.0033711080900813
0.00340870263497447
0.00344909588867851
0.00349350404150648
0.00354311523059003
0.00359895947793657
0.00366165370228748
0.0037308112919777
0.00380432851356656
0.00387758315966118
0.00394128223875801
0.00397915414398694
0.00396770154414673
0.00388334294042433
0.00375255901996578
0.00369572611495736
0.00366789717612131
0.00366451915405511
0.00367259857516712
0.00368715955305647
0.00370414245174778
0.00372234659245438
0.0037432559449777
0.00377165739859702
0.00381052987749529
0.00385387765264531
0.00389770918314669
0.0039392299043888
0.00397607323205848
0.00400533025536629
0.00402205803267653
0.00401749040982182
0.00398742435143356
0.00393574523626288
0.00386765884508671
0.00379017683914237
0.00370825671601934
0.00362728630723772
0.00355344480521837
0.00350250267276703
0.00348203825111027
0.00348989835331166
0.00352663904559844
0.00359285313347698
0.00368922976886482
0.00381977725553119
0.00394640310369974
0.00406177493998584
0.00394126291970482
0.00364299399606947
0.00310023483324375
0.0026381643417823
0.00210106474683638
0.00184367207292866
0.00215826089213911
0.0020670629912739
0.00199829353811817
0.00167051866279673
0.00143418798895956
0.00068826025076954
0.0003834710131696
0.000324874728635194
0.000400426536822296
0.000499390564677723
0.00050039829536077
0.000418574148213646
0.000338516204403109
0.000275283714866926
0.000228844336048239
0.000197030451318838
0.000178550888336926
0.000170410128399317
0.000171085401798278
0.00018008747507506
0.000197326859717207
0.000223366900097848
0.000258901806243068
0.000304054024462956
0.000358085593221772
0.000420821714124083
0.000491172365080473
0.000566990860950148
0.000645312142606371
0.000722850779205817
0.000796876722025024
0.000866027409380465
0.000929675044671158
0.000985382211349983
0.00103308533204728
0.00107483910037819
0.00111571396564576
0.00116398590564908
0.00123183208550285
0.00133617929547964
0.00149739855974425
0.00171703298734782
0.00190568909543251
0.00209550910522756
0.00226206841063617
0.0024209076482577
0.00256524009992403
0.0027003467933467
0.00282510022974942
0.00294143628708899
0.00304956217784669
0.00315036443623046
0.00324424025366505
0.0033316994356601
0.00341309612294425
0.00348878705605595
0.00355908231658695
0.00362429758617583
0.00368475785158426
0.00374082451229846
0.00379291086531946
0.00384150724262017
0.00388719269572341
0.0039306575975209
0.00397272610748919
0.00401434857035542
0.00405660957304594
0.00410070955227195
0.00414789710308274
0.00419944166820275
0.00425651653671169
0.00432003534607229
0.0043902545900953
0.0044662263144924
0.00454524324899125
0.00462162558518383
0.0046849910381673
0.00471864431196165
0.00470005284074299
0.00460867502581447
0.00447480757327399
0.00441427200985782
0.00438699076655851
0.0043859248232375
0.00439810886489039
0.00441787189221555
0.00444091062321687
0.00446592943823417
0.00449448783284986
0.00453130700651368
0.00457887802117699
0.00463091783841615
0.0046830240551675
0.0047320356325635
0.00477517457674655
0.00480901461079113
0.00482790590539631
0.00482261189193139
0.00478899383365753
0.00473073177081482
0.0046547980035895
0.00456857132479215
0.00447736699825643