/*--------------------------------*- C++ -*----------------------------------*\
  =========                 |
  \\      /  F ield         | OpenFOAM: The Open Source CFD Toolbox
   \\    /   O peration     | Website:  https://openfoam.org
    \\  /    A nd           | Version:  7
     \\/     M anipulation  |
\*---------------------------------------------------------------------------*/
FoamFile
{
    version     2.0;
    format      ascii;
    class       volScalarField;
    location    "20000";
    object      omega;
}
// * * * * * * * * * * * * * * * * * * * * * * * * * * * * * * * * * * * * * //

dimensions      [0 0 -1 0 0 0 0];

internalField   nonuniform List<scalar> 
15600
(
3736.62224935754
3736.61919524228
3738.59831830934
3758.68564107175
3830.22119603466
3994.84181437767
4249.4972061261
4465.8877916266
4584.64879122981
4597.12368381005
4516.3697195742
4364.41568630367
4158.56251358597
3914.3258224542
3645.04354126228
3375.66151768964
3137.34410269118
2928.59626294887
2744.86548498035
2582.4400528448
2438.25624020399
2309.76330064617
2194.84448328116
2089.98176554545
1985.81281934516
1880.63923192881
1775.62252227287
1671.76074498973
1569.93647579953
1471.01058298465
1375.8809182373
1286.5732860827
1207.46721173102
1138.96746221486
1080.57390493464
1031.9656690024
992.979645712134
963.589585729643
943.881735146623
934.035330594737
933.60381426969
934.155562337885
934.155562337814
934.155562337872
934.155562337897
934.155562337908
934.155562337824
934.15556233795
934.155562337923
934.155562337878
934.15556233791
934.155562337897
934.155562337921
934.155562337842
934.15556233784
934.155562337898
934.155562337865
934.15556233795
934.155562337921
934.155562337894
934.155562337905
934.155562337936
934.155562337947
934.155562337868
934.155562337872
934.155562337869
934.155562337829
934.155562337827
934.155562337872
934.155562337866
934.15556233795
934.155562337921
934.155562337926
934.155562337866
934.155562337947
934.155562337868
934.155562337872
934.155562337813
934.155562337881
933.603814269725
934.035330594568
943.881735146528
963.589585729494
992.97964571241
1031.96566900229
1080.57390493513
1138.96746221559
1207.46721173041
1286.57328608057
1375.88091823451
1471.0105829832
1569.93647579953
1671.7607449883
1775.62252227326
1880.6392319302
1985.81281934384
2089.98176554764
2194.84448328262
2309.76330064634
2438.25624020586
2582.44005284854
2744.86548498194
2928.59626294717
3137.34410269097
3375.66151768623
3645.04354126472
3914.3258224652
4158.56251358845
4364.41568629941
4516.36971957543
4597.12368382035
4584.64879123444
4465.88779162645
4249.49720612599
3994.84181438115
3830.22119603491
3758.68564107051
3738.5983183072
3736.61919523973
3736.6222493567
633.354182895741
631.773551671805
636.346115285264
642.518675783179
653.472252166731
676.698550378541
715.883056665876
750.901632946743
771.124673046118
773.795047700726
760.833405811697
735.807654798012
701.623601623039
660.88959332701
615.818041661301
570.497225268375
530.22655123106
494.937436647464
463.886196176095
436.44294934658
412.089855253332
390.391368355096
370.989449167132
353.318827785807
335.817255563222
318.141870040498
300.467865477583
282.962565489656
265.775584662547
249.056427308107
232.965714804691
217.842904698881
204.404627953032
192.752992506338
182.821277447718
174.567228276344
167.97926707486
163.068150509095
159.850018923405
158.487300175864
159.039099210796
159.03965055397
159.004451701632
158.981421501241
158.956949031539
158.926274704973
158.897653461387
158.870571702249
158.846393541859
158.824519802701
158.804732204952
158.786500702147
158.769476418604
158.753357596865
158.737985893573
158.723316109979
158.709429396326
158.696520057849
158.684887554679
158.674919368843
158.667069362991
158.66183565402
158.659741465696
158.661316540878
158.667075002962
158.677484913028
158.692924521733
158.713616181094
158.739525735316
158.77021630332
158.804605908711
158.840470753435
158.873808286348
158.898186528145
158.90058855762
158.854471540794
158.731681780033
158.472102600692
157.734193365197
156.534443248852
157.55559708902
159.842501958841
163.489112910992
168.659532175053
175.383686324141
183.68664032871
193.606050266242
205.203222956046
218.583055246892
233.657108979453
249.578017822858
266.034220893652
282.90848531461
300.074136674708
317.39327951543
334.711944764202
351.850212804576
369.20220011514
388.39538092891
409.961798208236
434.235177356357
461.619781225237
492.629919816579
527.844939514546
568.015336628004
613.071748759996
657.813264394484
698.258129407961
732.193745923868
757.051682839948
769.973254941665
767.538110963751
748.477340057379
715.821716540435
682.503287797258
661.72148294305
651.390874411301
645.649611678717
641.609815465894
634.887194409187
216.805832186695
213.782753590074
218.644072815049
224.61588834716
228.041430967298
230.451404874766
238.103799661494
246.932388836917
253.051987882046
254.021327435207
249.977090978262
241.950036896166
230.8718987168
217.60699107679
202.89966714923
188.070831206412
174.845340596304
163.253994805045
153.066821160199
144.074565615813
136.106259064918
129.012782279288
122.665756656915
116.872363801891
111.132889704557
105.322620538987
99.4908296395919
93.6918442756138
87.9773410173804
82.4045684774305
77.0442655722965
72.0218717014978
67.5477610101411
63.6649090321085
60.3668150798259
57.6549034903128
55.5450019086187
54.0617124689194
53.2477445745695
53.3041453684646
54.237129223518
54.286419710256
54.2337976026976
54.1743257167814
54.1034809231388
54.0241819460121
53.9464971318052
53.8711550315662
53.8001380160617
53.7330106204638
53.6697107093292
53.6097261931589
53.5527813802512
53.4986290755482
53.4472085964705
53.3985823996265
53.3529596650334
53.3106621234249
53.272105956846
53.2377642765207
53.2081287022154
53.1836691531628
53.1647965518657
53.1518218029453
53.144905511911
53.1439908048095
53.148711304363
53.1582619744119
53.1712147718265
53.1852523755481
53.1967640648442
53.2001761870377
53.1869420010808
53.1440791081596
53.0505724395955
52.8707688299129
52.5524445986674
52.0191446269416
51.1043659234677
50.2361723233204
51.5305436539552
52.7715897574228
54.2270766593842
56.0701523440249
58.3463127905471
61.0857634305425
64.3146748553871
68.0662776211544
72.3895307698152
77.2307018454919
82.237516844438
87.3407824842749
92.5325012560877
97.7887386776374
103.075661699407
108.356132500182
113.584042911144
118.952744020721
125.02811534264
131.952661521813
139.817820334325
148.734088321735
158.862235524382
170.350519586342
183.426425417416
197.883297622458
212.109045067176
224.914492576344
235.55058735132
243.180792882674
246.868716861506
245.629303297762
239.68180589056
230.969047813484
227.580550722172
229.585073480861
232.718704652726
232.767450736526
229.477563619002
220.708914707444
110.95355311245
106.402362856063
109.591181128461
116.42293898978
120.05650974616
116.56298320533
113.321900573017
113.543125185606
115.323846192958
115.701297162428
113.967943900797
110.416896571657
105.447764968486
99.4670007666002
92.8361822884104
86.1489498048781
80.1633320575391
74.9187103098896
70.3221541423145
66.2767749423624
62.7034031355336
59.5272998288567
56.6773622134059
54.0544927259376
51.4427759122814
48.7824373052403
46.0913047411834
43.3950129007538
40.7221633184337
38.1100298626317
35.6093078882795
33.288628377169
31.2236649281629
29.4417502674487
27.9551142476713
26.7803110750404
25.9433102161383
25.4780596329292
25.4468149499808
25.993458150293
26.9154941994511
26.8472555508046
26.6839173519789
26.5056932477587
26.3226451968889
26.1413771945987
25.9732169926267
25.817357316094
25.675492685538
25.5457884477718
25.4275566050187
25.319351088495
25.2203088179132
25.1295468330255
25.0465143119174
24.970793002872
24.9021654300304
24.8405306701675
24.7858891466292
24.7382846785048
24.6977629416338
24.6643228681294
24.6378729463083
24.6181796324147
24.6048056647212
24.5970302255766
24.5937447312577
24.5933142514454
24.5933882358729
24.5906367433766
24.5803728159463
24.5559715593406
24.5079986679405
24.423040292397
24.2816197627661
24.0547803258166
23.7064556066546
23.2099583086079
22.5810596524163
22.2940475821714
23.4524359868786
24.2097596595211
25.0073962240033
25.9071895416263
26.9583003782902
28.184004082054
29.6058166465994
31.2458758785462
33.1269207799096
35.2016155069846
37.2867344223999
39.3818658064909
41.4985807501139
43.63445468612
45.7796881586426
47.9239151271884
50.0555730044913
52.291510863914
54.8872774913894
57.8874796951446
61.3244140410124
65.2368363287988
69.6923003745486
74.7337878788335
80.4476988552387
86.6304987437638
92.6184739299305
97.943753087638
102.246182126959
105.142903087609
106.214366574738
105.05626949453
102.165058899039
98.4408569927724
99.9510352570407
106.189687422643
114.501982310469
120.293839167563
122.004200475673
115.539776301107
70.4955865215278
65.7993343954262
67.071121708903
73.9416962355701
80.7742011554962
77.4226672037203
68.6426036915399
63.6238654506956
63.0187776395932
63.0664251832029
62.2167692345814
60.3737291277339
57.7293484356241
54.5216499262275
50.9695942476683
47.3940442064284
44.1825594644873
41.3722356385279
38.9220262451288
36.7773814527222
34.8926878670369
33.219183608221
31.7052338865491
30.2865158245351
28.8553192068805
27.3792767622072
25.8667403181941
24.3355229218812
22.8096125937046
21.3228321290798
19.9188965531927
18.6414501350223
17.5176513307609
16.5717520752205
15.822934899778
15.2921629538607
15.005482527111
14.9936909578376
15.300459439855
15.9496235893521
16.592735536818
16.282962360971
15.9809130136493
15.6817655008116
15.4164769671469
15.1776847514516
14.9739148621629
14.7966243424973
14.6449919971353
14.5134789214302
14.3997730924019
14.3006320957421
14.2141714262797
14.1385424035468
14.0725225016547
14.015093425704
13.9655569847654
13.9233825312575
13.8881985009789
13.8597162708244
13.8376920229648
13.821875183575
13.8119652940964
13.8075591666623
13.8080905854768
13.8127548235293
13.8204142123791
13.829478136276
13.8377456068248
13.8421952965091
13.8387045246027
13.8216559686856
13.7834147363865
13.7137857069785
13.5994423141518
13.4237599160724
13.1727850974675
12.8529685243266
12.5370729001062
12.5450846156921
13.3406517220742
13.7954529932617
14.2908748001143
14.8121689402918
15.4038259328012
16.0774858763033
16.8483681770071
17.7290808484861
18.7276261116873
19.8074948628263
20.8722040775452
21.9356765013609
23.0066128404126
24.0851115360897
25.1669176269012
26.2479510078442
27.3267011290219
28.4730107644704
29.8122344799312
31.3596263940542
33.1292275276721
35.1368065543571
37.4156469262568
39.9802662909
42.8672673502279
45.9254010079763
48.8374363691404
51.3926207509978
53.400040148762
54.6652956199547
54.9936424971838
54.1821575620997
52.6737277959121
50.6888985334453
52.0214511731801
56.5657511249695
63.9436314179401
70.9685206595263
76.4616397892599
73.7112485914739
49.1071933917139
45.4276435358751
45.5603033051618
50.9469294677871
60.6911761626751
61.1481879865685
50.6772345265319
41.423838206525
38.6119484132048
38.2737962146995
37.8213491763468
36.7877605324848
35.2480520784376
33.3597106206481
31.2715254886234
29.1761901011444
27.2871826607199
25.6386059493232
24.2129500615059
22.9747438724279
21.8924984300615
20.9276316336826
20.0369107753222
19.1740309138926
18.2831830294586
17.3470925785813
16.373129462634
15.3793708478805
14.3913360382937
13.4428230301207
12.5712586146271
11.8036099221544
11.1470621715154
10.6243793238722
10.2535143715122
10.0519344741223
10.0375586420947
10.2256285672087
10.619127572748
11.1445317237785
11.4451788770328
10.9697369305513
10.6362032365117
10.3232488661599
10.0810233270872
9.87588817521547
9.71453103103098
9.58091656650945
9.47332089480426
9.38419323842189
9.31101659966249
9.25011868223981
9.19964625209976
9.15773078697728
9.12322830795618
9.09517393583749
9.07292958034381
9.05600558914653
9.04406291207686
9.03683686150477
9.0341072089413
9.03565132458317
9.04120653523911
9.05042244200124
9.06280783055123
9.07766557076538
9.09401355411842
9.11048852691175
9.12522635370109
9.1357126349512
9.138603362472
9.12951233296434
9.10280221558301
9.05153437319962
8.96779192496949
8.84403943372466
8.67845819382718
8.49054880584921
8.35052369548534
8.45099096919622
8.97650220614138
9.27354396359154
9.61211068698741
9.95770119311907
10.3457224780164
10.7809178337639
11.2735283724209
11.8301014260208
12.4518067917296
13.1121348524555
13.7582747775085
14.4032791149651
15.0518843993085
15.7040242971397
16.3572146976298
17.0094547089266
17.6626597099149
18.36053614021
19.1704060746833
20.0979790460192
21.1499982155097
22.3327911568582
23.6644815351769
25.1507414327441
26.8078427429607
28.5325731125215
30.1549088610433
31.5695373989341
32.6704983049572
33.3510636953257
33.5147923249061
33.0351004413975
32.2312772962453
31.0660296597304
31.8380654612468
34.4724952583519
39.4903086478792
44.8555711043823
50.8967322463862
50.5714411801704
35.870472191253
33.3972101355137
33.1699412763163
36.5143804947142
46.8980663807439
52.2404162765462
43.4073571471161
31.2556414094748
25.980866723678
24.9824630860338
24.6430355333724
24.0174965226803
23.0724035784274
21.909144317112
20.6269482976355
19.3455694498418
18.1849535909037
17.1764309160445
16.3135871870948
15.5701638153303
14.9207870118014
14.3313033995328
13.7641159987187
13.1861394528333
12.571449183415
11.9134867607148
11.2229190923507
10.5209834235628
9.83495619729515
9.19609444849805
8.63256334242015
8.1578797612822
7.77059216056396
7.48975371038862
7.32765144440627
7.29502150400883
7.39920019026033
7.63809164747914
7.98276576699802
8.32369808817572
8.38378573665343
7.90188792834083
7.63327574911033
7.37925664045655
7.20533115554831
7.06066294940045
6.95471281493011
6.86936392513111
6.80427479272924
6.75234373427093
6.71193993809909
6.6800173767008
6.65529540478196
6.63635617300389
6.62241423345901
6.61278544567571
6.60704456504688
6.60486327192363
6.606021381806
6.61034274144196
6.61767382245434
6.62784510031258
6.64064019012425
6.65575561616989
6.67275648668984
6.69102324742104
6.70968886415663
6.72756642784747
6.74306545695186
6.75409735500919
6.75798111884025
6.7513662806765
6.7302319405771
6.69011157306647
6.62678057068518
6.53798726907805
6.42759910502275
6.31760508588558
6.26339405416678
6.38148866568841
6.7439817587202
6.95918594642506
7.20880364171354
7.4614621889185
7.74352784208863
8.05685315180315
8.40835632192152
8.80126774700075
9.23396798106264
9.68720105833559
10.1300872173011
10.5725222064536
11.0170864541332
11.4635731664403
11.9104024455206
12.356643579174
12.8054951181206
13.2863928303782
13.8392234002768
14.4664301897566
15.1714332297687
15.9566289272303
16.8331133115462
17.8033218385267
18.8743582872008
19.9740523409358
21.0004272769552
21.894585077991
22.592757396562
23.029921887304
23.1516600028695
22.8675481944538
22.4005969322079
21.6468166542399
22.0817110503863
23.5956012171554
26.8940762648101
30.4548710967392
35.5054902241615
36.1873410211015
27.201088140145
25.6692853100269
25.4285943224895
27.2665216672745
36.0765800431502
45.4621236766484
40.3088995717536
27.156975100631
19.4187654262393
17.4029991877847
16.9274168817552
16.4606705875115
15.8343641448838
15.0974888955782
14.3000851521193
13.5101472255536
12.7909265586778
12.1699428325394
11.6449607790623
11.1941671010252
10.7949919399959
10.4163858771477
10.0270252033908
9.6061327890468
9.14747731576482
8.65295487827492
8.13733789805612
7.62357218530561
7.13707924238581
6.7024543456819
6.33722827293868
6.04542123749912
5.82259347527487
5.68317354537767
5.63384730539173
5.67930748037587
5.8183164852314
6.03713700047678
6.29377836604421
6.48591822444577
6.42984516976636
6.03083163080408
5.84310485431123
5.65607443279636
5.54123061659647
5.44442923350315
5.37809755307598
5.32544815580446
5.28753532239935
5.25849431274033
5.23748716698504
5.22220621470845
5.21184462317962
5.2053954895136
5.20235178265095
5.20225286745214
5.20482831627135
5.20986534799296
5.21722218538774
5.22677714299278
5.23841249423788
5.25198316097252
5.26729132100207
5.28405304085646
5.30186190860314
5.32014665518596
5.33812293396815
5.35474153046928
5.36863480054436
5.37806557873232
5.38089502883973
5.37459449707583
5.35636276008761
5.32347474408254
5.27406260837313
5.20864283985069
5.13362337916365
5.06915412467445
5.05681017536209
5.16919936123189
5.4324219990959
5.6005416781317
5.79470412514938
5.99181847171229
6.21080979724148
6.45251012040432
6.72161761609182
7.01957959884198
7.34378054330936
7.68002011483621
8.00909388831516
8.33813604820561
8.66867014563236
9.0004712803447
9.3325205740038
9.66453622865513
10.00012731402
10.3603344567622
10.7707363598621
11.2326087625987
11.7475930056283
12.3167278645235
12.947440832854
13.6408818401872
14.3996397068112
15.1709641587722
15.8878025227059
16.5136857280748
17.0068203350166
17.3237677709127
17.4291896109451
17.2539985990116
16.9549506040235
16.4248268987162
16.6736237156606
17.5791330011018
19.8196132549133
22.149321492929
26.0119671452378
26.9724473263573
21.3317867822046
20.4436260153546
20.2356490799726
21.3686883889984
27.4973908937021
39.195906854763
38.4452376446708
26.111986859537
16.3691784950488
13.0821419952416
12.2610215450515
11.7762197302659
11.2839529673263
10.7877380592803
10.2874087982183
9.80656022449077
9.36886334788293
8.99523445686125
8.68297966448814
8.41239641831349
8.16282019101739
7.90708398854526
7.62163634618811
7.2972848972603
6.94074854153117
6.55942804018394
6.16993620900326
5.79340371185223
5.45007182379211
5.15662339369473
4.92221328466847
4.7459892330685
4.62342701053866
4.56487406992475
4.57301406722465
4.6482028291626
4.78384978538765
4.96119715696642
5.13858788829189
5.23630970717848
5.14249514942566
4.84077940745863
4.71404784282844
4.57964113535585
4.50448535408677
4.43950827478134
4.39783489214891
4.36521679960691
4.34334072714357
4.32757687686499
4.31753489520598
4.31149542269009
4.30894019109616
4.30915144662782
4.31179271616619
4.31654718609688
4.32323534756842
4.33171153264352
4.34187488278705
4.35362950102978
4.36687115830357
4.38146172744057
4.39720798148964
4.41383408049385
4.43095203392064
4.44802867338237
4.46434979941436
4.47898508620371
4.49075798552628
4.49822682934141
4.4996947714932
4.49327522955472
4.4770678094614
4.44954318812105
4.41028404770563
4.36123583193345
4.30958366578129
4.27246861609729
4.2807644986693
4.38119408236259
4.58078950903974
4.71857157866446
4.87541499484264
5.03599684916651
5.21359179689034
5.40873836620097
5.62461800915515
5.86170916338065
6.11717608137761
6.38036911879924
6.63872075289748
6.89730630507448
7.15711668734377
7.41795580919739
7.67917654382245
7.94090634067029
8.20676768615844
8.4924496634264
8.81535622567052
9.17631495194346
9.57593171219696
10.0150044471901
10.4987646673496
11.0278245135587
11.6023834020486
12.1823960380689
12.7206969487774
13.1927474230881
13.569033941637
13.8183472775836
13.9145492747802
13.8025137675302
13.5930961324896
13.1943289259976
13.3342601106982
13.8979819579124
15.481327243327
17.0517115236465
19.941973580649
20.9041178727958
17.2290953471581
16.7639406358013
16.5499591525457
17.5241007966217
20.9928972214227
33.1230683363948
36.4805164492191
26.3969654900208
15.4156067804441
10.7622909736545
9.44933772056615
8.83935814096377
8.35795201047939
7.97187693621201
7.64095445008433
7.35026954721672
7.09263389172745
6.87872878128065
6.70214124404636
6.54410393265561
6.38596738764917
6.20551794703802
5.98742440024933
5.73181415959088
5.45240308632919
5.1587289074604
4.86649217021569
4.59284770877367
4.35236844696065
4.15550950762645
4.00646466872058
3.90269145281814
3.84049607712319
3.82695356828655
3.86214235128709
3.94364167984791
4.06231358139177
4.19894628361152
4.31809633706904
4.36269905655199
4.26746742320709
4.04684826601002
3.95981392354485
3.86318271844278
3.81310383318588
3.76887247468406
3.74240021899102
3.72218246138631
3.70994079626723
3.70209623602645
3.69845902757777
3.69774633250371
3.69960266246457
3.70350630419816
3.70922133016114
3.71652133404366
3.72527853630177
3.73538513975224
3.74676031935487
3.75931909294191
3.77296064517764
3.78754725244653
3.80288640068911
3.81870824957796
3.83464193528367
3.85019039836901
3.86470478895207
3.87736241803941
3.88715407552949
3.89288811581447
3.89322723494469
3.88678335797309
3.87231591667102
3.84910755019504
3.81759393145465
3.78044404192734
3.74467048735118
3.72441530257892
3.7426625301143
3.83044031991961
3.9870582585399
4.10341436777443
4.23367693292648
4.36847101419386
4.51696025533257
4.67962723107851
4.8586015222979
5.05383245438329
5.26259393424476
5.47677141182939
5.68778625162519
5.89923736020484
6.11182714666021
6.32539845506196
6.53955820845883
6.7546916416478
6.97424824718011
7.21028247696929
7.47517911940934
7.76954778425941
8.09345566078487
8.44782733033425
8.83647050612933
9.25976040152552
9.71658272758743
10.1756566325867
10.6021555369966
10.978406182083
11.2821898324995
11.4897218482715
11.5793984186632
11.5055821295269
11.3466134707837
11.0296576968576
11.1009203379792
11.4620673276238
12.6172929504842
13.7196941909724
15.8875590101315
16.7634116162363
14.2694786414889
14.0762381800902
13.8343794160011
14.8658921771736
16.3527914851093
27.3720682985084
33.8308277335954
26.9899054700371
15.7083512243285
9.71899442876322
7.80685951857316
7.01573045226374
6.47891354277078
6.11662353099641
5.86503138067552
5.6807786617964
5.53282117364555
5.41904723347129
5.32749832541387
5.23952342003003
5.13857355649082
5.0075963416411
4.83832132451191
4.63685596969133
4.41923201170254
4.19482546646106
3.97706216906377
3.77903259801978
3.6108923636055
3.47911714757778
3.38540088888593
3.32695989129748
3.30088016490902
3.31169179427951
3.35786177281257
3.43541586168998
3.53459387541156
3.63805659685368
3.71783452902644
3.73468386750425
3.65129329094498
3.4909981580744
3.42915838595694
3.3593420487673
3.32523428524214
3.2949048111292
3.27812740063129
3.26593063902892
3.2597657191922
3.25690445650524
3.25722494935893
3.25976573122603
3.26426313630066
3.27033009053843
3.27779127148521
3.28647843842585
3.29629389728124
3.30715168447266
3.31898064110648
3.33170001897671
3.34520891937569
3.35936878627711
3.3739882266637
3.38880472202209
3.40346596058179
3.41751113969809
3.43035383501159
3.441269919318
3.44939711982841
3.45375510977702
3.45329809275869
3.44702336226189
3.43417061237082
3.41456053967963
3.3891254810882
3.36081779106517
3.336054136635
3.32634708991998
3.34894955295303
3.42511929249896
3.55134698684823
3.65152349602781
3.76203055370288
3.8776518850061
4.00463889963951
4.14346591979178
4.29552750833824
4.46048751661981
4.63585867242889
4.81536622470505
4.99293935815061
5.17112685588228
5.35045839425209
5.53081277753599
5.71197343279175
5.89448321169158
6.08153478921486
6.28259608694037
6.50679556218701
6.75457824199238
7.02585494605914
7.32170409093263
7.64498076469058
7.99594909439751
8.37277761244416
8.75051445136059
9.1025099800986
9.41527190001728
9.67110485114159
9.85093117829138
9.93526129542651
9.88497821718834
9.75504757566668
9.4910877247519
9.51617322295875
9.75104563006096
10.6136652645137
11.418354886077
13.0614066213704
13.8306207208823
12.0718765034987
12.0462980513769
11.7873328596296
12.8762915655272
13.2143724826607
22.1595599985204
30.5968282225913
27.2412737544521
16.7089851461677
9.53687991264326
6.92587355579886
5.90992771260788
5.28754059959216
4.90024520165641
4.66910016530858
4.53339328349638
4.44547181724205
4.39011338907423
4.34951776230515
4.30436680628542
4.23987793323749
4.14342219966885
4.01176405981646
3.85391126195504
3.68542907615216
3.51461420427739
3.3524820543521
3.20889949761015
3.09102657230411
3.00298136055691
2.94527538263864
2.91534468325825
2.91077411145628
2.93417577982805
2.98310229825961
3.052902839878
3.13430535680712
3.21267556427671
3.26679535087505
3.27016450569318
3.20169088302613
3.08463383913865
3.03927296395146
2.98872362795393
2.96517307605496
2.94453012444734
2.93424848781476
2.92751654122575
2.92541416150026
2.92588379469633
2.92881140947838
2.93347273034906
2.93965817122412
2.94707508323516
2.95558642183785
2.9650626395807
2.97542434815345
2.98659873136081
2.99851944168229
3.01110736708004
3.02426101854239
3.03784191758632
3.05166161212828
3.06546699929348
3.07892605242517
3.09161431531787
3.1030047959726
3.11246343222494
3.1192564460426
3.12258143233155
3.12162792582723
3.11568971681513
3.10435086907819
3.08778162336147
3.06719316448261
3.04554473344854
3.02851332893553
3.02542434624117
3.04937977068225
3.11540713270429
3.2192970378794
3.30667150143889
3.40200291765903
3.5028105394708
3.61332057924071
3.73398380599916
3.86567939843517
4.00792318853926
4.15850347432839
4.31250024147151
4.46547850878439
4.61923868629901
4.7741942563051
4.9302532124005
5.08732233491523
5.24603419059173
5.40929378924085
5.58466407144346
5.77906148334068
5.99279311961426
6.22586247026279
6.47942736683703
6.75569777458995
7.05488186266939
7.37478625481483
7.69519928303544
7.99516114734873
8.26381285371677
8.48632541117072
8.64665431447284
8.72604851621688
8.68988771459076
8.57629740386039
8.34746429010366
8.34002698399375
8.49281299316165
9.1473861529276
9.75468155788964
11.0155538898052
11.6804108708683
10.3981088694053
10.4676332620059
10.2198141450878
11.2766776492562
11.1587255532643
17.6485804537555
27.0930329016487
26.951298717583
18.0563750564686
9.98098237166493
6.57738128858571
5.27909172075477
4.55025935673962
4.11191580306178
3.86583166931082
3.74096901440291
3.6791029111694
3.65351474458473
3.64107448932701
3.62115015391276
3.58006641432708
3.5084345018597
3.40607383744551
3.28278175977502
3.15245398991889
3.02219298525359
2.90095613645928
2.79627937970674
2.71335739185809
2.65490413203563
2.62086717111674
2.60897073178598
2.61706768738424
2.64637904323855
2.69402563276228
2.75525526923697
2.82181471068821
2.88182044441028
2.91951242746456
2.91711225409901
2.86276193009933
2.77656596486832
2.74258917514191
2.70613746371467
2.68992819932506
2.67630405254385
2.67061933736361
2.66780961479258
2.66859371392071
2.67143155650789
2.67619605259125
2.68233826490887
2.68968305612441
2.69800527614192
2.70719352416366
2.71714489710177
2.72779185926361
2.73907003085894
2.75091579998273
2.76325103402338
2.77597437703761
2.7889490564215
2.80199161159006
2.81485965322268
2.82724341409726
2.83875482053367
2.84892244574312
2.85719297068053
2.86294498330337
2.8655251691875
2.86431201742934
2.85882452907096
2.84889110909813
2.83490670927389
2.81821085995285
2.80161607887713
2.79005040755308
2.7910671110888
2.81475483974605
2.87207676348536
2.95900465477555
3.0359183233607
3.11927891634249
3.20830491879004
3.30583280275104
3.41226215533415
3.52811004806448
3.65282234637364
3.78445731487067
3.91910529459377
4.05343190926732
4.18870098709723
4.32523860678497
4.46297468247651
4.60190180971904
4.74269573432929
4.88797123616758
5.04385151852074
5.2156839008877
5.40369818737554
5.60809647204062
5.83004889077231
6.07132439178108
6.33210132604573
6.61004707722565
6.88860206763394
7.15090462997612
7.38776426812979
7.58615608317582
7.73195223417328
7.80629988319009
7.77772822932533
7.67240101548465
7.46708106560593
7.43610840786212
7.53370562131058
8.03576868435656
8.50648801984193
9.48603957424072
10.0557835195386
9.09483670311541
9.20987283837943
9.00204348055131
9.93147798082422
9.81470444718093
13.9349980459967
23.6246190554992
26.0921361827305
19.4404163886145
10.9015505437123
6.64491446916601
4.98553852692959
4.12164020888035
3.6140059318896
3.3310512323112
3.19290818406174
3.13429083199547
3.11921582693418
3.11983911257988
3.11373364717103
3.08752680380478
3.03386047694016
2.95409557806078
2.85763893084375
2.75641947519856
2.6565045660881
2.5652089198729
2.48841166176678
2.42999214781603
2.39178896501111
2.37346438060807
2.37298645686706
2.38834381587983
2.41979140037246
2.46434018464507
2.51747930910723
2.57215001880897
2.6189245068471
2.64622381246496
2.64211107548676
2.59992348987317
2.53600905414775
2.51039162822187
2.48446009302475
2.47364820523603
2.46530051668135
2.4630545431215
2.4632046855228
2.46616790399399
2.47079595664909
2.4769463709417
2.48419980095092
2.49240538495112
2.50138702455625
2.51105162884437
2.52131529215849
2.53211876935769
2.5434035841946
2.55510817094355
2.56715561109204
2.57944581906105
2.59184529900346
2.60417613536374
2.61620982003959
2.62765970154562
2.63817314416249
2.64733009724057
2.65464910499834
2.6596059491905
2.66167129163084
2.66037424054539
2.65540366195785
2.64675985888679
2.6349742851521
2.62141368113775
2.60866805050852
2.60096927353689
2.60445531278728
2.62701544699251
2.67690058392214
2.75059110851525
2.81876408929761
2.89247303949758
2.97191972536102
3.05899540608842
3.15402641316014
3.25727477051918
3.36816031666123
3.48498737304474
3.60460838530993
3.72444952819384
3.84538664356885
3.96767406071151
4.09125694378149
4.2161866184806
4.34315021609533
4.47448498158101
4.6152040541567
4.76949420749477
4.93760252250286
5.11992893069855
5.31762031089283
5.53214145408955
5.76365569563484
6.0098354901684
6.25699517862092
6.49128703258312
6.70453437311072
6.88478771683058
7.01904492793821
7.08783010437145
7.06196563657319
6.95948535207708
6.76991400600538
6.72180003512372
6.78130034020169
7.16895771907727
7.54130154118075
8.31100839287318
8.79646482231603
8.06026213179167
8.18855215524019
8.04029361773287
8.78084077256151
8.89841282440514
11.061333184253
20.3263692504493
24.7543156555135
20.4952053791736
12.1738796788239
7.07770084401511
4.96151396755352
3.91844265661168
3.32135163536859
2.98470419830708
2.81646428071184
2.74517526961096
2.72731550709438
2.73078127086124
2.73093007166138
2.71384041247452
2.67309627773483
2.61055504935608
2.53466794846706
2.45549331447537
2.37825304405145
2.30896578537883
2.25231344309621
2.21126008246664
2.18706664866771
2.17923872618195
2.18593188462483
2.20521412939254
2.23670306373725
2.27750242358586
2.32352209399833
2.36887946845686
2.40620090365557
2.42701798195447
2.42326339398954
2.39116773920154
2.34365721799883
2.32453323321493
2.30661630630149
2.29999540102182
2.29575511196809
2.29622236282019
2.29871562869693
2.30342255474869
2.30948670870694
2.31675533793499
2.32490481637853
2.33380316730012
2.34331048744616
2.35334758966422