/*--------------------------------*- C++ -*----------------------------------*\
  =========                 |
  \\      /  F ield         | OpenFOAM: The Open Source CFD Toolbox
   \\    /   O peration     | Website:  https://openfoam.org
    \\  /    A nd           | Version:  7
     \\/     M anipulation  |
\*---------------------------------------------------------------------------*/
FoamFile
{
    version     2.0;
    format      ascii;
    class       volScalarField;
    location    "20000";
    object      p;
}
// * * * * * * * * * * * * * * * * * * * * * * * * * * * * * * * * * * * * * //

dimensions      [0 2 -2 0 0 0 0];

internalField   nonuniform List<scalar> 
15600
(
1.55507012739211e-09
0.00648484933775128
0.00506762399614346
0.00993852897522154
0.0209381786889266
0.0336918496994385
0.0418333585193084
0.0465137959958551
0.0497137049837562
0.0523694369017464
0.0543747999681385
0.0559674301456194
0.0572305087575803
0.0582594195211191
0.0590812448480831
0.0597377389021816
0.0602921020789392
0.0607644700353707
0.0611751957680504
0.0615410185021663
0.061875288081295
0.0621926040048023
0.0625083208109708
0.0628435470921138
0.0632001480343242
0.0635845373292804
0.0639987883275369
0.0644411449859287
0.0649046632576481
0.06537752360159
0.0658404389616006
0.0662697898104048
0.0666672734042717
0.0670226428968258
0.0673265945112266
0.0675694504140629
0.0677429615143879
0.0678398102966859
0.0678678707900003
0.0678093811915508
0.0674942074280514
0.0674332391457242
0.0674411772077672
0.0676058645660081
0.0679093961122117
0.0683641439963591
0.0689605152533788
0.0696932955550851
0.0705528025881763
0.0715303638415429
0.07261684343097
0.0738037639330886
0.0750830211449705
0.0764470675795965
0.0778888121136655
0.0794016118030059
0.0809792187210964
0.0826157596761944
0.0843057266715139
0.086043995469331
0.0878258699715547
0.0896471517722461
0.0915042313445242
0.0933942009287786
0.0953149914563535
0.0972655376087573
0.0992459755385584
0.101257880103084
0.103304548875582
0.105391328007361
0.107525992521167
0.109719290744334
0.111985399320199
0.114341631360542
0.11681068879958
0.119425006735443
0.12219943377028
0.125128673154908
0.128444882516699
0.132146677584877
0.134532754406324
0.136530963077228
0.138309207491629
0.140021358015549
0.14174523005348
0.143545596251443
0.145473239667917
0.147574590632084
0.149877044498956
0.152409621688523
0.155281561522855
0.158541320201423
0.162197167399701
0.166222839087228
0.170563411891753
0.175130188205719
0.179819690246879
0.184468045812396
0.188893772370327
0.19297467483197
0.196604640798282
0.19970502981554
0.202164513977142
0.203893202066608
0.204671831058302
0.204295838676839
0.202123138549247
0.197340227964096
0.189090453441994
0.176246305499329
0.157430448075634
0.131161633584908
0.0958030551370927
0.0528743272415539
0.0060148973085169
-0.0235566266127097
-0.0335860505606117
-0.0294448209665599
-0.0206426661135174
-0.00517528062110638
1.37001095237166e-06
0.00647875710024384
0.00511354402373019
0.00996065439666364
0.0208362689238119
0.0334932515212937
0.0416462644727191
0.0463595672601984
0.0495796690033261
0.0522541086005781
0.0542829281900785
0.0558943151758591
0.0571732690082953
0.0582158632798789
0.0590504872728106
0.059717159616428
0.0602789487499916
0.0607573359517842
0.0611728436793284
0.0615424208983099
0.061879468940645
0.0621984369211075
0.0625142854155747
0.0628483940383472
0.0632033279492385
0.0635855930794658
0.0639975854609499
0.0644379301246034
0.0649001235428336
0.0653728706077649
0.0658373580405932
0.0662692346296709
0.0666692339145914
0.0670271585415171
0.0673334958830019
0.0675783409015197
0.0677531720048097
0.0678502571101545
0.0678783507324091
0.0678202882244101
0.0675063200708606
0.0674465410691976
0.0674540208298165
0.0676182862937657
0.0679213326513119
0.0683756166775972
0.068971506191219
0.0697037893683357
0.070562767895929
0.0715397643917402
0.0726256376859901
0.0738119092947097
0.0750904754403804
0.0764537910325415
0.0778947685560416
0.0794067698233848
0.0809835525372038
0.0826192498540786
0.0843083606024097
0.0860457675530161
0.0878267814548757
0.0896472102391766
0.0915034498343955
0.0933925966188996
0.095312583796913
0.0972623457506533
0.0992420148141302
0.101253157252514
0.103299055651312
0.105385032208815
0.107518824701136
0.109711127730175
0.111976041575454
0.114330737387677
0.116797713980733
0.119409335856328
0.122179883617624
0.125101714203984
0.128402127775525
0.132082112736932
0.1344907456216
0.136510137239895
0.138304288188923
0.140031143915313
0.141770295223202
0.143587837902107
0.145535299523878
0.147659229634349
0.149987009198673
0.152550735454154
0.155458248567991
0.15875397992044
0.16244327872197
0.166497142442102
0.170858022349761
0.175435290672558
0.18012282735685
0.184755123508288
0.189154840523111
0.193203039567719
0.196795063276238
0.199851845991356
0.202261586146357
0.203930340975603
0.204634756691752
0.204155836171929
0.20183586116049
0.196862417734984
0.188379981026469
0.175263230224787
0.156154791712263
0.129618409649688
0.0941659088692857
0.0514869224676754
0.00541646638414541
-0.0234758105606402
-0.0333217138274514
-0.0292460050762596
-0.0205420210185625
-0.00514815640279256
1.54032410277326e-05
0.00649820570210361
0.00521196539848266
0.0100455049040868
0.0207734837055327
0.0333170523010031
0.0414786774032119
0.0462159914153369
0.0494503250108073
0.0521408270766624
0.0541914825179425
0.0558209375776872
0.057115350720019
0.0581714467309609
0.0590188561118539
0.0596958648243642
0.0602652814708794
0.0607498410381271
0.0611702679769858
0.0615437267491804
0.0618836689930202
0.0622044020463734
0.0625204639433001
0.0628534519621404
0.0632065903565089
0.0635865108122933
0.0639959176781382
0.0644338152564683
0.0648941506371049
0.0653661944424447
0.0658316914333063
0.0662656562003111
0.0666679200394755
0.0670282747389995
0.0673370222269548
0.0675840367037237
0.0677604674896413
0.0678580876391737
0.0678870602959134
0.067829930093862
0.0675156475253313
0.0674582582860202
0.0674650995820192
0.0676289143317676
0.0679314520553282
0.0683853918426179
0.0689809375241758
0.0697128818289249
0.0705714769429099
0.0715480395361058
0.0726334178518168
0.0738191347824512
0.0750970889525514
0.0764597412667817
0.0779000112447255
0.0794112690347257
0.0809872812770749
0.0826221904905834
0.084310504865742
0.0860471161014209
0.0878273430145359
0.0896470003786453
0.0915024893112014
0.0933909091464373
0.09531019300973
0.0972592710931927
0.0992382659486855
0.101248726415239
0.103293907182505
0.105379087977134
0.107511941933709
0.109703065902277
0.111966422687059
0.114318963092574
0.116782752566265
0.119389607273439
0.1221535933644
0.125064655000449
0.128334481318536
0.131959457515805
0.134383482979777
0.136426153282815
0.138239139123141
0.139984026532991
0.141741874712525
0.143580206343496
0.145551262527715
0.147701702250487
0.150059177468453
0.152659515237928
0.155607744512289
0.158943616318883
0.162669563300723
0.166753805059945
0.171136262617579
0.175724359346719
0.180409501614413
0.185024786629032
0.189397904840837
0.193413236305325
0.196967252490233
0.199980411159678
0.20234005706694
0.203948046016943
0.204576241224429
0.203991492372989
0.201522016380631
0.196359082889073
0.18765119812577
0.174281013623099
0.154922782592495
0.128208686251575
0.0928291320500062
0.0506558278757396
0.00559788813462348
-0.0226668578655628
-0.0325969321229547
-0.0288245315251262
-0.0203634281143454
-0.00509426241187995
6.9834537009427e-05
0.00655814858868765
0.00540112211078433
0.0102420392858013
0.0207811027015243
0.0331629664876269
0.0413285334853166
0.0460898346618571
0.0493327230615476
0.052035195005727
0.0541048499669962
0.055750544817555
0.0570592080279347
0.0581280044210077
0.0589876779125527
0.0596747918367483
0.0602517515939856
0.0607424272194252
0.0611677152810083
0.0615449980168608
0.061887771042503
0.0622102096872206
0.0625264489515083
0.0628582062376581
0.0632093008010927
0.0635864968507736
0.0639927990112482
0.0644275749928945
0.0648852193820395
0.0653555801949172
0.0658210044153381
0.0662560886456626
0.0666598425990061
0.0670220327734637
0.0673328039011392
0.0675818632358917
0.0677599906434504
0.0678584541888249
0.067889005958322
0.0678320095013977
0.067516893874941
0.0674629430604207
0.0674697828202203
0.0676336829436193
0.0679363246917353
0.0683905853045769
0.0689863990026852
0.0697185390417394
0.0705771881314508
0.0715536648597332
0.0726388166149142
0.0738241827400401
0.0751016784634491
0.0764637846218694
0.0779034403751447
0.079414035608802
0.0809893559387206
0.0826235618169176
0.0843111777023465
0.0860471091674998
0.0878266859044306
0.0896457300784174
0.091500646076624
0.0933885313874545
0.0953073107135013
0.0972558972263514
0.0992343850691482
0.101244279354592
0.103288770087784
0.10537304371457
0.10750463805911
0.109693946212502
0.11195464235371
0.114303274967134
0.116761086536318
0.11935847540441
0.122109695274418
0.125002854687769
0.128223582887875
0.131756904420354
0.134190762704689
0.136256241991868
0.13809091936573
0.139858026438795
0.141639297194822
0.143503437741883
0.14550316070631
0.147685124319845
0.150077563816152
0.152720316013497
0.155713537927765
0.159092017272931
0.162855423032317
0.166969305154042
0.171371360084172
0.175967273869295
0.180646538608984
0.185241760759839
0.189586634521752
0.193568488782565
0.19708439154344
0.20005410594133
0.20236346460416
0.203909701815821
0.204459417472862
0.203765366741642
0.201144201769977
0.195794164167915
0.186870945323991
0.173271661713611
0.153714443044142
0.126921910257549
0.0917890197892379
0.0503720671729688
0.00656276617532667
-0.0210357699990363
-0.0312349900147689
-0.0280185049114116
-0.0200068618621188
-0.00498269019025146
0.000200146919491777
0.00667430125436339
0.0057030748769236
0.0105941104997912
0.0209080162667161
0.0330490201756352
0.0411776337480816
0.0459721126503711
0.049220781202751
0.0519325718387119
0.0540194694230436
0.0556802228655529
0.0570024452094579
0.0580836209237733
0.0589555562061762
0.0596530015178938
0.0602377658947617
0.060734801026302
0.0611651328643027
0.0615463690893998
0.0618920427887808
0.062216195286794
0.0625325578444363
0.0628628450253764
0.0632114344538228
0.0635852202869819
0.0639875022081897
0.0644179968314505
0.0648715461941158
0.0653385967677245
0.065802197463089
0.0662368037984502
0.0666406239817585
0.0670034402951096
0.0673153446179912
0.067566022098929
0.0677459576807275
0.0678459123312729
0.0678788072140156
0.0678215803919393
0.0675087737585976
0.0674594907072726
0.0674674065640459
0.0676327644834278
0.0679367776914187
0.068392523235829
0.0689895361554972
0.0697225812948937
0.0705817771269458
0.0715584804332519
0.0726435712628544
0.0738286395271215
0.0751056473810665
0.0764671222246549
0.0779060464320339
0.0794158501568008
0.0809903560643345
0.0826237579854724
0.0843106094084187
0.0860458393753485
0.0878247945610784
0.0896433067713994
0.0914977815567977
0.0933853073194606
0.095303786875698
0.0972520952203944
0.0992302673144921
0.101239721530758
0.103283524120809
0.105366688322441
0.107496508961617
0.109683022556355
0.11193940027696
0.114281528811828
0.116729399874191
0.119311083543689
0.122040817864368
0.124905488236668
0.12806149156111
0.131480406651732
0.133922830876836
0.136011682349853
0.137871935230434
0.13966596343326
0.141475666425116
0.143370567342152
0.145403611704935
0.147621410793508
0.150052976932964
0.152741789474913
0.155781127952414
0.159200803606022
0.162997973633216
0.167135731801933
0.171549941591461
0.17614490560924
0.180809023742777
0.185375874336226
0.189686228725799
0.193629718035088
0.197103335298255
0.200025278700567
0.202278964813215
0.2037562801374
0.204217194618068
0.203398965885393
0.200608539411245
0.195054476458673
0.185901776545452
0.172066799854354
0.152321101893139
0.125494993327195
0.0907110932895802
0.0502186677111137
0.00786847481572909
-0.0189106406936532
-0.0293436641183903
-0.0267748268797643
-0.019377085134369
-0.00476173302062148
0.000431548875618454
0.00686677146789671
0.00611837368505968
0.0111008081495716
0.0211864689346688
0.0330199480260145
0.0410310928783925
0.0458626777343013
0.0491129781794405
0.0518314944227808
0.0539344188213751
0.0556092606325593
0.056944401366954
0.0580376932817444
0.0589220070847762
0.0596301563409181
0.0602231131590306
0.060726874199533
0.0611625444996607
0.0615479606637221
0.0618966824220919
0.06222260734643
0.0625390435828075
0.0628675451086535
0.0632130105492016
0.0635824525272601
0.0639794458636274
0.064404032624448
0.0648515022328336
0.0653129363903206
0.065772256761246
0.0662041367486074
0.0666060001054572
0.0669677456559759
0.0672796113025484
0.0675314495579342
0.0677135597999448
0.0678161217907826
0.0678521799054512
0.0677949703857979
0.067490993153775
0.0674476848203749
0.0674587671311312
0.0676282040535283
0.06793569100333
0.0683945477102884
0.0689938570658967
0.0697284755134161
0.0705885384141768
0.0715655266685643
0.072650425071589
0.0738349314512054
0.0751111021941305
0.0764715481719339
0.0779093256749183
0.0794179299489225
0.0809912414727791
0.0826235042441088
0.0843093139258416
0.0860436321490373
0.087821827403195
0.0896397412574391
0.0914937752590672
0.0933809973887638
0.0952992699199987
0.0972474022274231
0.0992253320842107
0.101234340370019
0.103277303126927
0.105358974690857
0.107486298170401
0.109668813048138
0.111919004645234
0.114251891094009
0.116685998354462
0.119246673403376
0.121947854383379
0.124775877442967
0.12786022323136
0.131158348222829
0.133607674375285
0.13571915058966
0.13760768376786
0.13943157655447
0.141272735960922
0.143201035177998
0.145269476459474
0.147524588876548
0.149996123300289
0.152730420776229
0.155812643462084
0.159267910669038
0.163091120639201
0.167243177677188
0.17165851699198
0.176240474118276
0.180877251023964
0.185404710230759
0.189671264497869
0.193568022220623
0.196991207268601
0.199856779454847
0.202044807331905
0.203440799564161
0.203796247775626
0.20283135935904
0.199844923713831
0.194058915788802
0.184649453505401
0.170556204399814
0.150612515833049
0.123770261038863
0.0893960277021543
0.0499290684540347
0.00917077452255807
-0.0166361257643702
-0.0271665661401197
-0.0251952225427209
-0.018474428584897
-0.00440529022508441
0.000760051249234021
0.00714267191207421
0.00663577694256634
0.0117197706321656
0.0216041774849982
0.0331042402923664
0.0409171324396633
0.0457723694854467
0.0490143480144474
0.0517322350313747
0.0538496691112327
0.055537675550289
0.056885000865733
0.0579900760683215
0.0588868848576434
0.0596061623563357
0.0602077558792821
0.0607186794117209
0.0611600600206133
0.0615499568691459
0.0619019364707691
0.062229732742927
0.0625461953177491
0.0628725276310763
0.0632141104672684
0.0635780636983194
0.0639682196617399
0.0643849428989638
0.0648240092523501
0.0652772173692934
0.0657295811222716
0.0661563866631056
0.0665542930607426
0.0669134278768752
0.0672243146620241
0.0674770587973542
0.0676617772131156
0.0677679089211115
0.0678073617200352
0.0677507839856905
0.0674641577436841
0.0674286242243248
0.067446093187997
0.0676226008435704
0.0679356423434611
0.0683988957275163
0.0690011662282204
0.0697375769090115
0.0705984216772752
0.0715754060642285
0.07265969635641
0.0738431506501994
0.075117959037292
0.0764768439441341
0.0779129571291885
0.079419875083975
0.080991548514853
0.0826222806285022
0.0843067152010695
0.0860398490741834
0.0878170716779933
0.0896342297287604
0.0914877120193558
0.0933745526213512
0.0952925542864046
0.0972404354404936
0.0992180041122594
0.101226363114282
0.103268148893134
0.10534779798847
0.107471833993629
0.109649224448216
0.111891688168851
0.114213303474368
0.116631152091159
0.119167859658529
0.121837092943851
0.124624871783817
0.127637072562861
0.130815578751772
0.133268450405949
0.135399331612717
0.137316630266588
0.139171301934245
0.141045132249357
0.143007767670081
0.145112086459125
0.147404431574107
0.149915103816073
0.152692542187897
0.155813292295003
0.159298196755019
0.163139997237688
0.167297600516483
0.171704324275315
0.176262888907245
0.180862000393952
0.18534045033711
0.189554236324471
0.193395143051135
0.196758237368595
0.199556878958079
0.201666949493614
0.202966587411456
0.203197327258642
0.202061984268634
0.198852636411439
0.192807234195125
0.183115413654138
0.168744770629549
0.148599224814909
0.12176389504973
0.0878562097322396
0.0494863799458374
0.0103753121514628
-0.0143799271495441
-0.024891126161671
-0.0234281728310553
-0.0173738757527295
-0.00392953707766154
0.00116726561429708
0.00749155767586107
0.00723976196212702
0.0123992705606018
0.022122083409599
0.033295199761408
0.0408670609621458
0.0457169018328075
0.0489399262768043
0.0516376685781429
0.0537653189703746
0.055465345976195
0.0568240106426568
0.0579404909164871
0.0588499625133525
0.0595808994525569
0.0601916734640653
0.0607103040589602
0.0611578785451221
0.0615526582313758
0.06190818363363
0.0622379919510548
0.0625544280886574
0.0628781475230249
0.0632149964300406
0.0635722146049301
0.0639539101090953
0.0643608181635054
0.0647892920103753
0.0652319506122999
0.0656750844809715
0.0660949304954601
0.0664873818810686
0.0668428393896638
0.0671520909344079
0.0674054014099583
0.067592603837817
0.0677023461655099
0.0677446999122622
0.0676899558473478
0.067429077663597
0.0674032555424692
0.0674304213926832
0.0676161899390708
0.0679361974335057
0.0684045543626464
0.0690100675355581
0.069748262500622
0.0706097050027859
0.0715863925971924
0.0726697195284906
0.0738517354915289
0.0751247852242239
0.0764817179745979
0.0779157915031408
0.0794206713999185
0.0809903839213887
0.0826192948781129
0.0843020974782477
0.0860338229635678
0.0878098786384217
0.0896261110494052
0.0914788885481298
0.0933652010037856
0.0952827784151037
0.097230231808274
0.0992072196290229
0.10121464354534
0.103254874611272
0.105332003774363
0.107452107383272
0.109623558343706
0.111857296076893
0.114166457277142
0.116566746362777
0.119078200206262
0.121714155461065
0.124460140858381
0.12740178740469
0.130463713934058
0.132916933194771
0.135062966546185
0.137008237429675
0.138893573448169
0.14080050651333
0.142797848593202
0.144938173306869
0.147267500802526
0.149816458699366
0.152634960990625
0.155790758358832
0.159300828980556
0.163155742222424
0.167312528035937
0.171703600440652
0.176231327922951
0.180785386429996
0.185207660016699
0.189361465847028
0.193138593177391
0.196432887969387
0.199154536293227
0.201174654371446
0.202363425504898
0.202451377998723
0.201124736608335
0.197670291640547
0.191343986378995
0.181351842808561
0.166694474240385
0.146355069308691
0.119561520054914
0.0861807771956425
0.0489674540278433
0.0115141491115299
-0.012173808759582
-0.0225994421699824
-0.0215751382578207
-0.0161497613621882
-0.00336225471629597
0.00163657415335789
0.00789849174080696
0.00791368210564213
0.0131062929530973
0.0227008804547604
0.0335654578177603
0.0408989784683247
0.0457096678202199
0.0489135017328766
0.0515569883835593
0.0536827079001131
0.0553923894568357
0.0567612323302084
0.0578886304563155
0.0588109954981411
0.0595542749163853
0.0601749193464501
0.0607019468855574
0.0611563353640174
0.0615565114557621
0.0619159450594319
0.0622479362719132
0.0625642857631213
0.0628849329040994
0.0632162117337829
0.063565524484224
0.0639373094300307
0.0643327514709432
0.0647488806120454
0.0651792048340522
0.0656113796620339
0.0660228346252801
0.0664086844069868
0.0667595718999791
0.0670664229485619
0.0673195183765831
0.0675083713715537
0.0676210742416587
0.0676658891320543
0.0676148752458071
0.067386128730699
0.0673714340669444
0.0674110830446412
0.0676074955299367
0.0679354533288766
0.0684094236503719
0.069018445783946
0.0697585145425519
0.070620529792556
0.071596821670375
0.0726790352648753
0.0738594322581905
0.0751305234149453
0.0764852952760533
0.0779171181377386
0.0794197522243852
0.0809873028595309
0.082614200805414
0.0842951894826808
0.0860253338372419
0.0878000568321651
0.08961520132334
0.0914671104970299
0.0933527240827173
0.0952696920189252
0.0972165092038023
0.09919267435782
0.10119887669751
0.103237210156355
0.105311408534587
0.107427090869576
0.109592030605332
0.111816390612776
0.114112362237061
0.116494306937275
0.118979786444948
0.121581628735872
0.124284544027701
0.127157612719753
0.130106926106599
0.132558346856062
0.134715388324543
0.136687489419207
0.138603030279381
0.140543252223267
0.142575541255221
0.144752011112256
0.147118219517442
0.149704891866427
0.152562869680652
0.155751025800041
0.159282870921176
0.163146743809504
0.167297896078983
0.171667995809645
0.176159264226021
0.180662658191375
0.185023113845162
0.189111002301497
0.192817565821228
0.196035408358181
0.198671016733774
0.200590303634596
0.201655132154725
0.201584298646348
0.200048854138805
0.196331774489001
0.18970870478835
0.179405072081131
0.164459709727632
0.143943066228792
0.117233239847621
0.0844402046933088
0.0484340518918962
0.0126281126676608
-0.0100068402777682
-0.0203132890758576
-0.0196829717478078
-0.0148485497157581
-0.00272522491824942
0.00215650506702173
0.00835224787201224
0.00863995832455761
0.0138332037696795
0.0233003443897887
0.0338867416624828
0.041015853890703
0.0457553303339834
0.0489539517570102
0.0515076591130297
0.053606347629843
0.0553199998491739
0.0566969906039565
0.05783445859341
0.0587699114048045
0.0595263506218831
0.0601577178722636
0.060693984796217
0.0611559308979285
0.0615621008708993
0.0619258461073094
0.062260196297512
0.0625763941931981
0.0628935458512039
0.0632185227555145
0.0635589403093136
0.0639196323171864
0.064302307926408
0.064704746078692
0.0651213606093921
0.065541174846929
0.0659429789918115
0.0663211092107645
0.0666663962938079
0.0669697844817835
0.0672215043997982
0.0674108587512092
0.0675258092946654
0.0675731839373681
0.0675280622067603
0.0673353433304821
0.067332653091649
0.0673870805907624
0.0675951269539763
0.0679318905250721
0.0684120011865349
0.069024897475428
0.0697670719168427
0.0706297914457002
0.0716057483796187
0.0726868517567884
0.0738655921895258
0.0751346550014934
0.0764871734848391
0.0779166363181131
0.0794169037165284
0.0809821635938121
0.082606914247235
0.0842859505341434
0.0860143711056757
0.0877876134218323
0.0896015146708627
0.0914523903261026
0.0933371269397819
0.095253290699359
0.0971992560455707
0.0991743568825164
0.101179063959199
0.103215187884499
0.105286099052218
0.107396953140207
0.109554920567418
0.11176938546521
0.11405156309069
0.116414509550269
0.118873395570939
0.121440334536994
0.124098953231439
0.126905718011846
0.129747355561223
0.13219567836556
0.134359999075286
0.136357770287347
0.138302920014797
0.140276504639776
0.142343912532765
0.144556675042599
0.146959742400147
0.149583696461264
0.152479788721309
0.15569799588632
0.15924875639713
0.163118107209045
0.167259620569801
0.171604342424488
0.176054512667048
0.180502579094451
0.184796389859792
0.188813094773844
0.192443016962472
0.195577268064695
0.19811841387526
0.199926762422842
0.200855588187499
0.20061148643284
0.19885209180778
0.194858140997469
0.187926622786892
0.17730547968672
0.162076980343653
0.141405756609339
0.114825448724089
0.0826794610456596
0.0479230393378515
0.0137411996750902
-0.00786748633085574
-0.0180365175295819
-0.017769591219497
-0.0134949815738615
-0.00203278200427128
0.00272002321871155
0.00884621567836257
0.00940182717344591
0.0145866438577001
0.0238733213835253
0.0342380810908153
0.0412146551025228
0.0458422934155812
0.0490535833149739
0.0515101268497999
0.0535451984238957
0.0552512461686413
0.056632699717122
0.057778546983666
0.0587269766387988
0.0594974095020948
0.0601404796621855
0.0606869489488359
0.0611572700918947
0.0615700607868128
0.0619385142481883
0.0622753767781516
0.0625913517152918
0.0629046437052911
0.0632227135312991
0.0635534291228906
0.0639020786634505
0.0642709493685716
0.0646586075721061
0.0650603541949462
0.0654665363342138
0.0658574298133802
0.0662266178319063
0.0665650890123379
0.0668637490203072
0.0671128089269639
0.067301559330901
0.0674182655771322
0.0674687434106803
0.0674315036685616
0.0672767800853412
0.0672866956078483
0.0673578030310886
0.0675782709325379
0.0679246325061664
0.0684114241091826
0.0690286184780214
0.0697732106179817
0.0706368558297744
0.071612629934639
0.0726927153349125
0.0738698454367008
0.0751368875033753
0.0764871299622706
0.0779141853774906
0.0794120189889212
0.0809749047793347
0.0825974111890243
0.0842743859228612
0.0860009616183007
0.0877725895835877
0.0895851001736546
0.0914347796951066
0.0933184600462457
0.0952336218883302
0.0971785171924329
0.0991523125298537
0.101155256130067
0.103188870646713
0.105256157922462
0.107361804132338
0.109512370222181
0.111716448582933
0.11398424688179
0.116327552656847
0.118759238756233
0.121290554609166
0.123903896375232
0.126646985122261
0.129386633459399
0.131831065458554
0.133999398229933
0.136021727051197
0.137995811979441
0.14000275661704
0.142105400353848
0.144354598244064
0.146794534242495
0.14945539244414
0.152388342367754
0.155634518937624
0.159201677581195
0.163073474715057
0.16720190626746
0.171517492035065
0.175922624479223
0.180311370104
0.18453427391416
0.188474974785439
0.192022615146519
0.195066414703456
0.197505037905277
0.199192791967888
0.199974194511145
0.199543401472745
0.197546628458939
0.193264120493588
0.186015996494019
0.17507586284935
0.159574258587953
0.138775693901344
0.112373338963613
0.0809318756187384
0.047460052441241
0.0148687454823686
-0.00574821319611697
-0.0157698013421414
-0.0158422588473704
-0.0121016910568773
-0.00129313548480304
0.00332342228185056
0.00937674776977325
0.0101857655817608
0.015372573688554
0.0243800037909415
0.0346049969690407
0.0414760298947931
0.0459573878937324
0.0491557891495898
0.0515785857553945
0.053511416859569
0.0551909782499585
0.0565710808333203
0.0577223357328434
0.05868290815602
0.0594679325099078
0.0601236978310295
0.0606813823070514
0.0611609094115491
0.0615809282113462
0.0619544481685431
0.062293942920874
0.0626096207839459
0.0629187536777723
0.0632294295464963
0.0635497902897938
0.0638856236884962
0.0642398257095083
0.0646117630840673
0.0649975922469167
0.0653889231933688
0.0657676155076145
0.0661265528207532
0.0664568928763084
0.0667495079919513
0.0669946806737962
0.0671819015940721
0.0673000909102275
0.067354429818946
0.0673267221750661
0.0672106882761904
0.0672336605227897
0.0673229719537599
0.0675564852727802
0.0679131599424802
0.0684071488515142
0.0690290833674296
0.0697764411537408
0.0706412841905914
0.0716170826520669
0.0726963002064994
0.0738719227693584
0.0751370060518416
0.0764850004232251
0.0779096473704844
0.0794050215892969
0.0809654863862995
0.0825856827569863
0.0842605126123749
0.0859851428184125
0.0877550381185345
0.0895660211476723
0.0914143477244111
0.0932967946185894
0.0952107564034721
0.0971543614412772
0.0991266076791261
0.101127517718774
0.10315832166252
0.1052216473463
0.107321704021418
0.109464431703349
0.111657612763542
0.113910438987017
0.116233459503928
0.118637355617059
0.121132472495162
0.123699931191917
0.126382261608189
0.129026055225881
0.131466111945254
0.133635685118912
0.135681522810909
0.137683838087185
0.139724092810847
0.141862057506097
0.144147837743809
0.146624675670167
0.149322096341152
0.152290726833405
0.155562985599834
0.159144315186716
0.163015908771813
0.167128291783702
0.171411528249791
0.175768268258718
0.180094249701879
0.184242434082303
0.188102719188736
0.191562679904615
0.194509438321984
0.196837747236909
0.198395592460452
0.199018662518235
0.198388653005336
0.196142597817888
0.191562329002969
0.183992868707062
0.172735904104396
0.156972959403131
0.136075886480647
0.10990285646916
0.0792251567439175
0.0470655186292948
0.0160226916045685
-0.00364327286077851
-0.0135127372324597
-0.0139043896746734
-0.0106751581919831
-0.000510261625164667
0.00396529138870452
0.00994166425806466
0.0109828188387617
0.0161896300019538
0.0248113336279433
0.0349741067083942
0.0417610818728138
0.0461111013609603
0.0491999090162327
0.0517193145081276
0.0535171255699494
0.0551448903089056
0.0565155937900759
0.0576680393497198
0.0586388772217735
0.0594385343819141
0.0601078036673206
0.0606776666255995
0.0611672054243439
0.0615950265453135
0.0619739389437188
0.0623161702600483
0.0626314931543
0.0629362406727109
0.0632391468706769
0.0635486313890066
0.0638710112461671
0.0642098036245528
0.0645651749301704
0.0649341081210511
0.0653094125317533
0.0656746084015816
0.0660219589390352
0.0663428403718282
0.0666281402359825
0.0668683278905053
0.0670532809755747
0.0671728286538991
0.0672318406932919
0.067214962348354
0.0671374611696291
0.0671738101446453
0.0672824807808917
0.0675295169100107
0.0678971327302721
0.0683987931954007
0.0690259089978635
0.0697763956665325
0.0706427409620202
0.0716188088804522
0.0726973516540336
0.0738716129367532
0.0751348426233486
0.0764806581265426
0.0779029343860608
0.0793958593103701
0.0809538884980638
0.082571737637427
0.0842443640316583
0.0859669688738596
0.0877350300017386
0.0895443607962405
0.0913911849851956
0.0932722251184713
0.0951847908558756
0.0971268846935044
0.0990973329187482
0.101095930791233
0.103123612378377
0.105182624589834
0.107276688815565
0.109411110985206
0.111592858185139
0.113830106242033
0.116132199436805
0.11850776426815
0.120966300995185
0.123487693976943
0.126112376969925
0.128666673836379
0.131102075272191
0.133270641099345
0.13533900990852
0.137368863455916
0.139442353961752
0.141615712619197
0.14393823368636
0.146452026575738
0.149185695866057
0.152188901408341
0.155485534330712
0.159079063073791
0.162948136131389
0.167041914490285
0.171290053415231
0.175595539409694
0.179855761242679
0.183925762221551
0.187701624622095
0.191068627715558
0.193912012403759
0.196122445461764
0.197541378534415
0.197995678471458
0.197154837628261
0.194649315943506
0.189764600834495
0.181870520805741
0.17029758261783
0.154279517054559
0.133312679570574
0.107422913745848
0.0775807865633409
0.0467560445888121
0.0172125560248991
-0.00154790302442437
-0.0112641475216751
-0.0119575719252582
-0.00921870929985771
0.000314267582976436
0.00464567637969534
0.0105394304821533
0.0117886646658588
0.0170300905886563
0.0251938938507092
0.0353232303604311
0.0420304252785215
0.0463265967960594
0.0492277075698699
0.0518960339282945
0.0535720709956025
0.0551186439826494
0.0564695445676591
0.0576181637359558
0.0585963651726213