/*--------------------------------*- C++ -*----------------------------------*\
  =========                 |
  \\      /  F ield         | OpenFOAM: The Open Source CFD Toolbox
   \\    /   O peration     | Website:  https://openfoam.org
    \\  /    A nd           | Version:  7
     \\/     M anipulation  |
\*---------------------------------------------------------------------------*/
FoamFile
{
    version     2.0;
    format      ascii;
    class       surfaceScalarField;
    location    "20000";
    object      phi;
}
// * * * * * * * * * * * * * * * * * * * * * * * * * * * * * * * * * * * * * //

dimensions      [0 3 -1 0 0 0 0];

internalField   nonuniform List<scalar> 
30950
(
3.05536387443837e-05
-1.22499912046952e-06
3.43372610093789e-05
-3.78362220932802e-06
2.78779594633427e-05
6.45930155659123e-06
1.38158807720031e-05
1.40620786946749e-05
-7.4384917756878e-07
1.45597299459823e-05
-8.45618656770314e-06
7.71233738017213e-06
-1.00224152138092e-05
1.56622863466314e-06
-8.9890885224812e-06
-1.03332671762866e-06
-7.78195252735154e-06
-1.20713602904883e-06
-6.6858605176275e-06
-1.09609202715846e-06
-5.81835856900048e-06
-8.67501957912703e-07
-5.12929415813765e-06
-6.89064420134599e-07
-4.57131817810982e-06
-5.57975982566017e-07
-4.10144319997636e-06
-4.69874975578708e-07
-3.73873191973957e-06
-3.62711279395627e-07
-3.50832595296104e-06
-2.30405970967442e-07
-3.3705773981415e-06
-1.37748562832951e-07
-3.32444354995083e-06
-4.61338567874021e-08
-3.3849246913413e-06
6.04811354622424e-08
-3.56393757692559e-06
1.79012884270576e-07
-3.87564356874341e-06
3.11705995471104e-07
-4.32514210632633e-06
4.49498544675767e-07
-4.89569709100006e-06
5.70554991613619e-07
-5.53220920316022e-06
6.36512114113368e-07
-6.21874451449322e-06
6.86535304216363e-07
-6.93190872301812e-06
7.13164189737419e-07
-7.63335403595324e-06
7.01445282043872e-07
-8.27574918257017e-06
6.42395105327616e-07
-8.80781337560223e-06
5.32064144303758e-07
-9.18261486547952e-06
3.7480143698673e-07
-9.39557774313746e-06
2.12962823518376e-07
-9.50510294745743e-06
1.09525150527517e-07
-9.46806398654e-06
-3.70390145969601e-08
-9.2587040255504e-06
-2.09360014877521e-07
-8.88966672226314e-06
-3.69037357478298e-07
-8.41614081720249e-06
-4.7352595946928e-07
-7.95188773935231e-06
-4.64253132333632e-07
-7.66451654696617e-06
-2.87371246975087e-07
-7.66872077879404e-06
4.20417684293098e-09
-8.6506430478382e-06
9.81922212025637e-07
-1.27344752021998e-05
4.08383209814929e-06
-1.69167885466027e-05
4.18231328790378e-06
-2.08760588321258e-05
3.95927022740275e-06
-2.45122750681582e-05
3.63621617472846e-06
-2.78368713317833e-05
3.32459619731324e-06
-3.0830947788372e-05
2.99407638367982e-06
-3.35188382268952e-05
2.68789035806287e-06
-3.59222221346211e-05
2.40338381974528e-06
-3.80700588829853e-05
2.14783665369105e-06
-3.99882880792491e-05
1.91822909616274e-06
-4.17015110945035e-05
1.71322291102883e-06
-4.32311824798854e-05
1.52967127824254e-06
-4.45962983894955e-05
1.36511580068554e-06
-4.58134599428538e-05
1.21716144375109e-06
-4.68974224253138e-05
1.08396237324865e-06
-4.78615133500642e-05
9.64090816948263e-07
-4.87181183664714e-05
8.56604910932971e-07
-4.94791135844755e-05
7.60995115649501e-07
-5.01562711805696e-05
6.77157497526776e-07
-5.07616046539018e-05
6.05333379154736e-07
-5.13076385612554e-05
5.46033818134595e-07
-5.18076053779415e-05
4.99966733021474e-07
-5.22755885462982e-05
4.67983090833365e-07
-5.27266240682272e-05
4.51035451059732e-07
-5.31767591909737e-05
4.50135058904666e-07
-5.36430525810821e-05
4.66293333530988e-07
-5.41434889605567e-05
5.00436330343996e-07
-5.46967551260295e-05
5.53266123969896e-07
-5.53217908501868e-05
6.25035690370715e-07
-5.60370333195929e-05
7.15242443233309e-07
-5.68591191685665e-05
8.22085830275263e-07
-5.78000367468537e-05
9.40917567246147e-07
-5.88626064142565e-05
1.06256966468231e-06
-6.0036249705055e-05
1.17364329707862e-06
-6.12757577165601e-05
1.23950802691102e-06
-6.24461817086579e-05
1.17042401655619e-06
-6.33653507268499e-05
9.1916905195069e-07
-6.37688405496951e-05
4.03489865152047e-07
-6.15387663420725e-05
-2.23007415537828e-06
-5.34621760192069e-05
-8.07659024992642e-06
-4.83441093311661e-05
-5.11806660533619e-06
-4.56203950365071e-05
-2.72371420602193e-06
-4.39934031957938e-05
-1.62699174789323e-06
-4.29285453632783e-05
-1.06485773747462e-06
-4.21332083991708e-05
-7.95336868340777e-07
-4.14240765635893e-05
-7.09131739970869e-07
-4.06794306491935e-05
-7.44645819384673e-07
-3.9813087910846e-05
-8.66342644062859e-07
-3.88697881482865e-05
-9.43299668946468e-07
-3.80214180248286e-05
-8.48370030486415e-07
-3.70742894271257e-05
-9.47128504951254e-07
-3.58310763672255e-05
-1.24321296657621e-06
-3.4188398674889e-05
-1.64267759759703e-06
-3.2103063300451e-05
-2.08533527768155e-06
-2.95578470664201e-05
-2.54521613507655e-06
-2.65641666329212e-05
-2.99368033262402e-06
-2.30882338270748e-05
-3.47593270399581e-06
-1.91774701214887e-05
-3.91076360444219e-06
-1.50216335368968e-05
-4.15583648601084e-06
-1.07814180484767e-05
-4.24021539408143e-06
-6.56795237873302e-06
-4.21346558106857e-06
-2.41155983923386e-06
-4.1563924577037e-06
1.66595098640708e-06
-4.07751075206106e-06
5.75733604980402e-06
-4.09138499909387e-06
9.94180588827953e-06
-4.18446978383289e-06
1.4666682802328e-05
-4.72487686916753e-06
2.01748602658446e-05
-5.5081774291824e-06
2.65885245909444e-05
-6.41366430245572e-06
3.42090008186632e-05
-7.62047621696975e-06
4.34343915571426e-05
-9.22539073824727e-06
5.48008793002409e-05
-1.13664877476339e-05
6.87004815691057e-05
-1.38996022708037e-05
8.40078084585228e-05
-1.53073268787798e-05
9.62536601770393e-05
-1.22458516968152e-05
9.32764492647666e-05
2.97721093065629e-06
7.81653264813248e-05
1.5111122797112e-05
5.87926304911571e-05
1.93726960050184e-05
4.18503840852328e-05
1.69422464243031e-05
2.94642596125854e-05
1.23861244929933e-05
1.3551596991908e-07
0.00010199134289087
-2.42934542361765e-06
0.00010854691320472
-1.03391924392876e-05
9.36017558776407e-05
2.14044589123887e-05
5.68426268547886e-05
5.08212077329112e-05
1.29964818731378e-05
5.84058749375807e-05
-1.62089146754502e-05
3.69177339300369e-05
-2.60100104528771e-05
1.13673244120876e-05
-2.51116881770106e-05
-1.93164900382609e-06
-2.21832645730435e-05
-4.13555966274845e-06
-1.93608957813233e-05
-3.91846084878813e-06
-1.7036566426161e-05
-3.19183133857627e-06
-1.51647895654175e-05
-2.56084131098532e-06
-1.36304580801646e-05
-2.09230749771962e-06
-1.23527639671251e-05
-1.74756911307754e-06
-1.13771190356889e-05
-1.33835623181867e-06
-1.0762262149752e-05
-8.45262878443223e-07
-1.0427924302744e-05
-4.72086434242538e-07
-1.03673049439312e-05
-1.06753242421527e-07
-1.06221572780017e-05
3.15333443012179e-07
-1.12278992479082e-05
7.84754831554328e-07
-1.22199986291239e-05
1.30380536123771e-06
-1.36060868058715e-05
1.8355867149951e-06
-1.5328765356809e-05
2.29323354455251e-06
-1.72514536274692e-05
2.55920039129013e-06
-1.93167064635845e-05
2.75178814490046e-06
-2.14598010444796e-05
2.85625876540357e-06
-2.35781866725076e-05
2.81983088753743e-06
-2.55490151382637e-05
2.61322352581987e-06
-2.72441620181421e-05
2.22721095382792e-06
-2.85588530968662e-05
1.68949242094239e-06
-2.94914720121987e-05
1.14558162266985e-06
-3.01520581295624e-05
7.70111134718676e-07
-3.04542990585129e-05
2.65201767986913e-07
-3.03331754593954e-05
-3.30483770764889e-07
-2.98283505651795e-05
-8.73862417239114e-07
-2.91004751477915e-05
-1.20140155051522e-06
-2.84731165236587e-05
-1.09161193833158e-06
-2.84220050042263e-05
-3.38482956356919e-07
-2.9641487329029e-05
1.2236863041773e-06
-3.42728611661966e-05
5.61329584545082e-06
-4.57120008739792e-05
1.55229716027196e-05
-5.76697129598791e-05
1.61400251714903e-05
-6.86478017584312e-05
1.49373588208905e-05
-7.85908810622049e-05
1.35792952668032e-05
-8.75103306986414e-05
1.22440456123259e-05
-9.54478933620721e-05
1.09316388139966e-05
-0.000102491810113074
9.73180686383487e-06
-0.000108733517099284
8.64509054981062e-06
-0.000114264676651706
7.67899594132158e-06
-0.000119167309642384
6.8208618160118e-06
-0.000123514039780139
6.05995277441876e-06
-0.000127367562741557
5.38319396402744e-06
-0.000130782179447622
4.77973223197561e-06
-0.00013380512176199
4.24010348625964e-06
-0.000136478140596544
3.75698094081549e-06
-0.00013883893539691
3.3248853570322e-06
-0.000140922495151147
2.94016441324262e-06
-0.000142762278323055
2.60077804545792e-06
-0.00014439122539402
2.30610433755286e-06
-0.000145842573797653
2.05668156421588e-06
-0.000147150449049268
1.85390886468427e-06
-0.000148350252558222
1.6997700514669e-06
-0.000149478881929177
1.59661228676265e-06
-0.000150574798555528
1.54695191860712e-06
-0.000151677920696924
1.55325705826337e-06
-0.000152829283031588
1.61765554332506e-06
-0.000154070363831271
1.7415170226695e-06
-0.000155441923174902
1.9248253780455e-06
-0.000156982105664388
2.16521810827876e-06
-0.000158723381415947
2.45651814131157e-06
-0.000160687634977832
2.78633935708221e-06
-0.00016287813889813
3.13142147158202e-06
-0.000165265515488149
3.44994625879569e-06
-0.000167763747572905
3.67187540666672e-06
-0.000170192510346017
3.66827084607238e-06
-0.000172195616556089
3.17353029492665e-06
-0.000173021662569903
1.74521515711614e-06
-0.000171186587451385
-1.43158513945851e-06
-0.000163563260745265
-9.85340071951539e-06
-0.000147650942776763
-2.39889080340329e-05
-0.00013676098934927
-1.60080198177924e-05
-0.000130596997132745
-8.88770618466353e-06
-0.000126552110752715
-5.67187787364586e-06
-0.000123547524759209
-4.06944346555898e-06
-0.000120922966590082
-3.41989476459912e-06
-0.000118277309847046
-3.35478820560853e-06
-0.000115358517645158
-3.66343774188157e-06
-0.000112050238542177
-4.17462146807392e-06
-0.00010846922100559
-4.52431692934318e-06
-0.000104846977409924
-4.47061335503026e-06
-0.000100807784587332
-4.98632106340436e-06
-9.59773705908067e-05
-6.0736267077063e-06
-9.01809003396434e-05
-7.43914760386076e-06
-8.33597256572636e-05
-8.906509727417e-06
-7.55072532965237e-05
-1.03976882771785e-05
-6.66584092747404e-05
-1.18425241513993e-05
-5.68019680836359e-05
-1.33323737091526e-05
-4.60890294210545e-05
-1.46237020992801e-05
-3.49116270162273e-05
-1.53332387418449e-05
-2.36080655982378e-05
-1.55437766817743e-05
-1.23987485744372e-05
-1.54227824927024e-05
-1.35501488442247e-06
-1.52001260529663e-05
9.50840619403933e-06
-1.49409317524559e-05
2.03802417825032e-05
-1.49632205249258e-05
3.15265693991001e-05
-1.53307973510682e-05
4.39042970730852e-05
-1.71026045045286e-05
5.8104668609049e-05
-1.97085489348258e-05
7.44984933776529e-05
-2.28074890460056e-05
9.37832516668696e-05
-2.69052344826722e-05
0.000116868866678613
-3.23110057239501e-05
0.000144963167436206
-3.94607884724847e-05
0.000178823611331882
-4.77600461252454e-05
0.000216565755139136
-5.30494706378654e-05
0.00024914443150751
-4.48245280181293e-05
0.000253496658172772
-1.37501569822545e-06
0.000228290127764726
4.03176532317738e-05
0.000185887130178353
6.17756936156169e-05
0.000142057761089781
6.07716155399604e-05
0.000108276677439227
4.61672081715056e-05
7.62519693422024e-06
0.000186737677607191
-4.79876560583012e-08
0.000192331987106451
-1.59335018567815e-05
0.000171495878838851
4.22405672216727e-05
0.000116856944802756
0.000105460141789415
4.36718992814058e-05
0.000131590920473182
-1.34983784587152e-05
9.40880116728319e-05
-3.78104485777614e-05
3.56793945322206e-05
-3.9889247850079e-05
1.47150260408862e-07
-3.61386095426278e-05
-7.88619800002913e-06
-3.20079471517827e-05
-8.04912327709039e-06
-2.845682883184e-05
-6.74294969396252e-06
-2.55340275733334e-05
-5.48364261009285e-06
-2.31029681415482e-05
-4.5233669728473e-06
-2.10806299692542e-05
-3.7699073241972e-06
-1.95428516849568e-05
-2.87613454912256e-06
-1.85820560957669e-05
-1.80605849815948e-06
-1.80991994540125e-05
-9.54943107815662e-07
-1.80819755828183e-05
-1.23977148072647e-07
-1.85961133367446e-05
8.2947116152806e-07
-1.96996700925162e-05
1.88831155458459e-06
-2.14446113882185e-05
3.04874663087522e-06
-2.38344802462442e-05
4.225455556562e-06
-2.67677228261312e-05
5.22647611816892e-06
-3.00384066284154e-05
5.82988419429022e-06
-3.35434034315478e-05
6.2567849490705e-06
-3.71780366483351e-05
6.49089197445546e-06
-4.07843232383879e-05
6.42611745148166e-06
-4.41788634911892e-05
6.00776372627468e-06
-4.71799570507335e-05
5.2283044304141e-06
-4.96558462328203e-05
4.16538148900938e-06
-5.16200957477314e-05
3.1098309955039e-06
-5.32113255047596e-05
2.36134072726881e-06
-5.43264847518701e-05
1.3803608338534e-06
-5.48808005768133e-05
2.2383186065002e-07
-5.49457698194702e-05
-8.08893377578752e-07
-5.4781324772896e-05
-1.36584680870844e-06
-5.48985124761373e-05
-9.74424455290384e-07
-5.61135733501239e-05
8.76577688614897e-07
-5.99043464657784e-05
5.01445918332368e-06
-6.93619094754155e-05
1.507085861451e-05
-8.76029003312707e-05
3.37639622249467e-05
-0.000106473914558958
3.50110391704528e-05
-0.000123429667047314
3.1893111080151e-05
-0.000138511682272964
2.86613102580246e-05
-0.000151809471509228
2.55418346050606e-05
-0.000163485506138842
2.26076731886508e-05
-0.000173722828851173
1.99691293094397e-05
-0.00018269946305941
1.76217244811438e-05
-0.000190576009641331
1.55555422388012e-05
-0.00019749194904409
1.37368009296321e-05
-0.000203566441988185
1.2134445427233e-05
-0.000208900874391196
1.07176260759149e-05
-0.000213581895452236
9.46075300416921e-06
-0.000217684452283968
8.34266003344949e-06
-0.000221274510717815
7.34703909634327e-06
-0.000224411478449014
6.46185281789733e-06
-0.000227150261296759
5.67894700024914e-06
-0.000229542996584202
4.99351308319726e-06
-0.000231640436575084
4.4035440910776e-06
-0.000233492987546373
3.90923231170474e-06
-0.000235151386563542
3.51230767271482e-06
-0.000236667054243256
3.21543753766484e-06
-0.000238092158011183
3.02171587760284e-06
-0.00023947938422936
2.9341779767702e-06
-0.00024088136373462
2.95523642108164e-06
-0.000242349642678732
3.0859343629541e-06
-0.000243933030527229
3.32490476494203e-06
-0.000245675076271273
3.66687103434795e-06
-0.000247610283503503
4.1004252714466e-06
-0.000249758411448813
4.60464603650622e-06
-0.000252115988353925
5.1439162314638e-06
-0.000254643521137054
5.65895424395999e-06
-0.00025724397860644
6.05040373795299e-06
-0.000259728250436235
6.15614726715787e-06
-0.000261767838201632
5.70785866380882e-06
-0.000262777431354282
4.18312352292893e-06
-0.000261618068634433
5.85852536528687e-07
-0.000256538880341023
-6.51077330946697e-06
-0.000245342718465255
-2.10495624437842e-05
-0.000227520792328133
-4.18108339852224e-05
-0.000214870101255366
-2.8658710673379e-05
-0.000207019062246435
-1.6738744949526e-05
-0.000201296981134474
-1.13939587218557e-05
-0.000196500503505706
-8.86592081646717e-06
-0.000191852709591923
-8.06768839016957e-06
-0.000186894741666301
-8.31275583573743e-06
-0.000181362047714049
-9.19613139408932e-06
-0.000175171981744483
-1.03646871357057e-05
-0.000168460266947645
-1.12360314250916e-05
-0.000161393929999423
-1.15369500057549e-05
-0.000153555455886598
-1.28247948850295e-05
-0.000144555987287681
-1.50730950245133e-05
-0.000134231223978958
-1.77639106423119e-05
-0.000122538777066376
-2.05989563842408e-05
-0.000109496548751965
-2.3439916352846e-05
-9.51654054517501e-05
-2.61736672320899e-05
-7.9599454357896e-05
-2.88983246043883e-05
-6.30496424286279e-05
-3.11735138516788e-05
-4.59886225326024e-05
-3.23942584827728e-05
-2.88128140471072e-05
-3.27195850333256e-05
-1.17688118633099e-05
-3.24667845625796e-05
5.05847673542384e-06
-3.20274145566918e-05
2.16863285195966e-05
-3.15687834591476e-05
3.83592518597057e-05
-3.16361438023777e-05
5.55138494404976e-05
-3.24853948805707e-05
7.43825399458434e-05
-3.59712949664664e-05
9.57861394622641e-05
-4.11121484120158e-05
0.000120272499976772
-4.72938495210216e-05
0.000148720723494572
-5.53534579561e-05
0.000182230781950037
-6.58210641263172e-05
0.000222187332572409
-7.94173390313948e-05
0.000269246221305692
-9.48189347867324e-05
0.000321260606184968
-0.000105063855442809
0.000368397839412724
-9.19617611762723e-05
0.000385675873015986
-1.86530492402994e-05
0.000365524757329336
6.04687689699119e-05
0.000316808306811263
0.000110492144175585
0.000257494059341811
0.000120085863046691
0.000207359384790374
9.63018827555319e-05
2.58655464132384e-05
0.000280209048511423
8.31375981414616e-06
0.000282152542037818
-1.78769953248475e-05
0.000257817375297343
6.65757340065907e-05
0.000191630477002631
0.000171647040107954
9.24343308932367e-05
0.00023078706659829
2.68790641744897e-06
0.000183834436150812
-4.33445254763257e-05
8.17118264230133e-05
-5.23549900581771e-05
9.15761483022794e-06
-4.91404942969161e-05
-1.11006937940966e-05
-4.42772017948695e-05
-1.29124158210958e-05
-3.98400947258368e-05
-1.11800568039518e-05
-3.60696107620149e-05
-9.25412661877444e-06
-3.28752420111648e-05
-7.7177357716654e-06
-3.02085950037114e-05
-6.43655437602374e-06
-2.81884584802988e-05
-4.89627111061415e-06
-2.69472746571354e-05
-3.04724235561018e-06
-2.63835044690774e-05
-1.51871333033271e-06
-2.64843314798022e-05
-2.31501740064268e-08
-2.73364123281523e-05
1.68155197211246e-06
-2.90180272364306e-05
3.56992642728512e-06
-3.15918652905318e-05
5.62258465547859e-06
-3.50493839101434e-05
7.68297415570216e-06
-3.9244505977476e-05
9.42159817474682e-06
-4.39094942924583e-05
1.04948725052389e-05
-4.88972861030649e-05
1.12445767560454e-05
-5.40660500255719e-05
1.16596558850329e-05
-5.92147148768057e-05
1.15747822731314e-05
-6.41190649248479e-05
1.09121137192857e-05
-6.85720270484958e-05
9.68126646907946e-06
-7.24438166546052e-05
8.03717097958483e-06
-7.57705078589952e-05
6.43652205679304e-06
-7.87124471946768e-05
5.30327989828501e-06
-8.11680156996821e-05
3.83592915874529e-06
-8.30542585501067e-05
2.11007452036248e-06
-8.44766773287024e-05
6.13525203105341e-07
-8.57800929692228e-05
-6.24313722024005e-08
-8.76361740452697e-05
8.81656410021384e-07
-9.12126786152172e-05
4.4530820417186e-06
-9.86328438114708e-05
1.24346241581702e-05
-0.000113130334288336
2.95683488702653e-05
-0.000136897110369737
5.75307380996049e-05
-0.000160803527444528
5.89174560462515e-05
-0.000181744243311563
5.28338267493818e-05
-0.000199906324747097
4.68233914920624e-05
-0.000215564139078517
4.11996487276081e-05
-0.000229045806925658
3.60893408174196e-05
-0.000240656463585244
3.15797857411336e-05
-0.000250668199573585
2.76334602337807e-05
-0.00025931079467792
2.4198137102109e-05
-0.000266776710570232
2.1202716578071e-05
-0.000273225659859809
1.85833944722503e-05
-0.000278791182096368
1.62831480691082e-05
-0.00028358585499335
1.42554256606955e-05
-0.000287706164827573
1.24629696317383e-05
-0.00029123633609086
1.08772101297169e-05
-0.000294251579767708
9.47709627222769e-06
-0.000296820644775276
8.24801179393711e-06
-0.000299007851513615
7.18071961741711e-06
-0.000300874594623212
6.27028700735059e-06
-0.000302480372812572
5.51501031944291e-06
-0.000303883349959962
4.9152846509701e-06
-0.000305140501662363
4.47258908406408e-06
-0.000306307374455339
4.1885885282306e-06
-0.000307437437479349
4.06424087249901e-06
-0.000308580946097613
4.09874492547045e-06
-0.00030978318479035
4.28817295648288e-06
-0.000311081899163319
4.62361905353072e-06
-0.000312503653995556
5.08862579714667e-06
-0.000314058738018451
5.65550924001054e-06
-0.000315734028229736
6.27993620886857e-06
-0.000317483077093967
6.89296507251462e-06
-0.000319212277696652
7.38815483942515e-06
-0.000320759877141341
7.59800319148023e-06
-0.000321864994767905
7.26126491879526e-06
-0.000322129092283902
5.97195622169003e-06
-0.000320944170169213
2.99820146794191e-06
-0.000317357249342386
-3.0010682121548e-06
-0.000310156635270565
-1.37113872845877e-05
-0.00029824209321336
-3.29641043849332e-05
-0.0002823515173243
-5.77014097396389e-05
-0.000270684890498673
-4.03253373413685e-05
-0.000262477131802878
-2.49465034658618e-05
-0.000255708911829126
-1.81621784993991e-05
-0.000249370676996138
-1.52041554403851e-05
-0.000242787659313113
-1.46507058540053e-05
-0.000235575114743948
-1.55253001779103e-05
-0.000227527947674348
-1.72432982310154e-05
-0.000218600377526296
-1.92922570475071e-05
-0.000208895141234244
-2.09412674795446e-05
-0.00019848265824975
-2.1949432753707e-05
-0.000187013074530793
-2.42943783712393e-05
-0.000174200194934395
-2.78859743948321e-05
-0.000159940305389599
-3.2023799970366e-05
-0.000144220714918111
-3.63185466508139e-05
-0.000127084113688753
-4.0576517391332e-05
-0.000108613130642377
-4.46446501034966e-05
-8.89264202287849e-05
-4.8585034860158e-05
-6.83269119192387e-05
-5.17730220208909e-05
-4.72551706435929e-05
-5.34659996351966e-05
-2.6062830140244e-05
-5.39119254298273e-05
-4.95926090279434e-06
-5.35703537087175e-05
1.59868198627188e-05
-5.29734952455824e-05
3.68296932488564e-05
-5.2411656781639e-05
5.78331724669803e-05
-5.26396229671021e-05
7.95229420625874e-05
-5.41751644299991e-05
0.000103175041013937
-5.96233938758659e-05
0.000129699917203717
-6.76370245607537e-05
0.000159721432559329
-7.73153648326357e-05
0.000194114788771452
-8.97468141177134e-05
0.000233914373953352
-0.00010562064924891
0.000280333635950771
-0.000125836600961233
0.00033373725411121
-0.000148222552874882
0.000392017389548612
-0.000163343990808699
0.000446751193829148
-0.000146695565389634
0.000476591792443212
-4.84936477881627e-05
0.000470619576654541
6.64409848222847e-05
0.000431401902801101
0.000149709818085094
0.000372480847156356
0.000179006918738132
0.000315838123577106
0.000152944606370635
5.31328740489759e-05
0.000369543914957749
2.21735790352989e-05
0.000367066417182602
-1.53994975111024e-05
0.0003426869172933
9.09552339348249e-05
0.000273742185582093
0.000240591771844049
0.000157086211696179
0.000347443040500936
3.46647391173458e-05
0.00030625590873366
-3.99173277087869e-05
0.000156293893242513
-6.12074719162183e-05
3.04477590230865e-05
-6.05408321432451e-05
-1.17673336025761e-05
-5.57692182654022e-05
-1.76840297444611e-05
-5.09244959034106e-05
-1.60247792110908e-05
-4.6601146545519e-05
-1.35774760247605e-05
-4.28357602361662e-05
-1.14831221319958e-05
-3.96646271163466e-05
-9.60768754361511e-06
-3.72700489330813e-05
-7.29084933528905e-06
-3.58351083634096e-05
-4.48218296252781e-06
-3.52735992547419e-05
-2.08022247608898e-06
-3.55785114680287e-05
2.81762000223483e-07
-3.68543315902483e-05
2.95737205442332e-06
-3.91954165896148e-05
5.91101138926457e-06
-4.2667468480561e-05
9.0946365154611e-06
-4.72409827437871e-05
1.22564883972687e-05
-5.2724523277904e-05
1.49051386970822e-05
-5.8795787892903e-05
1.65661371152133e-05
-6.52662245257162e-05
1.7715013384327e-05
-7.19607186632994e-05
1.83541500100978e-05
-7.86482235458025e-05
1.82622871262008e-05
-8.50844328807492e-05
1.73483230005648e-05
-9.10629333650081e-05
1.56597668713603e-05
-9.64768038773459e-05
1.34510413813021e-05
-0.000101387492777135
1.13472108205098e-05
-0.000105970178784264
9.88596575000559e-06
-0.000110142814956133
8.00856516203769e-06
-0.000113848491241285
5.81575062858216e-06
-0.00011723482260193
3.99985638118653e-06
-0.000120718077059275
3.42082289838942e-06
-0.000125092906780942
5.25648594026923e-06
-0.000131758623462345
1.11187985280741e-05
-0.000143023548253759
2.3699548752197e-05
-0.000161553827592587
4.80986280157479e-05
-0.000188230570889255
8.4207481219847e-05
-0.000213927055884077
8.46139408726444e-05
-0.000235676960405169
7.45837311044465e-05
-0.000253979468117399
6.51258990365048e-05
-0.000269353132461737
5.65733128995585e-05
-0.000282302478210854
4.90386863881652e-05
-0.000293238364809131
4.25156721553809e-05
-0.00030249952248259
3.68946177190368e-05
-0.000310354825718959
3.2053440148016e-05
-0.000317020803226059
2.78686938942567e-05
-0.000322671702857122
2.42342939135069e-05
-0.000327450244007112
2.10616890317161e-05
-0.000331474913763695
1.82800952334975e-05
-0.000334846174717923
1.58342304068573e-05
-0.000337651003540287
1.36820387786272e-05
-0.000339966512779408
1.17926053444415e-05
-0.0003418626559336
1.01441547885703e-05
-0.000343404263669223
8.72232720155728e-06
-0.000344652456174315
7.51847936968237e-06
-0.000345665514447472
6.5280684591256e-06
-0.000346499242908703
5.74901298846699e-06
-0.000347206883275079
5.1802293367864e-06
-0.00034783860662592
4.8203117757447e-06
-0.000348440558957358
4.66619311113297e-06
-0.00034905338271584
4.71156860183446e-06
-0.000349710097163919
4.94488733325221e-06
-0.00035043318546985
5.34670729901199e-06
-0.000351230691563309
5.88613184102502e-06
-0.000352091075263125
6.5158929011884e-06
-0.000352976469097993
7.1653300162335e-06
-0.0003538138875579
7.73038351625131e-06
-0.000354483889585357
8.05815686207697e-06
-0.00035480546765346
7.91958126601965e-06
-0.000354515921858293
6.97171914126095e-06
-0.000353249508065873
4.70554245832357e-06
-0.000350519741189206
2.68434632197664e-07
-0.000345685759165462
-7.83505018303566e-06
-0.000337972269611152
-2.14248767741278e-05
-0.000326795107767572
-4.4141266151665e-05
-0.000313362954790534
-7.11335626296545e-05
-0.000302903731347203
-5.07845606825455e-05
-0.000294618882291
-3.32313524052569e-05
-0.000287103040009354
-2.5678020652556e-05
-0.0002795641548066
-2.27430405053137e-05
-0.000271468882113076
-2.27459784021324e-05
-0.000262521484602183
-2.44726975374028e-05
-0.000252572489368924
-2.71922933083365e-05
-0.000241596112198044
-3.02686340593907e-05
-0.000229659759276427
-3.28776202407247e-05
-0.000216773287991982
-3.48359038781918e-05
-0.00020268419509773
-3.83834711083287e-05
-0.000187207762555698
-4.33624067847758e-05
-0.000170288852354093
-4.89427100269343e-05
-0.000151933050673529
-5.46743481951271e-05
-0.000132196643629065
-6.03129243097654e-05
-0.000111172299177525
-6.56689944403268e-05
-8.90164664211308e-05
-7.07408675137215e-05
-6.60394124659334e-05
-7.47500758849799e-05
-4.26198219732391e-05
-7.68855900479476e-05
-1.90500655225214e-05
-7.74816818111137e-05
4.50621185077547e-06
-7.71266310225665e-05
2.80060597324296e-05
-7.64733430772121e-05
5.15368621089125e-05
-7.59424591161836e-05
7.53652760111024e-05
-7.64680368335198e-05
0.000100051297841712
-7.88611862289948e-05
0.000126786495062195
-8.6358591066834e-05
0.00015648322449607
-9.73337539647975e-05
0.000189787885642285
-0.000110620025945966
0.000227515818618645
-0.000127474747055871
0.00027058870143354
-0.000148693532019264
0.000320011968322908
-0.000175259867801052
0.000375897135876079
-0.000204107720376843
0.000436193028608389
-0.000223639883492099
0.000493547158083771
-0.00020404969481968
0.000530883254871605
-8.58297445288725e-05
0.000537914821172989
5.94094185712556e-05
0.000514239560369784
0.000173385078938233
0.00046725972277133
0.000225986756381035
0.000414714298109834
0.000205490031066362
8.44434380178054e-05
0.000445770159175314
3.90796088723312e-05
0.000439739482482446
-9.36882079090509e-06
0.000417614090018867
0.000113080626429645
0.000353806794064098
0.000304399067821818
0.000231457861643961
0.000469791972937346
8.23905162423989e-05
0.000455323254140887
-2.47824997221026e-05
0.000263466909199611
-6.46478964007551e-05
7.03131556881788e-05
-6.94461605031897e-05
-6.96906953565595e-06
-6.59477922887589e-05
-2.11823980065214e-05
-6.13641823853914e-05
-2.06083891625285e-05
-5.6910611026606e-05
-1.80310474343007e-05
-5.28461757395686e-05
-1.55475574729695e-05
-4.93586754229215e-05
-1.30951879113427e-05
-4.67271319126093e-05
-9.92239289017876e-06
-4.52035483911951e-05
-6.00576652414647e-06
-4.47376579708109e-05
-2.54611293655921e-06
-4.53358357570482e-05
8.79939744248471e-07
-4.71168734681728e-05
4.73840972247903e-06
-5.01844889138583e-05
8.97862679462382e-06
-5.45968591852347e-05
1.35070067532996e-05
-6.02931690677204e-05
1.79527982559633e-05
-6.70342165707399e-05
2.16461861866688e-05
-7.44482430186511e-05
2.39801635570526e-05
-8.23059491620451e-05
2.557271952296e-05
-9.04010683279712e-05
2.64492691645265e-05
-9.84826813643855e-05
2.63439001360114e-05
-0.000106302698843893
2.51683404316882e-05
-0.000113672765060653
2.30298330144992e-05
-0.000120518500896621
2.02967771185997e-05
-0.000126926107172082
1.77548169757866e-05
-0.000133080602292517
1.60404607347867e-05
-0.000138939951817426
1.38679145417257e-05
-0.000144503245407464
1.13790440681371e-05
-0.00014998022731018
9.47683813048437e-06
-0.00015585300762166
9.29360305383449e-06
-0.00016297402733108
1.23775054911394e-05
-0.000172734515731103
2.08792867672768e-05
-0.0001871022657637
3.80672986226252e-05
-0.000207726994782223
6.87233568775626e-05
-0.000234163444536777
0.000110643930832225
-0.00025835497554513
0.000108805471746099
-0.000278233117265984
9.44618726939949e-05
-0.000294632917336295
8.15256989757321e-05
-0.00030821300688519
7.01534023156685e-05
-0.000319538797368057
6.03644767357197e-05
-0.000329026913108772
5.20037877585827e-05
-0.000337002378458032
4.48700829295441e-05
-0.000343712957383058
3.87640189342343e-05
-0.000349353862252686
3.35095986261242e-05
-0.000354080393647576
2.89608251726238e-05
-0.000358019222669269
2.50005179204125e-05
-0.000361275704293709
2.15365767284049e-05
-0.000363939580777889
1.84981067655832e-05
-0.000366089104805888
1.58315626858059e-05
-0.00036779416824688
1.34976686697473e-05
-0.000369118613824978
1.14686002565755e-05
-0.000370121895574546
9.72560884702954e-06
-0.000370860174519343
8.25675821674581e-06
-0.000371386900479328
7.05479432804545e-06
-0.000371752920029295
6.11503245428796e-06
-0.000372006159010714
5.43346824114844e-06
-0.000372190905368592
5.00505806377449e-06
-0.000372346667615362
4.82195529533859e-06
-0.000372506543340075
4.8714442713309e-06
-0.000372695003802206
5.13334774755936e-06
-0.000372924989925082
5.57669338146798e-06
-0.000373194192621022
6.15533450392296e-06
-0.000373480377567959
6.8020778224596e-06
-0.00037373559005444
7.42054248449472e-06
-0.000373879017805447
7.87381125658858e-06
-0.000373788433600492
7.96757265401362e-06
-0.000373290238134931
7.4213858047938e-06
-0.000372147595460843
5.8290764788138e-06
-0.000370049222673717
2.60716969014109e-06
-0.000366616131145741
-3.16465686941281e-06
-0.00036140058186433
-1.30505994306813e-05
-0.000353862041912084
-2.89634166851378e-05
-0.000343620563592507
-5.43827444221562e-05
-0.000331903800562113
-8.28503256039928e-05
-0.000322120235817311
-6.05681253616403e-05
-0.000313646071987494
-4.17055161604145e-05
-0.000305489300124754
-3.3834792433438e-05
-0.000297007430094032
-3.12249104484397e-05