/*--------------------------------*- C++ -*----------------------------------*\
  =========                 |
  \\      /  F ield         | OpenFOAM: The Open Source CFD Toolbox
   \\    /   O peration     | Website:  https://openfoam.org
    \\  /    A nd           | Version:  7
     \\/     M anipulation  |
\*---------------------------------------------------------------------------*/
FoamFile
{
    version     2.0;
    format      ascii;
    class       volSymmTensorField;
    location    "20000";
    object      tauij_B_bouss;
}
// * * * * * * * * * * * * * * * * * * * * * * * * * * * * * * * * * * * * * //

dimensions      [0 2 -2 0 0 0 0];

internalField   nonuniform List<symmTensor> 
15600
(
(2.90880665169937e-06 -2.35329841659975e-08 -2.06566829812939e-31 2.9090304668703e-06 1.01372226247907e-30 2.90895172289838e-06)
(3.09185316143461e-06 -2.7422364944615e-08 1.77093242577552e-28 3.09222818920156e-06 -1.40930480585744e-30 3.09197876563357e-06)
(2.48768988474566e-06 -2.20439946674305e-08 -1.29752625451652e-26 2.49088417969066e-06 2.57499198697779e-27 2.48930177352696e-06)
(1.69120766551733e-06 -1.07029761986488e-08 -1.37230804085242e-26 1.69525206240404e-06 -6.87957714793726e-28 1.69322053337719e-06)
(9.33444655271991e-07 -2.21625696784022e-09 -2.07084157288903e-28 9.34909034782608e-07 -1.182555074256e-29 9.34159103740871e-07)
(4.23290329212772e-07 2.71806411823174e-10 8.68507451065752e-28 4.22756589200667e-07 1.17819391595001e-26 4.23009051768466e-07)
(1.59793586220906e-07 2.31604256356031e-10 7.37416883628407e-28 1.59228283625164e-07 7.06515295745489e-27 1.59506707820256e-07)
(8.92800450482816e-08 1.02319376451292e-10 7.90775268819842e-28 8.89268562869323e-08 2.32452089003852e-27 8.91017596157053e-08)
(7.32062702212495e-08 5.6657798175771e-11 2.73847584504646e-28 7.29378910838484e-08 4.72610830441559e-30 7.30709718597331e-08)
(5.31157239895874e-08 2.80309099928137e-11 4.79037472111791e-27 5.2940175782215e-08 7.21553399433266e-27 5.3027230875508e-08)
(3.33465654634008e-08 1.22199514082283e-11 -1.93078537121298e-28 3.32489977282623e-08 1.5752387061927e-28 3.3297431077275e-08)
(2.11566168152204e-08 5.67898103911818e-12 -1.25424524620126e-27 2.11012981330037e-08 -1.59160719521087e-27 2.11287740625617e-08)
(1.46038156655266e-08 3.07330124964629e-12 -7.28631317328908e-28 1.45695549238881e-08 -7.48305393251586e-28 1.45865834054245e-08)
(1.08187096285512e-08 1.94969955293731e-12 3.36826981405984e-28 1.07958040947888e-08 3.20181208229497e-28 1.08071956720092e-08)
(8.55411327502297e-09 1.44895533915413e-12 4.65651801710309e-28 8.53764472161369e-09 4.89579528664801e-28 8.54584247781924e-09)
(7.31843466868506e-09 1.25465087546961e-12 -4.27226133381535e-28 7.30530912553308e-09 -4.65067829226427e-28 7.31185004286791e-09)
(6.85947438774239e-09 1.21258513500331e-12 1.07312867412862e-27 6.84771116160552e-09 1.23185692390339e-27 6.85357847583475e-09)
(6.93585183173673e-09 1.27427746530507e-12 -6.60054298178428e-29 6.92421728270779e-09 2.48951261952228e-30 6.93002624932477e-09)
(7.47688057767819e-09 1.44978335409726e-12 6.60457038526575e-28 7.46424450403728e-09 9.41299867943086e-28 7.47055947791346e-09)
(8.44833072486247e-09 1.76502823633471e-12 2.85168396898606e-28 8.43347715330086e-09 3.67691558030804e-28 8.44090625423479e-09)
(9.91666046927773e-09 2.28287692185708e-12 2.5942834813406e-28 9.89793759210846e-09 -1.2642047662101e-29 9.90730745669684e-09)
(1.19893477371555e-08 3.1054200379383e-12 -5.71770119711601e-28 1.19643583669958e-08 -6.13350459599882e-28 1.19768677426469e-08)
(1.47912256010977e-08 4.37473760362883e-12 -1.54967189408835e-27 1.47565512069492e-08 -1.56522999048928e-27 1.47739088017047e-08)
(1.84251499521663e-08 6.25415480839873e-12 6.15280842538246e-28 1.83764270766495e-08 -2.59694839441156e-29 1.8400809041092e-08)
(2.29769602558694e-08 9.09865856976053e-12 -3.52226356356695e-27 2.29088622315136e-08 -5.53279328252774e-27 2.29429301403797e-08)
(2.86086675465697e-08 1.34787298911874e-11 6.36158225732925e-27 2.85144457399585e-08 9.24824319716409e-27 2.85615674222933e-08)
(3.54502858164629e-08 2.01200851630854e-11 5.30404416527319e-27 3.53222042982789e-08 7.2172842132126e-27 3.53862410411872e-08)
(4.35543509040855e-08 2.99269022935976e-11 3.67249077319348e-27 4.33846160041815e-08 6.70637956702668e-27 4.34694592350744e-08)
(5.28770067621878e-08 4.3899652148664e-11 -7.21006751273484e-27 5.26593408149357e-08 -8.70046739262466e-27 5.27681324609587e-08)
(6.32553934853805e-08 6.29241789550379e-11 1.68307992080191e-27 6.29871818978868e-08 -6.18340321839359e-29 6.31212478825759e-08)
(7.44410652498172e-08 8.75999600963247e-11 -3.97316364842437e-29 7.41248960789928e-08 -5.66521253406749e-29 7.42829793691131e-08)
(8.62649833953305e-08 1.18549224579481e-10 1.15944341352582e-26 8.59071660439957e-08 2.71262641808913e-26 8.6086198836114e-08)
(9.86160344720083e-08 1.54931035088031e-10 3.54059914840315e-27 9.82266876445095e-08 1.04086537820264e-26 9.84216214774032e-08)
(1.10879041300607e-07 1.93684640699362e-10 -1.3425337532429e-26 1.10476187645305e-07 -4.12114155551895e-26 1.10678059972582e-07)
(1.22365678108166e-07 2.31126834713142e-10 5.01069335029631e-27 1.21972291541426e-07 -5.06354210467344e-28 1.22169636154419e-07)
(1.32069573981181e-07 2.62843477580708e-10 -7.14635384053105e-27 1.31710378478594e-07 -1.64966038284169e-26 1.31890826946029e-07)
(1.39445835194003e-07 2.86868753656393e-10 -2.29282366614083e-26 1.39140345586705e-07 -5.28037970347821e-26 1.39294073498449e-07)
(1.45218733495704e-07 3.07827908402226e-10 -6.86442090746346e-25 1.44975732195259e-07 1.38653718084759e-26 1.45098335707204e-07)
(1.52371373445275e-07 3.36792433304866e-10 -6.31466769816995e-25 1.52192691482166e-07 2.3073625962265e-24 1.52283324669212e-07)
(1.64814714810774e-07 3.9211041227249e-10 7.43079204625897e-25 1.64693194147688e-07 2.14898433880872e-24 1.64753920858659e-07)
(1.92040652833153e-07 5.95896271068134e-10 9.54151454111006e-25 1.91958859767207e-07 -4.84664543545182e-26 1.92002755930939e-07)
(2.48844836202812e-07 1.05337258556978e-09 -1.87888390311142e-28 2.4876173563938e-07 -2.15453483116694e-28 2.48804617313052e-07)
(3.13671910310115e-07 1.62957458433032e-09 2.92645721942922e-29 3.13575015891741e-07 -1.26266456913253e-30 3.13626301603462e-07)
(3.82321762332922e-07 2.33543391898514e-09 -2.36973321034044e-29 3.82211990098032e-07 2.57041029804593e-28 3.82269704835476e-07)
(4.53291969251845e-07 3.13851876023715e-09 -5.63074770105415e-29 4.53173093368053e-07 -3.00048100610179e-28 4.53235994187472e-07)
(5.25710243609463e-07 4.02659958117935e-09 2.92448058003513e-24 5.2558542077832e-07 -1.03914030138703e-25 5.25651518889438e-07)
(5.98448129693719e-07 4.974803043605e-09 6.22676387726981e-24 5.98320246567137e-07 -6.82921026486366e-24 5.98388215686014e-07)
(6.70939904885088e-07 5.96781850553794e-09 -3.08275527340786e-25 6.70811201423324e-07 -6.62411228985157e-24 6.70879773774944e-07)
(7.42602348775023e-07 6.98880220021745e-09 -4.20162337594832e-24 7.42474640545846e-07 1.27713150925746e-25 7.42542890599954e-07)
(8.13090758771686e-07 8.02539810547373e-09 7.86879519877607e-29 8.12965462511308e-07 3.50708229920812e-28 8.13032597635811e-07)
(8.82075583866442e-07 9.06596571489674e-09 -2.02248806893914e-29 8.81953840683118e-07 -6.72580682732361e-29 8.82019234200205e-07)
(9.49319558268777e-07 1.01010765809807e-08 5.4672832069166e-24 9.49202286600706e-07 -1.11764077032843e-25 9.49265405289845e-07)
(1.01460085121526e-06 1.11222343252905e-08 1.20871242375548e-23 1.01448880143583e-06 -9.91808022025006e-24 1.01454920072375e-06)
(1.07773791943704e-06 1.21222476040527e-08 4.77237169011101e-25 1.07763169754625e-06 -9.77160547209204e-24 1.07768899992669e-06)
(1.138568826719e-06 1.30948682981279e-08 -6.69997764223553e-24 1.13846890701115e-06 1.02028498843312e-25 1.13852280164121e-06)
(1.19696470387401e-06 1.40349773667765e-08 1.634572885303e-29 1.19687142514089e-06 -1.65943854982577e-31 1.19692166859866e-06)
(1.25283215031007e-06 1.49386187987479e-08 -7.46911722402982e-30 1.25274570271079e-06 1.22742730777127e-28 1.25279212792626e-06)
(1.30612781790971e-06 1.58032343805933e-08 -2.78693072410982e-29 1.30604822128955e-06 -2.85343963889804e-28 1.30609074926978e-06)
(1.3568715066742e-06 1.66278880667266e-08 1.85119537733188e-29 1.35679858473662e-06 1.63357405503083e-28 1.35683723905681e-06)
(1.40516349086113e-06 1.74135568377252e-08 -0 1.40509684446397e-06 -0 1.40513176582337e-06)
(1.45120125278075e-06 1.81634070995931e-08 -1.83597565070974e-43 1.45114023698654e-06 9.24916254932446e-29 1.45117169563954e-06)
(1.49529602188821e-06 1.88830567149288e-08 1.91778585216184e-43 1.49523972806814e-06 -9.51034300634229e-29 1.49526813317736e-06)
(1.5378875648177e-06 1.95808033964444e-08 -0 1.53783480670755e-06 -0 1.53786071319908e-06)
(1.57955764165145e-06 2.02678329055609e-08 -0 1.57950694338674e-06 -0 1.57953105725197e-06)
(1.6210422298749e-06 2.0958417253234e-08 -0 1.62099181458e-06 -0 1.62101499732404e-06)
(1.66324409760736e-06 2.16701326177271e-08 -0 1.66319187589872e-06 -9.29584662475008e-28 1.6632151483587e-06)
(1.70724774059238e-06 2.24241318355416e-08 1.8898152967665e-42 1.70719129954349e-06 9.52039252875675e-28 1.70721584478645e-06)
(1.75433907378906e-06 2.32455062969659e-08 -1.21242048849852e-28 1.75427567038103e-06 -2.461728461671e-30 1.75430283379321e-06)
(1.80603307828639e-06 2.41637699401088e-08 1.8890811701462e-28 1.80595964478307e-06 1.75070595881513e-28 1.80599092689963e-06)
(1.86411141210362e-06 2.52134763033328e-08 1.2858149873365e-28 1.86402458366679e-06 -3.48105731549129e-28 1.86406161886319e-06)
(1.93067279975153e-06 2.64349375839208e-08 -3.37554132943993e-28 1.93056902258515e-06 1.71915017134871e-28 1.93061352409173e-06)
(2.0082020169149e-06 2.78747581010224e-08 -1.70674703711843e-23 2.00807788091359e-06 -5.17326855444175e-25 2.00813147958243e-06)
(2.09964941211788e-06 2.95857451399765e-08 -5.25559686923467e-23 2.09950214389888e-06 1.99836243606105e-23 2.09956605281134e-06)
(2.20852000206041e-06 3.16266250130115e-08 -3.53940956122924e-23 2.20834848453525e-06 4.71023020055827e-23 2.20842299464565e-06)
(2.33908658659482e-06 3.40569995391481e-08 2.16514376107021e-23 2.33889667552697e-06 2.80966105024248e-23 2.33897935444121e-06)
(2.49672750595718e-06 3.69148294133316e-08 2.18537757642487e-23 2.49653874317596e-06 8.25917227277118e-25 2.49661961471322e-06)
(2.68864413487277e-06 4.02273683558062e-08 -2.9018479656376e-29 2.68848008205876e-06 6.15755820453896e-27 2.68853967349154e-06)
(2.93434799033084e-06 4.41514529710088e-08 -9.24180892040756e-28 2.93431967736273e-06 -6.92247904481306e-27 2.93431730727729e-06)
(3.25607544230239e-06 4.80437614816384e-08 -3.26204460143099e-23 3.25677812906884e-06 -1.57381280708196e-24 3.25645599195635e-06)
(3.47973279033362e-06 4.71871850813667e-08 -6.16449389649752e-23 3.48346484415934e-06 3.39365299041256e-23 3.48151107064359e-06)
(2.97704962805653e-06 3.5810547608286e-08 7.46433939979016e-24 2.9877059139132e-06 4.42006735418019e-23 2.98244854898557e-06)
(2.69854580739387e-06 2.99242155196613e-08 2.71072623127469e-23 2.71468161069562e-06 1.89375211939969e-24 2.706685583716e-06)
(2.60577752393718e-06 2.67312317199667e-08 -1.3805863303132e-25 2.62712212025287e-06 1.03691565617773e-24 2.61653693129852e-06)
(2.60204961872533e-06 2.4649460658701e-08 -3.18924885078687e-27 2.62855326734031e-06 -1.85701571407842e-25 2.61539903793709e-06)
(2.65133153203638e-06 2.29961299606907e-08 -3.21609877487253e-25 2.68294984194923e-06 1.18616112873503e-24 2.66725132876597e-06)
(2.73443340144058e-06 2.14655581389966e-08 2.62771851802339e-26 2.77102491083814e-06 -4.01962961857787e-25 2.75285468612729e-06)
(2.83962745784673e-06 1.98939104440332e-08 -2.96652877500302e-25 2.88088655168075e-06 3.46023189132655e-25 2.86040056117833e-06)
(2.95892225883144e-06 1.82071570450956e-08 -7.40878656399862e-25 3.00435692583691e-06 1.52441451713863e-24 2.98180268211832e-06)
(3.08495357937986e-06 1.64031460744409e-08 3.6569590848421e-25 3.13390952753227e-06 -1.51486915825141e-24 3.10961437914115e-06)
(3.22504853922832e-06 1.46502605401743e-08 -1.44081614667712e-25 3.277059513831e-06 3.56080584056828e-25 3.25126495133343e-06)
(3.4184006506063e-06 1.32574527161082e-08 2.15497483268981e-25 3.47358677621299e-06 1.78938305478808e-26 3.44623692240207e-06)
(3.65785536702898e-06 1.20959850059356e-08 2.18956117520828e-25 3.7159595840413e-06 1.08001038879269e-26 3.6871876308826e-06)
(3.92566785307097e-06 1.10477648094767e-08 6.74573500992841e-25 3.98591161202231e-06 -3.69485343667051e-25 3.95610718612936e-06)
(4.2090106965544e-06 1.00632354690524e-08 1.50061735924481e-24 4.27020576598969e-06 -2.45484521092743e-24 4.23995966045507e-06)
(4.49904279116311e-06 9.12113122153564e-09 -7.45237277882929e-25 4.55969763590032e-06 4.2779751036152e-25 4.52974781075594e-06)
(4.78552694163041e-06 8.20106916031729e-09 5.42443778053164e-28 4.84389289976134e-06 6.45092011739092e-28 4.8151040498139e-06)
(5.05870793627079e-06 7.26539384289546e-09 -9.45149501106366e-23 5.11282649524138e-06 -6.54166159415238e-24 5.08616151615631e-06)
(5.27716123111803e-06 6.19094648290753e-09 -3.18537524169008e-22 5.32468699959152e-06 2.12174466189964e-22 5.30129781826053e-06)
(5.39708003034725e-06 4.85176529648798e-09 -1.47873247416168e-22 5.43582107064354e-06 2.58704108689539e-22 5.41678591912081e-06)
(5.43086671554397e-06 3.38995200645228e-09 8.82474657034821e-23 5.45961469499394e-06 5.00490099690614e-24 5.44552475591392e-06)
(5.40247340061421e-06 1.95297169046281e-09 -2.14576658452804e-25 5.42086017624093e-06 -1.18869829305203e-26 5.41189489827548e-06)
(5.33555742074253e-06 6.32345990150272e-10 -9.97302325386722e-25 5.34371986001469e-06 1.48578339592442e-24 5.33980737916148e-06)
(5.2518294575613e-06 -5.13647444376361e-10 1.33485422109148e-25 5.25019792476808e-06 -6.27248214473615e-25 5.25112532727537e-06)
(5.19109946315068e-06 -1.49116907192146e-09 8.86869309188392e-25 5.17996920821313e-06 -1.27811982933007e-24 5.18558555454187e-06)
(5.16938567154333e-06 -2.3093378395132e-09 1.49303742329456e-25 5.14880546906061e-06 3.70333105988502e-27 5.15908911639401e-06)
(5.29035652906131e-06 -3.12423937157785e-09 -2.67166108366012e-28 5.25898924461739e-06 2.5756289448334e-28 5.27459042021298e-06)
(5.5721044261383e-06 -4.2874881536509e-09 -1.14796267940908e-24 5.52673723614424e-06 1.47816406430212e-24 5.54923410420379e-06)
(6.00376446992604e-06 -6.27262864273226e-09 2.14526067460164e-25 5.93972491664142e-06 -5.08898735626814e-25 5.9714166959885e-06)
(6.62600661912848e-06 -9.89012814336009e-09 -1.14567946731414e-24 6.53622831001341e-06 1.59113754212287e-24 6.58058919928197e-06)
(7.49637852949246e-06 -1.67108839783217e-08 1.25382789597728e-24 7.36992632339082e-06 -1.46007991293969e-24 7.43233225700784e-06)
(8.70406774061802e-06 -2.98884016377163e-08 -1.93465212097879e-24 8.52431891974082e-06 2.60297148031897e-24 8.61294397735822e-06)
(1.03086372895589e-05 -5.58385945497711e-08 8.4806464393921e-25 1.0052446680696e-05 -1.44991615738856e-24 1.0178645147245e-05)
(1.20151548867488e-05 -1.02673871384809e-07 9.58394605627572e-26 1.16700897047418e-05 -2.19341699987372e-27 1.1840023548549e-05)
(1.28969001711071e-05 -1.6944397630787e-07 -1.03843796675763e-24 1.25013771482091e-05 -8.16513085178886e-25 1.26960672558121e-05)
(1.0565361195894e-05 -1.87955525375072e-07 -6.31641851563586e-25 1.02835310902479e-05 -1.8187214004499e-25 1.0422657138497e-05)
(8.18383433717966e-06 -1.57308819986933e-07 1.07367039041088e-26 8.04102520398375e-06 -2.28393171431023e-26 8.11167080702921e-06)
(6.01316976762871e-06 -1.02463346508426e-07 -1.1195520046172e-26 5.96214653558632e-06 6.21898602580277e-26 5.98745036423013e-06)
(4.37639131649229e-06 -5.87923589730647e-08 -4.06121593528835e-27 4.36367677068341e-06 2.03947814353908e-26 4.36995917104615e-06)
(3.28213464958284e-06 -3.17178965708802e-08 -1.07123768645885e-27 3.28069593736152e-06 3.37057684905049e-29 3.28145577247057e-06)
(2.98576178903372e-06 -2.41694247814411e-08 3.67263235717719e-30 2.98563858968687e-06 3.04164032323076e-30 2.98564358135617e-06)
(9.3815167058237e-05 -4.95956747331721e-06 -2.13353718642597e-27 9.38632281459368e-05 1.4006063327091e-29 9.38489625220851e-05)
(9.91625525310866e-05 -5.37876175443813e-06 5.99546319008619e-27 9.92717814183669e-05 -3.27155993323439e-28 9.9206319206701e-05)
(8.01590785758629e-05 -4.26203752966082e-06 -2.8235407436636e-24 8.06371689975392e-05 -7.71264631010776e-25 8.04036111223455e-05)
(5.44886672788189e-05 -2.37920534135196e-06 2.33449036563866e-24 5.51452789790261e-05 -1.26179487193448e-24 5.48187946425556e-05)
(3.02676664904792e-05 -7.44358390504726e-07 4.59827417365367e-25 3.061835939126e-05 1.19274564736136e-26 3.04462933677012e-05)
(1.39634300709968e-05 -6.82660871932628e-08 -5.12495450622065e-25 1.39557077792912e-05 -4.29251302591714e-24 1.39613620745688e-05)
(5.37047587885686e-06 2.44273597172108e-08 2.23941841853371e-24 5.29258276974324e-06 2.39657102676181e-24 5.33230763263397e-06)
(2.96413129175125e-06 1.55996772959021e-08 4.38492877611208e-25 2.90837843087792e-06 6.80090235110145e-25 2.93658059530479e-06)
(2.41395248604771e-06 9.42155099976674e-09 1.09470457820818e-25 2.3699549201309e-06 1.48726253705028e-27 2.39217000516406e-06)
(1.7659833066351e-06 4.89863937626826e-09 -2.58985187420075e-25 1.73622704845947e-06 -7.69546799710933e-25 1.75122550129377e-06)
(1.11739320217146e-06 2.23457034420828e-09 1.70722134505505e-25 1.10034419543228e-06 4.65387884576902e-25 1.10893221408706e-06)
(7.09096536354891e-07 1.06915104838656e-09 -2.93201185376664e-26 6.99266484135487e-07 6.27867299161146e-27 7.04213837359234e-07)
(4.87631466316902e-07 5.92470428747724e-10 3.53109929209408e-25 4.81483054402173e-07 3.5682177576829e-25 4.84575659765665e-07)
(3.59892602897491e-07 3.83129132919102e-10 1.10513948105664e-25 3.55744896328145e-07 1.12272808103982e-25 3.57829409806411e-07)
(2.83369282855566e-07 2.87395110816233e-10 -2.18933514285102e-25 2.80356532863914e-07 -2.49490164579187e-25 2.81869121417985e-07)
(2.41127789980517e-07 2.47334193536599e-10 3.19230587334217e-25 2.38706880284704e-07 3.70823040194335e-25 2.399212720317e-07)
(2.24724752641116e-07 2.3711522581173e-10 -6.30767436760675e-26 2.22539831836554e-07 -9.47349365355399e-26 2.23634716956575e-07)
(2.26159916318892e-07 2.47633717714361e-10 1.72548031628149e-27 2.23980190677988e-07 -2.44743820268786e-28 2.25071433398485e-07)
(2.42895805849959e-07 2.79179430431407e-10 -2.42582418981101e-25 2.40508077395833e-07 -3.58637970494609e-25 2.41702408089344e-07)
(2.73666814374811e-07 3.35840939024868e-10 -6.71819661844784e-26 2.70839916505911e-07 -7.22792928625328e-26 2.72252872762782e-07)
(3.20527625700945e-07 4.27925870480135e-10 1.31771195930252e-25 3.16949263490919e-07 2.70807238283219e-25 3.18736925915653e-07)
(3.86945592175097e-07 5.72477595543999e-10 6.78343905912414e-26 3.82168567453991e-07 1.0899761994017e-25 3.84554467282288e-07)
(4.77041985108326e-07 7.94315320680939e-10 6.18692922902626e-25 4.70441341195053e-07 7.4825326567933e-25 4.7373867558112e-07)
(5.94338421279733e-07 1.12589006738507e-09 -1.79455214854811e-25 5.85116813994922e-07 1.08529869075378e-26 5.89724373922394e-07)
(7.41694315414717e-07 1.63320244833177e-09 1.83000949509869e-25 7.28874237654823e-07 2.40140343991372e-25 7.35281958871892e-07)
(9.24428131302212e-07 2.42027871302874e-09 -6.94847793794651e-25 9.06781755371179e-07 -1.74111465677371e-24 9.15604746571385e-07)
(1.14699395381508e-06 3.62776689792305e-09 -1.0286320443879e-24 1.12310909901336e-06 -1.3383661041566e-24 1.135055140544e-06)
(1.41138529464174e-06 5.43719990733343e-09 -1.12376302301471e-24 1.37981709664454e-06 -1.19566886927101e-24 1.39561006385108e-06)
(1.71642305714932e-06 8.06337690448865e-09 2.61740592278273e-24 1.67594594170552e-06 3.90907546164781e-24 1.69619926389487e-06)
(2.05694353935969e-06 1.17251538965819e-08 -5.20103792715349e-27 2.00687829797177e-06 -8.20944345228887e-27 2.03192887479595e-06)
(2.42463509387515e-06 1.6612582809297e-08 6.50616621403945e-25 2.36506949325514e-06 -3.14728730388874e-26 2.39486230590795e-06)
(2.81324869286584e-06 2.28935510149605e-08 -3.96244876924368e-24 2.74496188239602e-06 -9.84863992768411e-24 2.77910809427744e-06)
(3.21865676548368e-06 3.05234120993918e-08 4.81807237682346e-25 3.14321583031135e-06 4.60150729479676e-24 3.18092061321701e-06)
(3.61929440784877e-06 3.91088959488817e-08 1.37498079607879e-24 3.53971589977574e-06 7.41020914660548e-24 3.57946721775126e-06)
(3.99381941246818e-06 4.80920831665987e-08 -5.2867687568655e-26 3.91412392436885e-06 3.55633344217368e-26 3.95390728525026e-06)
(4.30952063101025e-06 5.66875879361248e-08 -2.09366307699718e-24 4.23430892810187e-06 -2.46532358684961e-24 4.27182559188363e-06)
(4.5489314990707e-06 6.44370493962549e-08 5.24531046542867e-24 4.48216105103249e-06 1.51856460184051e-23 4.51543261744811e-06)
(4.73642811265586e-06 7.1994930157835e-08 1.97913203392127e-22 4.68041840118677e-06 -3.19067327735839e-25 4.70832105476945e-06)
(4.96998084404784e-06 8.18844750355359e-08 3.69112882798453e-22 4.92511610468062e-06 9.9977664453472e-22 4.94751600449777e-06)
(5.37248802107777e-06 9.98647173973015e-08 -1.14823900418169e-22 5.33489749062651e-06 1.14867418440952e-21 5.35328116573597e-06)
(6.24953212861388e-06 1.41671943939411e-07 -2.58681419912534e-22 6.21512851097387e-06 1.29652514800329e-23 6.23253323379324e-06)
(8.08337356856706e-06 2.26599805770101e-07 3.54229528705598e-26 8.04265021196899e-06 -4.09411450676028e-26 8.06258699220908e-06)
(1.01794723968753e-05 3.32627188330925e-07 7.79223591682613e-27 1.01331284378628e-05 -4.65041113034846e-26 1.01560817478135e-05)
(1.24006916054439e-05 4.56966646280347e-07 2.00415980180646e-40 1.23493581349718e-05 7.90432042558467e-27 1.23746005580347e-05)
(1.46952396149749e-05 5.94786661239916e-07 -1.45789936821873e-41 1.46408881896872e-05 1.19487674926178e-25 1.46676140434462e-05)
(1.70356039179981e-05 7.43506641715814e-07 -7.38815257035826e-22 1.69795579035966e-05 2.61789965198281e-23 1.70070241983757e-05)
(1.9385215645948e-05 8.99410777281456e-07 -1.3596486418222e-21 1.93287456688042e-05 -4.55076255230549e-21 1.9356371700704e-05)
(2.17261378119301e-05 1.06011812110325e-06 3.20422254857682e-22 2.16701342717026e-05 -5.24601032491523e-21 2.16974657158521e-05)
(2.40395996818278e-05 1.2232049519361e-06 1.0337259410503e-21 2.39847821856918e-05 -3.14371818430564e-23 2.40114836549857e-05)
(2.63146352930878e-05 1.38690855078103e-06 1.17586092762286e-27 2.62615236085689e-05 2.55851978817583e-27 2.62873447920782e-05)
(2.85406800305754e-05 1.54961096324053e-06 -3.30019454507159e-26 2.84896741701396e-05 -5.91795996713031e-26 2.85144326299907e-05)
(3.07101690733874e-05 1.71002488472504e-06 -1.33071815122511e-21 3.06615617526635e-05 2.70776047146218e-23 3.0685125355427e-05)
(3.2816007512497e-05 1.86701009143879e-06 -2.56180991655719e-21 3.27700134115353e-05 -8.00072048804534e-21 3.27922907498944e-05)
(3.48524040807928e-05 2.01962443351415e-06 2.90390916492848e-22 3.48091672203897e-05 -8.73336637464003e-21 3.48301012053754e-05)
(3.68141913690131e-05 2.16707117971903e-06 1.60855465429571e-21 3.67737917911562e-05 -2.44953678131264e-23 3.67933572402531e-05)
(3.86972689810433e-05 2.30872631041905e-06 -0 3.86597208049395e-05 -0 3.86779246278825e-05)
(4.04986773849107e-05 2.44414226474743e-06 -4.16547902721558e-27 4.04639242843255e-05 -2.24655060031552e-26 4.04808077497213e-05)
(4.22170698214829e-05 2.57308030203092e-06 -8.74653822417472e-28 4.21849771038264e-05 4.69352073156967e-26 4.22006194620687e-05)
(4.3853132370183e-05 2.6955393755564e-06 9.91949941222498e-27 4.38234782599195e-05 -2.43435815911886e-26 4.3838000966416e-05)
(4.5410141260727e-05 2.81179337136491e-06 -2.19420723202547e-27 4.53826084577287e-05 1.18257590919182e-29 4.53961792669642e-05)
(4.68944998583913e-05 2.92242490262455e-06 4.4023780620811e-28 4.68686690573468e-05 6.10032758772069e-28 4.68815052467641e-05)
(4.83162696432059e-05 3.02835618983508e-06 -5.69481833405777e-27 4.82916152584191e-05 -6.40534291804847e-28 4.83039858502891e-05)
(4.96896447657823e-05 3.13087375844753e-06 2.69235710013997e-27 4.96655324754369e-05 -6.27750314724133e-26 4.96777596906175e-05)
(5.10333836934623e-05 3.23164822855245e-06 -0 5.10090692612429e-05 6.4256038189672e-26 5.10215294904912e-05)
(5.2371200453452e-05 3.33274950562371e-06 -2.49347468514304e-26 5.23458296862955e-05 -3.16425781079795e-28 5.23589540748303e-05)
(5.37321658114519e-05 3.43666036067802e-06 -2.85576331597266e-27 5.37047760681271e-05 -5.81067213589263e-27 5.37190505282591e-05)
(5.51511823070891e-05 3.54629135500151e-06 5.53786088447869e-26 5.51207069356046e-05 -1.42101377119618e-25 5.5136670963696e-05)
(5.66696085791487e-05 3.66499922506118e-06 1.51770317906338e-27 5.66348874252814e-05 1.52352073077501e-25 5.66531302720798e-05)
(5.83361347143707e-05 3.79661002707743e-06 -2.72896925824258e-26 5.82959365070216e-05 7.41274774526153e-27 5.83170877370332e-05)
(6.02079691015604e-05 3.94543989851164e-06 -6.52419185027524e-26 6.01610378923114e-05 -1.89580092465639e-25 6.01857462464764e-05)
(6.23524155375864e-05 4.11629496209389e-06 1.62825636101183e-25 6.22975708192317e-05 1.89481568313571e-25 6.23264592032126e-05)
(6.48490288453225e-05 4.31443258639473e-06 3.9167564268539e-21 6.47853674209971e-05 1.19304541756916e-22 6.48189382999941e-05)
(6.77920882949581e-05 4.54541590784374e-06 1.13215231936184e-20 6.77193570186113e-05 2.46804520560272e-20 6.77577947207581e-05)
(7.12931282392751e-05 4.81460143682641e-06 6.56323051457277e-21 7.12125796883e-05 5.2118311103738e-20 7.12553551082158e-05)
(7.54871476042194e-05 5.12625363169274e-06 -5.84942489425844e-21 7.54035182375195e-05 2.76656046602276e-20 7.54485745238201e-05)
(8.05436837117109e-05 5.48298369215733e-06 -5.0789831794828e-21 8.0468021207277e-05 -1.92363517212702e-22 8.05098298977894e-05)
(8.66837411024826e-05 5.88193884330544e-06 9.5709651913969e-26 8.66407489962897e-05 -1.11422270808706e-24 8.66657514832023e-05)
(9.45063240648075e-05 6.31672075483533e-06 -1.14773590607254e-25 9.45697473438139e-05 6.71896441735778e-25 9.45466172336993e-05)
(0.000103892958312349 6.71974021193557e-06 7.33420504272604e-21 0.000104245314026974 3.52939379814634e-22 0.000104088707348123)
(0.000108809820331525 6.74578829126589e-06 1.24368473483793e-20 0.000109779975028432 4.75592462320716e-20 0.000109275600245136)
(9.38622349396908e-05 5.49696178520402e-06 -5.79659849451183e-21 9.57874050892425e-05 4.09215683691131e-20 9.48206599624788e-05)
(8.54941103842446e-05 4.73368401764617e-06 -6.38767418836386e-21 8.82041436470439e-05 -4.23740640708844e-22 8.68368610211303e-05)
(8.25862663868534e-05 4.29308797880725e-06 5.21884276760703e-23 8.61192297355277e-05 -3.00181378573808e-22 8.43386867875262e-05)
(8.23820389577768e-05 3.97737979824348e-06 1.84072237582861e-23 8.67378079890347e-05 -5.06244614139087e-24 8.45432790644495e-05)
(8.38117047312335e-05 3.70341796857566e-06 2.0691443824433e-24 8.89759688282357e-05 1.76489103737845e-23 8.63747344476731e-05)
(8.63001004737985e-05 3.43267429551772e-06 7.01805638333386e-23 9.22314485369139e-05 -3.22670114746345e-22 8.92437491430398e-05)
(8.94962019405086e-05 3.1465223063069e-06 -4.96505151593572e-23 9.61236428848763e-05 3.14691721465102e-22 9.27846576838557e-05)
(9.3161826281499e-05 2.84020182914775e-06 7.94750901162091e-23 0.000100385897427475 -2.84466014794016e-22 9.67447869560681e-05)
(9.71178977398872e-05 2.51872253686905e-06 -2.49464377549751e-22 0.000104816188670519 5.73029840959781e-22 0.000100933766521682)
(0.000101661996699564 2.20372017543943e-06 -1.43093818442772e-22 0.000109730246633189 2.94436932639448e-22 0.000105659076977133)
(0.000107896366253364 1.93507935788662e-06 -5.56866843348275e-23 0.000116309609084622 -3.55991015258352e-24 0.000112060144022456)
(0.000115553604982812 1.69799011673465e-06 1.44418374308965e-22 0.000124243040568983 -3.05030862298794e-22 0.000119849164553448)
(0.000124103751071457 1.47924945051208e-06 6.17579275043634e-23 0.000132933873233897 -3.10748979836867e-22 0.000128463432886169)
(0.000133172656017891 1.27384309208158e-06 -1.86165328503681e-22 0.000141958784228428 2.95408560143017e-22 0.000137504942650835)
(0.000142494765726771 1.07992418916082e-06 -8.17899779973733e-23 0.000151018609654155 3.27210116219073e-22 0.000146691883649716)
(0.000151756300160975 8.95030453908512e-07 2.0166488227981e-22 0.000159771786039753 -3.52958175514277e-22 0.000155697472462611)
(0.000160604822794698 7.15188162490984e-07 2.56107326144363e-20 0.000167848108919521 1.62487085677225e-21 0.000164160434312379)
(0.00016774908782065 5.30671548822116e-07 -6.8816506599922e-20 0.000173923831609373 1.3925691832183e-19 0.000170774462104902)
(0.000171907188867157 3.30888531078132e-07 -1.21249448447057e-19 0.000176747022076516 1.34352746228671e-19 0.000174272904524891)
(0.000173474190542909 1.30260547487299e-07 -2.44182211650262e-20 0.000176833256233746 -1.74744322267576e-21 0.000175109016287614)
(0.000173158379217001 -5.75572197385528e-08 5.87094271177202e-23 0.000174994572443651 2.41031747049834e-24 0.000174042271275679)
(0.000171654905543627 -2.24327440475874e-07 1.63562613886469e-22 0.000171989552169933 -2.7488717817788e-22 0.000171798331847349)
(0.000169656870918975 -3.65642367740966e-07 4.86863711081527e-22 0.000168546527708003 -6.02488251097201e-22 0.000169088409846512)
(0.000168406965038627 -4.84927551504086e-07 -1.45719006799127e-22 0.000165886357723476 2.36563681418487e-22 0.000167143393227732)
(0.000168500619928426 -5.85990627669143e-07 2.07131343986665e-26 0.000164565733581462 5.13792674489134e-28 0.00016654144909643)
(0.000173198693928846 -6.96282395148457e-07 2.55559433938353e-22 0.000167647328778576 -2.60906858917633e-22 0.000170443914747837)
(0.000183088028229219 -8.637436676909e-07 1.38928113113507e-22 0.000175474158304241 -2.64946931844191e-22 0.000179320696454925)
(0.000197930252879648 -1.15561829515163e-06 1.90047420074296e-22 0.000187608923936183 -1.84380270275688e-22 0.000192835747376398)
(0.000219081346810656 -1.68747624958024e-06 -3.38347591477179e-23 0.000205097717210688 -1.65980665272949e-23 0.000212192541562067)