/*--------------------------------*- C++ -*----------------------------------*\
  =========                 |
  \\      /  F ield         | OpenFOAM: The Open Source CFD Toolbox
   \\    /   O peration     | Website:  https://openfoam.org
    \\  /    A nd           | Version:  7
     \\/     M anipulation  |
\*---------------------------------------------------------------------------*/
FoamFile
{
    version     2.0;
    format      ascii;
    class       volVectorField;
    location    "20000";
    object      U;
}
// * * * * * * * * * * * * * * * * * * * * * * * * * * * * * * * * * * * * * //

dimensions      [0 1 -1 0 0 0 0];

internalField   nonuniform List<vector> 
15600
(
(0.0372820581864757 -2.20871960974486e-05 0)
(0.0424773255084006 -0.000138824824227575 0)
(0.0428043947000203 -0.00174599245948328 -1.57043091058197e-20)
(0.0284202017315348 -0.00324668431758237 -6.13854067642343e-20)
(0.00760909068655818 -0.0019758005658195 1.65172809009265e-22)
(-0.00809104288339843 0.00205361991833053 -3.86705941841947e-22)
(-0.0129926421740379 0.00553544832263479 1.96491755783523e-18)
(-0.0117829614368756 0.00646676868568129 1.06475655180217e-18)
(-0.00977247566121585 0.00624680049164313 0)
(-0.00818221591172737 0.00577779153256277 -1.42842281902859e-21)
(-0.00681249697177453 0.00516187340830015 -8.04206725591507e-22)
(-0.00578069164027499 0.00459097410749665 7.55657518358202e-22)
(-0.00495099418231325 0.00404707142224291 1.36217401929082e-18)
(-0.00428029435604855 0.00354385069400757 1.42836771322514e-18)
(-0.00373495833587186 0.00308945768772752 -1.50102640243812e-18)
(-0.00335048970541164 0.0027420014463669 1.57736506237972e-18)
(-0.00309303417749773 0.00250369564999899 -1.65120832192848e-18)
(-0.00292297848969893 0.00234529797378702 -1.68709513581763e-21)
(-0.00284926800243251 0.00226970434827005 -1.11005895008573e-23)
(-0.00287398646374218 0.0022754170525313 1.85510833982947e-18)
(-0.00300089073256987 0.00236286436455025 -9.86738975823351e-24)
(-0.00323262504923112 0.00253162348233357 -1.977442698812e-18)
(-0.00356157404115041 0.00277375277666602 2.03892755260039e-18)
(-0.00394473045757192 0.00305301768319961 0)
(-0.00435087660231773 0.00332803678420965 -2.16248869749611e-18)
(-0.0047745562832229 0.00358111977713722 -2.23740189694581e-18)
(-0.00519155297912773 0.0037872525295257 4.49694078652507e-21)
(-0.00557408196466826 0.00392030955391653 -2.3943368153046e-18)
(-0.00589162209989302 0.00395556435918409 2.49012769661552e-18)
(-0.00611275511013 0.00387302301821032 -1.00916963575395e-20)
(-0.00622070192097377 0.00366875806474527 1.04971016495169e-20)
(-0.00625427612655489 0.00337840424312676 -5.44121125434051e-21)
(-0.00622434517889936 0.00303632788746071 2.9005507682611e-18)
(-0.00609252012779965 0.00264427981277984 0)
(-0.00586051737738494 0.00221944339424687 0)
(-0.00554808633915953 0.00178529846420773 -3.17666411942127e-18)
(-0.00520586493277891 0.00136938884612918 1.62353769280193e-18)
(-0.00493719958743642 0.000998102125677318 1.65097991816263e-18)
(-0.00481071277454728 0.000663783569251319 3.32000679983337e-16)
(-0.00483826858326215 0.000343976148637556 3.40840469190616e-16)
(-0.0065626632543524 0.000132849686249878 -5.18024970059259e-20)
(-0.00957555630008376 5.97522139089635e-05 0)
(-0.0121066272566707 6.63601879179578e-05 0)
(-0.0145626533655246 6.5897636690377e-05 -6.39988602275086e-21)
(-0.0167767247409032 6.67919744265094e-05 6.37278230722314e-21)
(-0.0187979394382909 6.52319527141441e-05 0)
(-0.0206079313406963 6.33921962703264e-05 -3.81580437486755e-16)
(-0.0222316041061816 6.07600591513397e-05 -3.88093504695797e-16)
(-0.0236816708831772 5.78433327978395e-05 3.25513707080202e-21)
(-0.0249776169991294 5.45866857102276e-05 0)
(-0.0261348963364168 5.11115359666065e-05 -3.38294809643088e-21)
(-0.0271685335342405 4.74207452504869e-05 3.37645374902378e-21)
(-0.0280912494190359 4.3548457252302e-05 -3.95031889423206e-16)
(-0.0289144115104302 3.95054251887525e-05 -4.03621374678123e-16)
(-0.0296479360380748 3.53100145660736e-05 0)
(-0.0303007374176123 3.09787406721749e-05 0)
(-0.0308809596622107 2.65329802001539e-05 -9.36658109780046e-22)
(-0.0313962982005291 2.19975743890507e-05 9.35765520908431e-22)
(-0.0318542576808994 1.74021172427503e-05 0)
(-0.0322623995108552 1.27803178095094e-05 0)
(-0.0326285369592093 8.16880115233303e-06 0)
(-0.0329608830378291 3.60533182941974e-06 0)
(-0.0332681567643753 -8.72706538562559e-07 0)
(-0.0335596612769342 -5.22964199572832e-06 0)
(-0.0338453367005213 -9.4328701827544e-06 0)
(-0.0341357824434256 -1.34545535197084e-05 0)
(-0.0344422364623443 -1.72736965338849e-05 0)
(-0.0347764868166911 -2.08790742206862e-05 0)
(-0.0351506651103968 -2.42738916663861e-05 4.74014076123711e-21)
(-0.0355768900679286 -2.74799101950982e-05 -9.56762093586038e-21)
(-0.0360667224667629 -3.05389541667344e-05 4.82676023425305e-21)
(-0.0366298057488689 -3.35446767314176e-05 0)
(-0.0372713129522201 -3.66821063438004e-05 5.82939046061934e-16)
(-0.0379913667133584 -4.00389031313238e-05 1.18330478591986e-15)
(-0.0387776952770799 -4.38857461432884e-05 6.0035017571584e-16)
(-0.0395635789814271 -5.04282673209072e-05 1.08790436694926e-20)
(-0.040259688996483 -5.96409557622745e-05 -2.19892077775247e-20)
(-0.0408960318474085 -5.96796732680727e-05 2.25140826165003e-20)
(-0.0406182838428848 -8.5731816759366e-05 -1.13964809280194e-20)
(-0.0368879121032682 -0.000532864658904923 6.87181699401017e-16)
(-0.0319583575102949 -0.00210061383115912 6.94524289175111e-16)
(-0.0297815367191106 -0.0037258333393836 -1.59362742734657e-18)
(-0.028478472017576 -0.00525589051114065 -1.26125256276345e-20)
(-0.0277368749401126 -0.00674916751238739 -3.18454479252792e-18)
(-0.0272701442100675 -0.0082035460567956 3.17042887466877e-18)
(-0.0269489218478412 -0.00961361928305999 -6.3270369073647e-18)
(-0.0266751481280227 -0.010958777455674 6.26138289863187e-18)
(-0.026374528112382 -0.0122125491202072 -6.18334589295389e-18)
(-0.0260252121124015 -0.0133591577002492 6.09978106472555e-18)
(-0.0257305574739127 -0.0144119807822721 6.0294712453737e-18)
(-0.0255071587043246 -0.015300741425315 -2.29655232914523e-22)
(-0.0251678766036007 -0.0159135886660373 1.14041298626718e-20)
(-0.0245986167848974 -0.0161873076601102 -5.86911094501061e-18)
(-0.0237320010256399 -0.0160814199019548 -5.853087321442e-18)
(-0.0225225219213733 -0.0155727901038131 5.85509502493452e-18)
(-0.020944121422431 -0.0146534413730367 0)
(-0.018954082787026 -0.0133171829519165 5.89150328629692e-18)
(-0.0165106247691104 -0.0115852593945698 2.3978620031816e-15)
(-0.0136632546838938 -0.00956958250103867 2.36857815267645e-15)
(-0.0105524190932971 -0.00736533002456034 -1.18593467879873e-17)
(-0.0072754340388573 -0.00501953288598144 0)
(-0.00386743532024434 -0.00254044718109023 -5.81946877081083e-18)
(-0.00035629561104467 7.33168931962981e-05 -5.73252617855912e-18)
(0.00333149076519555 0.0028885251668677 5.57526856630397e-18)
(0.00723943131028347 0.00596441902609179 0)
(0.0116738515700474 0.0095246322124244 -1.25169512635241e-21)
(0.0171019111211771 0.0138071956586552 1.20445627275315e-21)
(0.0237602386473572 0.0187961574415087 -4.62741045398785e-18)
(0.0319545331574375 0.0244495708779666 -7.96157075319199e-21)
(0.0422031561368775 0.0307285534414751 0)
(0.055121554422087 0.037411799944006 -3.46297100659415e-18)
(0.0716645075474848 0.0439955278725061 0)
(0.0914821882360511 0.0486488328072081 -4.00448019154593e-22)
(0.11299266304576 0.0484524126813941 -2.342475728688e-18)
(0.123069678811896 0.0381550071376825 3.15829774875548e-21)
(0.111822012293498 0.0224354461354382 -2.76376656837463e-19)
(0.0878251264460088 0.00980113200726457 -2.00581000108342e-19)
(0.0639488332887336 0.00282243833877253 -8.93032767978384e-20)
(0.0427130630379451 0.000159003770666702 6.06658414159336e-24)
(0.0356363634569314 -9.51819088469508e-05 -1.94816886629894e-23)
(0.121874999802472 -0.000245646755843188 -6.915707603472e-24)
(0.13206737167767 -0.000655214467710358 2.05844779719907e-23)
(0.132051852898244 -0.00450107824211898 -3.1030997917679e-22)
(0.0985622337086853 -0.00864936111054631 8.66510387746799e-20)
(0.0422347234462177 -0.00620358397977275 0)
(-0.00823962317667115 0.00431634602568263 -6.06530406915745e-19)
(-0.0305039443294599 0.0146788241152688 -2.96440529129548e-18)
(-0.0312113813936759 0.0179839288537574 -1.61470563229291e-18)
(-0.0267309382852106 0.0176967579199372 4.02462156307305e-22)
(-0.0226980583236026 0.0165471242125139 -3.59501343460157e-18)
(-0.0191541251477386 0.0149268485399615 -3.52491752867154e-21)
(-0.0164098710533442 0.0133687659646525 1.98304514322685e-18)
(-0.0141793359021344 0.0118529939034048 0)
(-0.0123691773313623 0.01043412734444 -2.18513547193654e-18)
(-0.0109062943192257 0.00914870128848427 1.76928913538228e-21)
(-0.00987209821607716 0.00816002031864737 -8.45798243131583e-22)
(-0.00918851576059476 0.00748322626259871 -2.52564964526397e-18)
(-0.00875867476437025 0.00704352790254733 0)
(-0.00860037550579783 0.00684765390954725 -2.73267272699652e-18)
(-0.00872091235246229 0.00689122315441543 -2.83742553398684e-18)
(-0.00912828770132437 0.0071740233645272 2.84691995964031e-21)
(-0.009824733505848 0.00769150819631059 3.00974151893624e-18)
(-0.0107814021787446 0.00841516077597158 6.35657442653398e-21)
(-0.0118867032337312 0.00924214302527896 -6.18287299402175e-21)
(-0.0130583353366817 0.0100553143351315 6.52210910188964e-18)
(-0.0142754534621275 0.0107988480859165 -3.35641878321384e-18)
(-0.0154769025568322 0.0114004261834158 -3.4601049533843e-18)
(-0.0165927419789373 0.0117859290051627 0)
(-0.0175490656188599 0.0118866423776094 0)
(-0.0182752407598999 0.0116501358673377 0)
(-0.0187420583074019 0.0110722085927059 0)
(-0.0190338581451704 0.0102454933157348 -4.13323895566531e-18)
(-0.0191725217207938 0.00925876777061656 -4.26369681833231e-18)
(-0.0190733960772958 0.00812245158410746 4.41034611218321e-18)
(-0.0187403044322234 0.00688591092568605 1.77601002468391e-20)
(-0.0182295912581135 0.00561673564907641 4.65497326164408e-18)
(-0.0176841975196336 0.00439614422161437 2.35969219126892e-18)
(-0.0173737837806401 0.00329433063662515 0)
(-0.0175455237870751 0.00229929865431884 -4.92497506249796e-16)
(-0.0187056666006757 0.0014718085444806 -4.84757309497736e-16)
(-0.0239840929175424 0.00099411997068631 5.49527324207116e-20)
(-0.0321054942587049 0.000792637769961981 8.95383416121269e-21)
(-0.0390322614209195 0.000742502957697986 0)
(-0.0455442552804531 0.000680701013138811 0)
(-0.051333265510176 0.000619252406940051 0)
(-0.0565309024795114 0.000556178069283684 0)
(-0.0611340129995503 0.000497762463475502 5.06718881161447e-16)
(-0.0652201477303425 0.000444057511906638 5.01907760148937e-16)
(-0.0688382166293306 0.000395987865569547 0)
(-0.0720458316746036 0.000353026305396795 -4.30575011925392e-21)
(-0.0748890640302621 0.000314793187604285 4.27500591608922e-21)
(-0.0774102034268384 0.000280676166078048 4.38751462620037e-21)
(-0.0796448066494946 0.000250168821648261 5.05399587245073e-16)
(-0.081624106339676 0.000222802881839595 5.09343921822475e-16)
(-0.0833752710819044 0.000198211810999998 0)
(-0.0849226379817404 0.000176114118185179 0)
(-0.0862884398158883 0.000156319697859008 0)
(-0.0874936440941671 0.000138720616767559 1.19862234753366e-21)
(-0.0885586069439996 0.000123284540591417 -1.19532217463616e-21)
(-0.0895036526635596 0.000110043509839241 0)
(-0.0903495026117415 9.90799206392444e-05 -6.32423165692753e-22)
(-0.0911175742090105 9.05132388727902e-05 6.31104475237732e-22)
(-0.0918301643529258 8.44900983755857e-05 0)
(-0.09251054026924 8.11766802146904e-05 0)
(-0.0931829338485439 8.07509078778411e-05 0)
(-0.0938724157405236 8.33919492989934e-05 5.54580601636905e-21)
(-0.094604602918624 8.92647945828068e-05 -5.53338105592337e-21)
(-0.0954051204947329 9.8495790588223e-05 0)
(-0.0962986938967448 0.000111134347301539 -5.84544312059696e-21)
(-0.0973077278786813 0.000127095960887146 1.1771887381899e-20)
(-0.098450034149634 0.00014605944746859 -5.92372624690568e-21)
(-0.0997347171791735 0.000167240601405021 -1.22872448626092e-20)
(-0.10115600536832 0.000189095082328409 -7.04441999614779e-16)
(-0.102685516376342 0.000208954840440636 -1.43868948897138e-15)
(-0.104247142554731 0.000220948800016493 -7.35500674699117e-16)
(-0.105666726941405 0.000213104388734649 1.28657676864161e-20)
(-0.106698417352385 0.000171883162229526 0)
(-0.106875854013745 5.80673021854646e-05 0)
(-0.104220013293127 -0.000398567630461174 1.4119283277018e-20)
(-0.095988912062224 -0.00221616273346066 -8.15854045197453e-16)
(-0.0864222885940361 -0.00656149466961854 -8.67218168182976e-16)
(-0.081797131936244 -0.0109666159307516 -2.17715515461034e-22)
(-0.0788527268826069 -0.0152804830457423 -4.03923672822382e-18)
(-0.0769768996845439 -0.0195128797953944 4.08928000625935e-18)
(-0.0755767265904677 -0.0236268387051118 -8.19865827143667e-18)
(-0.0743716815600904 -0.027579345734835 8.18973410467916e-18)
(-0.0731509451454871 -0.0313024673619032 -8.15968827775576e-18)
(-0.07178250329898 -0.0347241987396848 0)
(-0.0702645852532266 -0.0378001069081111 0)
(-0.0687603801235121 -0.0405151567240714 -8.03472386497634e-18)
(-0.0672519764244455 -0.042667582724113 -1.5805861184238e-20)
(-0.0653720507491293 -0.0440061786073043 -3.43571043431468e-22)
(-0.0629104893552934 -0.0443920726668168 8.02114822740927e-18)
(-0.0597433866227831 -0.0437400271159136 1.61271413277517e-17)
(-0.0557896399319524 -0.0420087453512961 -8.13701515640085e-18)
(-0.0509957652549314 -0.0391902507553279 0)
(-0.0452840417551771 -0.0352921428433786 -1.64982984720887e-20)
(-0.0386076787710851 -0.0304030120959508 -3.37595681503887e-15)
(-0.03108156696144 -0.0248074756316887 -3.46699525823019e-15)
(-0.0229811742773794 -0.0187171673689735 8.66311774324802e-18)
(-0.0144910761646996 -0.0122329422861811 8.43784471574112e-21)
(-0.00567337663579131 -0.00536668537074 0)
(0.00342671921412733 0.00189734548641957 8.57907026057212e-18)
(0.0129869730950846 0.00973717286103929 4.03517781807608e-21)
(0.0231269670156454 0.0183181269995775 0)
(0.0345633579439629 0.0281993712593509 0)
(0.0483266976556427 0.0399397901596438 -7.12548017502654e-18)
(0.0650163760986972 0.0534714005338293 6.66563459328567e-18)
(0.0853773513445208 0.0686304459586456 -6.13067991577044e-18)
(0.110569352008361 0.0852066128183139 5.47149867370109e-18)
(0.141970327387564 0.102481073603532 -4.70639622473362e-18)
(0.181562492330666 0.11896144977237 3.78616134215961e-18)
(0.228809369363171 0.130096512869175 0)
(0.28080105445593 0.129196306310446 2.9563664879068e-18)
(0.313332968848601 0.104870148650234 3.39679407543497e-21)
(0.303307899435072 0.0661179533551148 3.4399529260916e-19)
(0.257868907705351 0.0321351260386898 2.12252974276879e-22)
(0.202232680773425 0.0113443770822942 9.7126810465315e-23)
(0.147708365811599 0.00213063697432092 -1.43404223335552e-22)
(0.123697681519587 0.000115222640823805 0)
(0.218488704464117 -0.00027870454914653 0)
(0.228072463884715 -0.00126427302177762 1.00927637538461e-23)
(0.226194188374588 -0.00672833997297296 2.03889652212843e-20)
(0.18133322972605 -0.01361667350891 0)
(0.0964609067557171 -0.01210722326846 0)
(0.00868933899269401 0.00269906049851318 1.17809729766173e-18)
(-0.0393397473076233 0.020396333895545 5.39891777086834e-21)
(-0.0469307962495508 0.0270930385536586 0)
(-0.0417168502877928 0.0273200236747644 0)
(-0.0359709968116861 0.0259005639409735 1.83313333981983e-18)
(-0.0307337739862751 0.0236596152954459 -1.93059507437378e-18)
(-0.0265588138775337 0.0213850691033957 6.26310853409792e-23)
(-0.0231138568495041 0.0191035621620107 -2.13086074978254e-18)
(-0.0202962891601262 0.0169339574522639 -5.51203350719523e-22)
(-0.0180198128498766 0.014963876014168 2.36142447250483e-18)
(-0.0164034953589941 0.0134454827501896 -4.96313832444695e-18)
(-0.0153448695642802 0.0124151342736487 5.86247502898002e-22)
(-0.0147040886680901 0.0117710332369318 0)
(-0.0145012450276948 0.0115222378031319 5.62479559282994e-18)
(-0.0147485189817504 0.0116619095644976 2.90016797923635e-18)
(-0.0154553584419705 0.0121868900842387 -2.99107563531741e-18)
(-0.016619289810385 0.0130827962023197 -3.07549365234149e-18)
(-0.0181862542559899 0.014292380323028 -3.15126130195814e-18)
(-0.0199876258064203 0.0156528835599746 -6.31722220314696e-21)
(-0.0218972833654493 0.016982090127458 -3.29716096305029e-18)
(-0.0238761182912975 0.0181847926109897 3.39581699124673e-18)
(-0.025833773857397 0.0191472589957207 3.47554638596817e-18)
(-0.0276685285899779 0.0197559933304122 -7.02697827144104e-21)
(-0.0292776680127047 0.0199098322148831 -3.689802131649e-18)
(-0.0305716119124199 0.0195386941285308 0)
(-0.0315269991664674 0.0186484815912864 0)
(-0.0322581797910289 0.0173686928631205 8.16972148334389e-18)
(-0.0327956173884727 0.0158223108833073 0)
(-0.03303387234944 0.0140311132970169 -4.32566230410468e-18)
(-0.0329822697203421 0.0120683331971925 -1.73510097615571e-20)
(-0.0327317567834946 0.0100353021025254 -2.27517254108286e-18)
(-0.0325040857130587 0.00805452552210504 -4.63707237591022e-18)
(-0.032701491494165 0.00622935493768514 -2.34970054669157e-18)
(-0.0338142537510056 0.00458546577480649 0)
(-0.0370077179733898 0.00329535283439882 -1.14846938742861e-18)
(-0.0457603098426715 0.00254197442047044 -8.48845002873088e-21)
(-0.0580306968751615 0.00219606352056122 8.18555651397326e-21)
(-0.0685281221832944 0.00201914641107091 7.95552819539817e-21)
(-0.0781231275766951 0.00182789394825685 -7.75416548861415e-21)
(-0.0865244247388959 0.0016402827331343 -7.65065597879589e-21)
(-0.0939459094508756 0.00145953698909633 7.50175540074068e-21)
(-0.100439491893572 0.00129536335490664 0)
(-0.106138540540156 0.00114792438866138 0)
(-0.111134507476957 0.00101748208256284 0)
(-0.11552116334024 0.000902163658291104 0)
(-0.119373265522019 0.000800265525247528 0)
(-0.122756920831525 0.000709925250006791 0)
(-0.125727304273745 0.000629587744826479 0)
(-0.12833231049809 0.00055793182091893 0)
(-0.130613467998646 0.000493934693644908 0)
(-0.132607840416148 0.000436836490991818 0)
(-0.134349193180033 0.000386127153712414 0)
(-0.135869198248227 0.000341516186299143 -1.01754063909582e-21)
(-0.137198330117074 0.000302902984011758 1.01269730303639e-21)
(-0.138366605532547 0.000270341055134732 0)
(-0.139404085851668 0.000243997335622825 0)
(-0.140341180727397 0.000224115205406552 0)
(-0.141208768975801 0.000210984389925116 2.20809659077244e-21)
(-0.142038155735428 0.000204913977093127 -2.20020615118469e-21)
(-0.142860845628125 0.000206201807992129 0)
(-0.143708085333735 0.000215093434425882 0)
(-0.14461009570357 0.000231723480738104 4.71731980013564e-21)
(-0.145594869496688 0.000256028436077974 -4.69664631370864e-21)
(-0.146686352680254 0.00028761378597696 4.86474452438873e-21)
(-0.147901757258458 0.000325547383625348 -4.83854312516693e-21)
(-0.14924751940125 0.000368028388667379 0)
(-0.150712934813064 0.000411781945482417 0)
(-0.152260887534813 0.000450985444252951 0)
(-0.153814327336636 0.000475780328493802 -1.0426854529797e-20)
(-0.155225980533297 0.000468759378149836 1.034730718546e-20)
(-0.156227215500554 0.000394316153466536 -1.07399909037141e-20)
(-0.156400867292025 0.000184922150464157 -2.51160508975762e-22)
(-0.154975116475334 -0.000273602229218576 1.08473314223147e-20)
(-0.150134587277231 -0.00136448856860366 0)
(-0.140391312110348 -0.00440366200729084 0)
(-0.130130225118171 -0.0107315639381988 0)
(-0.124643724979226 -0.0172869964282463 2.5517074641587e-20)
(-0.120865063767914 -0.0238637597900872 6.62082711708484e-18)
(-0.118149382592849 -0.03031815571697 -3.36673926103091e-18)
(-0.115834012015567 -0.0365492506197853 3.39153572036297e-18)
(-0.113598904060607 -0.0424584083176124 2.47883823481192e-20)
(-0.111211071452248 -0.0479342689340883 -2.64232374292249e-20)
(-0.108546555488858 -0.0528732841677285 0)
(-0.10562422180685 -0.0572004047062818 -6.81627767847456e-18)
(-0.102578177786055 -0.0608278294252047 0)
(-0.0993373752249285 -0.0634542633701435 0)
(-0.0955003320679398 -0.064798775894331 6.86205269060671e-18)
(-0.090842937265301 -0.0647176314956403 -1.32918058288379e-20)
(-0.0852264044995615 -0.06313057454034 -1.39010111861087e-17)
(-0.0785562968489 -0.0600124312627278 1.35555843510937e-20)
(-0.0707662633092125 -0.0553767878315572 7.12782483295913e-18)
(-0.0617729893347304 -0.0492720048475273 1.40062697184454e-20)
(-0.0515673714945486 -0.0418624973496791 7.40251731194068e-18)
(-0.04030829101138 -0.0335236013244424 -7.55959077833951e-18)
(-0.0282952533459648 -0.0244866558861987 0)
(-0.0157232530531114 -0.0148528793505491 0)
(-0.00264375340099621 -0.00461991549588883 0)
(0.0109109899529631 0.00625680054533963 7.79926270795639e-18)
(0.0251943579376044 0.0180195896683491 0)
(0.0403986421070445 0.0309096412320439 0)
(0.0575030501227536 0.0456295908415656 6.88246879323164e-18)
(0.0778525563778283 0.0628310122294468 6.47008749496896e-18)
(0.102283477048859 0.082365763394999 -7.41248255003286e-22)
(0.131781105465783 0.103894894551968 6.4179514326799e-22)
(0.167768173596852 0.126918957515968 -4.83184202397611e-18)
(0.211866306496233 0.150185897479624 4.08968103502991e-18)
(0.266209354097402 0.171307860509161 -3.44549370981375e-20)
(0.329947053467246 0.184344185594649 2.218923542948e-18)
(0.399667092124079 0.181271082771225 -1.32940837733442e-20)
(0.450615152129663 0.150517022898251 -7.04190393977221e-21)
(0.454874733510349 0.10115925070322 -1.52910576950854e-20)
(0.411265196327085 0.0544283801418608 0)
(0.343624135479993 0.0224453460373271 0)
(0.268762876215441 0.00608998604483798 -2.27293743940374e-23)
(0.22866234733543 0.00122283849795523 2.4426392408935e-23)
(0.32035820639958 0.000211520575798277 0)
(0.324735293006349 -0.00165384883532391 0)
(0.320022150124336 -0.00841470115899609 0)
(0.270880256228354 -0.0177484847222445 0)
(0.167526882375372 -0.0186984057728082 0)
(0.0444273511582308 -0.00223880756605248 -5.423966321989e-19)
(-0.0372718269606304 0.0226775920332802 1.47543604711821e-18)
(-0.0579199289660534 0.033776992641873 0)
(-0.0542240268308424 0.0350907052067952 -4.39804668965772e-22)
(-0.047668691604498 0.0338165279323581 -2.07148157083871e-23)
(-0.041310850598472 0.0313368115765488 4.70081401070577e-22)
(-0.0360546957030729 0.0286245064243857 0)
(-0.0316272712737999 0.0257876785118308 2.18025125904761e-18)
(-0.0279666892529215 0.0230347255472968 0)
(-0.0250047852526582 0.0205251043764586 -2.41578146471742e-18)
(-0.0228939540118941 0.018589019079035 -3.21708280661241e-22)
(-0.0215257207145713 0.0172915036791602 6.08603149222994e-22)
(-0.0207330600191798 0.0165195219494416 0)
(-0.0205334593586381 0.0162843993804736 -2.88077296166137e-18)
(-0.0209430849635956 0.0165768042067015 0)
(-0.0219697252413164 0.017387951814932 3.05325053324653e-18)
(-0.0236014668478051 0.0186878998707636 -2.9625179393538e-22)
(-0.025755804828672 0.0203842223204295 -3.19241065060267e-18)
(-0.0282177684160571 0.0222606034148667 0)
(-0.030825759230852 0.0240790771974487 -3.32052795372608e-18)
(-0.0335217488404803 0.0257061830695365 0)
(-0.036194747386575 0.0269932448216728 3.47468374078878e-18)
(-0.0387233976165721 0.0277969760234839 -3.55933198667591e-18)
(-0.0409926333332892 0.0279960638636089 3.65913679838308e-18)
(-0.0429139164655633 0.0275161027011363 3.74454343412032e-18)
(-0.0444828037983813 0.0263774627080658 -1.49824241435195e-20)
(-0.0458324481147478 0.0247289502699398 -1.6339013133938e-20)
(-0.0470013450940596 0.0227131190699207 1.57745931773985e-20)
(-0.0478847604027444 0.020362491732521 -4.14310956456689e-18)
(-0.0485011027741378 0.017765876036721 0)
(-0.0489712302861464 0.0150474103619769 -2.14366897310198e-18)
(-0.0495762325178256 0.0123588054774588 2.1686550556555e-18)
(-0.0508247542431195 0.00983775990484635 4.35192177482151e-18)
(-0.0534632479303322 0.00758193570949747 -1.07415446114219e-18)
(-0.0590965813399577 0.00583648155325625 -1.60701465195093e-20)
(-0.0707199327959823 0.00472814133566042 -4.48379239731519e-20)
(-0.08576527832952 0.00420048335323915 7.1015354420271e-21)
(-0.098486301566757 0.00380474852274841 8.63200138100774e-24)
(-0.109754248247178 0.00340117297062018 -6.59133775606183e-21)
(-0.11940542299556 0.00301582399878578 0)
(-0.127750319149973 0.00265869128228525 -6.3126508816111e-21)
(-0.134919849112302 0.00233996270708969 6.1541315498515e-21)
(-0.141104448432596 0.0020583924576846 0)
(-0.146437981854091 0.00181167534259228 0)
(-0.151045598162544 0.001595355852371 0)
(-0.155025724381504 0.00140534041690475 0)
(-0.158462798957615 0.00123777827782696 -4.63985340274376e-16)
(-0.161426508710898 0.00108949096830799 -4.68200135204571e-16)
(-0.163976589973228 0.000957895525072981 -2.99862880281183e-21)
(-0.166164453786867 0.000841007201888664 0)
(-0.168035604320574 0.000737367251025099 0)
(-0.169631115552984 0.000645980592556049 0)
(-0.170989027058321 0.000566247223337924 -7.90886266256689e-22)
(-0.172145320883784 0.000497890926463975 7.84074807852786e-22)
(-0.17313466617666 0.000440884771176671 0)
(-0.173990864927342 0.000395370800264361 0)
(-0.174747053179626 0.000361587792965489 0)
(-0.175435673063927 0.000339808475862987 1.68715468482946e-21)
(-0.176088226525361 0.000330278264896615 -1.67634660023325e-21)
(-0.176734777178642 0.000333143080088479 0)
(-0.177403140394426 0.000348354052683264 0)
(-0.178117670383654 0.000375535733131474 3.56507236777378e-21)
(-0.17889751330983 0.000413798467857421 5.55838148603111e-16)
(-0.179754146571548 0.000461463623594297 5.590934924576e-16)
(-0.180687966491059 0.000515649841029414 0)
(-0.181683516091396 0.000571650094526306 0)
(-0.182702605768272 0.000621880207971617 0)
(-0.183674881406353 0.000653958925362923 0)
(-0.184485047412066 0.000648052428730095 0)
(-0.184948114200292 0.000572019202752166 0)
(-0.184771365129698 0.000364839427153741 -7.80710139926552e-21)
(-0.183549898182825 -8.56622485401405e-05 -1.7958253757953e-22)
(-0.180701006174396 -0.000925281257035771 7.67879858630658e-21)
(-0.175067398162524 -0.00252397912744412 -7.88349888335846e-21)
(-0.166072757881271 -0.0062573717216142 -5.55659004804876e-20)
(-0.157382953727918 -0.01365658615148 0)
(-0.152109841721972 -0.0215254835325994 0)
(-0.148068789502006 -0.0295441337886438 -2.37676041470381e-18)
(-0.144763208899818 -0.0374005258273044 4.82093850549688e-18)
(-0.141633073462783 -0.0449314840453466 0)
(-0.138409577840701 -0.0519903494540136 -7.31111320199546e-18)
(-0.134901210917062 -0.0584389461288277 0)
(-0.131014660689754 -0.0641537196773227 -1.92475446488058e-20)
(-0.126765323649351 -0.0690277884912651 4.93432646736508e-18)
(-0.122219068491034 -0.0729045907570284 -3.83517168358859e-20)
(-0.117267116410122 -0.0754304477027993 1.89794112421921e-20)
(-0.111580406154334 -0.0763658642009736 -4.89358826230611e-18)
(-0.104974775780357 -0.0756030995344537 -4.92919471076188e-18)
(-0.0973238797821176 -0.0730917987931455 -5.66683295827606e-21)
(-0.0885341361650844 -0.0688346685942482 9.86900008350626e-21)
(-0.0785391231747481 -0.0628728874527423 -1.00951626228226e-17)
(-0.0672657033227406 -0.0552937595663431 0)
(-0.05474717307153 -0.0463093864373835 1.52699077330874e-20)
(-0.0411435437853616 -0.0363069847747836 5.32628414976819e-18)
(-0.0266913096952779 -0.0254720821681224 5.47919331441981e-18)
(-0.0115389128312272 -0.0138724137380496 5.62111936358544e-18)
(0.00430041329071827 -0.00147620944567111 5.68641524899384e-18)
(0.0208332985020597 0.0117974300504049 -5.6368434829596e-18)
(0.0383509756705945 0.0262123254092224 -5.39351398953677e-21)
(0.0571057076341049 0.0420522661802139 5.39536321435217e-18)
(0.0781548269812309 0.0599878357027424 -7.49212878031008e-21)
(0.102918350095292 0.0805844959895706 4.8740374547229e-18)
(0.132329113251812 0.103588359729906 4.51265232690297e-18)
(0.167423033671416 0.128463296984999 -1.27761862485423e-22)
(0.209582221604345 0.154387437356731 8.24427646904715e-22)
(0.260287397449882 0.179633952753955 -7.74277657790255e-22)
(0.321290958620268 0.201167013011122 -2.31758685910731e-18)
(0.391471345619835 0.212653076226452 -1.82017301885423e-20)
(0.467408865075485 0.206232900764403 -1.69044236503563e-18)
(0.528898207507079 0.173105165712743 -1.0203797097063e-20)
(0.550585369039882 0.12200594345662 -2.10259705010727e-19)
(0.524743431962279 0.0714884917139031 1.29788881618691e-22)
(0.466006836941818 0.0335517823969228 6.42970897875195e-23)
(0.388865824283191 0.0114160303001546 -4.13965313521469e-23)
(0.339566891508653 0.00343866800230741 0)
(0.41104251314286 0.00132378033667514 -4.40377025295844e-24)
(0.40871139828903 -0.00160304022419665 1.28506086601916e-23)
(0.401806393641928 -0.00944592369359342 0)
(0.355748060366201 -0.0206065233050811 0)
(0.247528856648909 -0.0248137730813291 3.13515371880615e-22)
(0.0978839303643947 -0.00953562261427332 4.59511998658949e-19)
(-0.0215447204074533 0.0211670614210048 1.35217012002953e-18)
(-0.0627577507295569 0.0378211608023563 7.61569499368331e-22)
(-0.0636365852831556 0.0408683422368685 -1.74977911104258e-18)
(-0.0574356125939474 0.0401912598155612 -1.85658046596332e-18)
(-0.0506460619310293 0.0378811838905878 2.45132081009423e-22)
(-0.0447391632652268 0.0350365653644177 -2.52101073513122e-22)
(-0.0396104274822629 0.0318719905936786 0)
(-0.0353017361932816 0.0287136002439238 5.7489825363326e-22)
(-0.0318010650981673 0.0258132395356205 2.46701107107747e-18)
(-0.0292972540548547 0.0235741881835466 2.60061912997326e-18)
(-0.0276941099216081 0.0220982796145988 5.4519598143747e-18)
(-0.0268134358925517 0.0212749312468113 0)
(-0.0266670959617408 0.0211182668368817 2.87772916920351e-21)
(-0.0272735447860573 0.0216158294733309 -8.85788792945822e-21)
(-0.028635101851028 0.0227497207233089 6.02240705499141e-21)
(-0.0307252288740863 0.024468490470171 3.14526659631093e-18)
(-0.0334306722410178 0.0266402273555496 3.2075840190478e-18)
(-0.0364996664180356 0.0290013173991141 -3.246482809259e-18)
(-0.0397430649867024 0.0312662878758063 -9.68332796719672e-23)
(-0.0430848365979152 0.0332663959954301 3.33743906925507e-18)
(-0.0464014022657808 0.0348254292213527 -3.51976207779917e-22)
(-0.0495636738750736 0.0357808288542885 6.87532850622904e-18)
(-0.0524593579883172 0.0360036322797282 0)
(-0.0550160702070081 0.0354256161870084 -3.56197569818267e-18)
(-0.0572534429823419 0.0340808427653391 1.4017469933857e-20)