# Wall shear stress    
# Time                 	patch                  	min                    	max                    
3.000000000000000e+04	bottomWall	(-3.031746084580233e-03 -1.725483012995624e-04 -4.317031056391251e-17)	(9.917105261941831e-04 1.355621867054995e-04 4.438898060711778e-17)
3.000000000000000e+04	topWall	(-3.791758541787143e-03 -2.198169560415823e-05 -7.725917650520817e-17)	(-1.475896743275823e-03 1.194777382981308e-04 3.024270431644783e-16)
