1 	0.450219062354414 	-7.28583859910259e-17 	-0.00414662981992632 	0.00326786089486043 	-1.30911136033325e-16
1 	0.454387540724897 	-8.67361737988404e-17 	-0.0126851043989565 	0.00994316697822108 	-9.89667519022172e-16
1 	0.458704876538544 	-1.05818132034585e-16 	-0.0215877348454834 	0.0169770896634738 	1.02451554149828e-15
1 	0.463176246347682 	-1.07552855510562e-16 	-0.0308664011724951 	0.0243836383926353 	1.39825372308141e-16
1 	0.467806996853304 	-1.09287578986539e-16 	-0.0404903317259631 	0.0321288474030612 	1.06087733840099e-17
1 	0.472602649809362 	-1.17961196366423e-16 	-0.0503662005008649 	0.0401404309003308 	-4.41175481087525e-18
1 	0.477568907020923 	-1.23165366794353e-16 	-0.0603067347016904 	0.0482732168953385 	-3.74112826173936e-20
1 	0.482711655434639 	-1.28369537222284e-16 	-0.0700118040555365 	0.0562896381089595 	5.5257315961684e-18
1 	0.48803697231966 	-1.28369537222284e-16 	-0.0791022950488363 	0.0638855698077249 	-4.03576536423347e-18
1 	0.493551130536815 	-1.2490009027033e-16 	-0.0872173127786443 	0.0707680121304498 	-2.32999785397198e-18
1 	0.499260603893591 	-1.21430643318376e-16 	-0.0941184828588301 	0.0767396071920619 	-1.63173203135089e-19
1 	0.505172072582082 	-1.2490009027033e-16 	-0.0997323136875735 	0.0817341044350404 	7.2386166530113e-19
1 	0.511292428696733 	-1.28369537222284e-16 	-0.104121693396834 	0.0857947496219318 	5.86235429734587e-20
1 	0.517628781828361 	-1.21430643318376e-16 	-0.107426333464289 	0.0890272305379356 	-1.67357773640336e-18
1 	0.524188464730544 	-1.17961196366423e-16 	-0.10980977750406 	0.0915574431503727 	5.09757537805743e-19
1 	0.530979039054095 	-1.21430643318376e-16 	-0.111427080510071 	0.0935055450570044 	-3.8780826366743e-19
1 	0.538008301144957 	-1.21430643318376e-16 	-0.112410817254687 	0.0949745522427707 	-1.36325543587877e-18
1 	0.545284287900438 	-1.21430643318376e-16 	-0.112868256408415 	0.0960478346403796 	1.03753759230454e-18
1 	0.55281528267832 	-1.35308431126191e-16 	-0.112883730083012 	0.0967907835555338 	1.24329771922309e-18
1 	0.560609821252967 	-1.45716771982052e-16 	-0.112522679524114 	0.0972538563345231 	-1.69961557002591e-19
1 	0.568676697812148 	-1.56125112837913e-16 	-0.111835716085935 	0.0974756739330816 	-8.14962254572017e-19
1 	0.577024970987914 	-1.73472347597681e-16 	-0.110862080873066 	0.0974856763238928 	2.39348329898101e-19
1 	0.585663969914451 	-1.80411241501588e-16 	-0.109632371137901 	0.0973062289236952 	3.75664082058922e-19
1 	0.594603300305478 	-1.80411241501588e-16 	-0.108170584063782 	0.0969542237112551 	-2.5517993937501e-20
1 	0.603852850543383 	-1.76941794549634e-16 	-0.106495569174456 	0.0964422587271308 	1.2887204822241e-21
1 	0.612528239724008 	-1.70002900645727e-16 	-0.104802854417625 	0.0958471374114236 	1.01288539348114e-20
1 	0.617395485481436 	-1.6306400674182e-16 	-0.103818919621963 	0.0954790016071985 	2.0779772738755e-20
1 	0.623330243719527 	-1.66533453693773e-16 	-0.102561613037081 	0.0949716938825552 	4.97549911626882e-20
1 	0.633582418177262 	-1.76941794549634e-16 	-0.100321251238198 	0.0940227684322852 	-2.63068590965422e-19
1 	0.644187277023308 	-1.76941794549634e-16 	-0.0979030186602876 	0.0929340588048581 	-1.45865014752826e-19
1 	0.655156189732493 	-1.70002900645727e-16 	-0.0953032128721391 	0.0917039905381294 	8.0485976686251e-19
1 	0.666500842971829 	-1.70002900645727e-16 	-0.09250880104893 	0.0903277067092917 	1.90734238760031e-20
1 	0.678233246461928 	-1.76941794549634e-16 	-0.0894920383185769 	0.0887960623458082 	-1.07691259431741e-18
1 	0.690365738781912 	-1.73472347597681e-16 	-0.0862013149149816 	0.0870937592744633 	-2.75487930942518e-19
1 	0.702910993109561 	-1.66533453693773e-16 	-0.0825463982634732 	0.0851959155783853 	4.99175106804703e-19
1 	0.715882022888783 	-1.6306400674182e-16 	-0.0783782447960533 	0.0830635686342388 	2.54970517705339e-19
1 	0.729292187416965 	-1.56125112837913e-16 	-0.0734726180053824 	0.0806427117072576 	2.55666687784856e-19
1 	0.743155197345302 	-1.52655665885959e-16 	-0.0675256542837509 	0.0778694553419455 	8.37602257034394e-19
1 	0.757485120085965 	-1.49186218934005e-16 	-0.0601396005732774 	0.0746729292319247 	-7.22444400660634e-19
1 	0.77229638512089 	-1.42247325030098e-16 	-0.0507853506994203 	0.070970523527801 	-5.8688264637184e-19
1 	0.787603789208011 	-1.38777878078145e-16 	-0.038762123492589 	0.0666644415917676 	8.72359552111855e-19
1 	0.803422501482036 	-1.31838984174237e-16 	-0.0231691879529391 	0.0616460445063211 	-5.69089123808243e-19
1 	0.819768068448393 	-1.28369537222284e-16 	-0.0029010571505288 	0.0558161066287826 	-4.70255204277649e-20
1 	0.836656418870641 	-1.28369537222284e-16 	0.0233670718764172 	0.0491139197260634 	-4.88929067354693e-20
1 	0.85410386855358 	-1.17961196366423e-16 	0.057333071689713 	0.0415736836973856 	8.00602237187744e-21
1 	0.872127125026566 	-1.17961196366423e-16 	0.101408169389102 	0.0331393322810512 	8.26168482959522e-19
1 	0.890743292133943 	-1.2490009027033e-16 	0.159228750190794 	0.0237822365458155 	-6.67551399590445e-19
1 	0.909969874542316 	-1.21430643318376e-16 	0.23388395343607 	0.0137776494629979 	7.98720139650527e-19
1 	0.929824782177457 	-1.14491749414469e-16 	0.324766005293342 	0.00398982509901942 	-7.98604226381194e-19
1 	0.950326334606988 	-1.04083408558608e-16 	0.429032059939342 	-0.00458799887298701 	7.72817532078273e-19
1 	0.971493265388709 	-1.00613961606655e-16 	0.544758254429825 	-0.0115182232030111 	-8.04901938755636e-19
1 	0.993344726408489 	-1.05601291600088e-16 	0.668930237253723 	-0.0164593939292756 	-3.90968971416164e-20
1 	1.01590029223598 	-1.047339298621e-16 	0.793881566158055 	-0.0192470089585546 	-7.28875691894531e-21
1 	1.0391799645312 	-1.01047642475649e-16 	0.909699483642667 	-0.0200112581888262 	-1.98754863663979e-20
1 	1.06320417653999 	-9.84455572616838e-17 	1.00819175956449 	-0.019186243683787 	1.1977080556348e-20
1 	1.08799379772194 	-9.71445146547012e-17 	1.08499681721389 	-0.0175120656010763 	4.22872803406418e-20
1 	1.11357013855991 	-9.19403442267708e-17 	1.14088448686319 	-0.0157279447250817 	2.05635488194772e-19
1 	1.13995495560658 	-8.50014503228635e-17 	1.1802789296007 	-0.0143081793465624 	-1.77728440660864e-19
1 	1.16717045682971 	-7.80625564189563e-17 	1.2085595217505 	-0.0134158624967604 	-1.34963384066366e-19
1 	1.19523930732455 	-7.11236625150491e-17 	1.23032725642497 	-0.0129807697657079 	8.77503533621506e-20
1 	1.22418463546882 	-6.93889390390723e-17 	1.24880468169262 	-0.0128384995281984 	6.44703444951887e-21
1 	1.25403003960283 	-7.28583859910259e-17 	1.26585830692842 	-0.0128291891785904 	4.46125064819355e-20
1 	1.28479959532484 	-7.97972798949331e-17 	1.28237579480032 	-0.012830766391992 	-2.51872467228706e-20
1 	1.31651786349929 	-8.32667268468867e-17 	1.29868114397292 	-0.0127700691273989 	-8.64317584872795e-21
1 	1.34920989908316 	-8.32667268468867e-17 	1.31480828972171 	-0.0126133810711461 	1.05945015420152e-20
1 	1.38290126088366 	-7.97972798949331e-17 	1.33009329578679 	-0.0123730385789591 	5.06239028183524e-21
1 	1.41220272459525 	-7.63278329429795e-17 	1.34313043315449 	-0.0121043096734698 	-4.59700527203796e-21
1 	1.43617694926587 	-7.63278329429795e-17 	1.35386006662545 	-0.0118328080234142 	0
1 	1.45930396367274 	-7.63278329429795e-17 	1.36331000873722 	-0.0115558426672981 	0
1 	1.48161370685419 	-7.63278329429795e-17 	1.37201359811804 	-0.0112774022317331 	0
1 	1.50313505985141 	-7.63278329429795e-17 	1.38002311275869 	-0.0110002740670645 	0
1 	1.52389588309639 	-7.63278329429795e-17 	1.38738742936552 	-0.0107267299996277 	0
1 	1.54392305247858 	-7.63278329429795e-17 	1.39415144979775 	-0.010458726816983 	0
1 	1.56324249413704 	-7.63278329429795e-17 	1.40035615833157 	-0.0101977181295553 	0
1 	1.58187921802306 	-7.63278329429795e-17 	1.40603892746748 	-0.00994476450698905 	0
1 	1.5998573502768 	-7.28583859910259e-17 	1.41123387203128 	-0.00970065412737547 	0
1 	1.61720016445966 	-6.93889390390723e-17 	1.41597216553762 	-0.00946596474620975 	0
1 	1.63393011168312 	-6.24500451351651e-17 	1.42028229534228 	-0.00924109831545604 	0
1 	1.65006884967274 	-4.85722573273506e-17 	1.42419026095815 	-0.00902630722096543 	0
1 	1.66563727080512 	-4.16333634234434e-17 	1.42771972857308 	-0.00882171711640252 	0
1 	1.68065552915415 	-4.16333634234434e-17 	1.43089215470116 	-0.00862734742992409 	0
1 	1.69514306658136 	-3.81639164714898e-17 	1.43372688872533 	-0.00844312979610129 	0
1 	1.70911863790442 	-3.12250225675825e-17 	1.43624126050522 	-0.00826892436974731 	0
1 	1.72260033517611 	-2.77555756156289e-17 	1.43845065623028 	-0.00810453390956804 	0
1 	1.73560561110537 	-2.77555756156289e-17 	1.44036858350912 	-0.00794971558440778 	0
1 	1.74815130165068 	-2.42861286636753e-17 	1.4420067251896 	-0.00780419055046975 	0
1 	1.76025364781503 	-2.08166817117217e-17 	1.44337498039538 	-0.0076676514216847 	0
1 	1.77192831667065 	-1.04083408558608e-17 	1.44448149053879 	-0.00753976779528009 	0
1 	1.78319042164084 	-3.46944695195361e-18 	1.44533264745819 	-0.00742019000449839 	0
1 	1.79405454206499 	-6.93889390390723e-18 	1.4459330801936 	-0.00730855125806331 	0
1 	1.80453474207227 	-6.93889390390723e-18 	1.44628561614802 	-0.00720446829866626 	0
1 	1.81464458878829 	-6.93889390390723e-18 	1.4463912113852 	-0.0071075406759565 	0
1 	1.82439716989841 	-6.93889390390723e-18 	1.44624884348665 	-0.00701734868690352 	0
1 	1.83380511059041 	-6.93889390390723e-18 	1.44585535861896 	-0.00693344998989236 	0
1 	1.84288058989839 	-6.93889390390723e-18 	1.44520526210537 	-0.00685537484896931 	0
1 	1.8516353564691 	-3.46944695195361e-18 	1.44429043867229 	-0.00678261991066351 	0
1 	1.86008074377114 	0 	1.44309978441725 	-0.00671464035651943 	0
1 	1.8682276847667 	0 	1.44161872711493 	-0.00665084020845534 	0
1 	1.87608672606481 	0 	1.43982860435797 	-0.00659056049034315 	0
1 	1.88366804157438 	0 	1.43770585975274 	-0.0065330648683742 	0
1 	1.89098144567491 	3.46944695195361e-18 	1.43522100543109 	-0.00647752230897298 	0
1 	1.89803640592159 	6.93889390390723e-18 	1.43233728399496 	-0.00642298621752183 	0
1 	1.90484205530156 	6.93889390390723e-18 	1.4290089443946 	-0.00636836947858003 	0
1 	1.91140720405699 	6.93889390390723e-18 	1.42517902450313 	-0.00631241485682383 	0
1 	1.91774035109036 	1.38777878078145e-17 	1.42077651008279 	-0.00625366042458327 	0
1 	1.92384969496671 	2.08166817117217e-17 	1.41571272012992 	-0.00619040020447835 	0
1 	1.92974314452706 	2.08166817117217e-17 	1.40987676216229 	-0.00612064130831159 	0
1 	1.93542832912681 	2.08166817117217e-17 	1.4031299262964 	-0.00604206096062892 	0
1 	1.9409126085123 	2.42861286636753e-17 	1.39529897410136 	-0.00595197044607453 	0
1 	1.94620308234836 	2.77555756156289e-17 	1.38616846900242 	-0.0058472977041453 	0
1 	1.95130659940914 	2.77555756156289e-17 	1.37547263194063 	-0.00572460349255368 	0
1 	1.95622976644425 	2.77555756156289e-17 	1.36288769881462 	-0.00558015581935061 	0
1 	1.96097895673143 	2.77555756156289e-17 	1.34802631202567 	-0.00541015131488944 	0
1 	1.96556031832711 	2.77555756156289e-17 	1.33043433294033 	-0.00521126314049189 	0
1 	1.96997978202542 	2.77555756156289e-17 	1.3095049744808 	-0.0049794111243679 	0
1 	1.97424306903576 	2.77555756156289e-17 	1.28433231007452 	-0.00470808656300968 	0
1 	1.9783556983893 	2.77555756156289e-17 	1.25385710975464 	-0.00439110594762011 	0
1 	1.98232299408359 	3.12250225675825e-17 	1.21723925642254 	-0.00402794288532014 	0
1 	1.9861500919747 	4.16333634234434e-17 	1.17392979543612 	-0.00362594653219654 	0
1 	1.9898419464259 	4.5102810375397e-17 	1.12347455139035 	-0.00319740676489688 	0
1 	1.99340333672127 	4.5102810375397e-17 	1.06540493170894 	-0.00275618485361169 	0
1 	1.99683887325274 	4.85722573273506e-17 	0.99925352261808 	-0.0023166142722992 	0
1 	2.00015300348845 	5.20417042793042e-17 	0.924560205398287 	-0.00189255878906978 	0
1 	2.00335001773023 	5.55111512312578e-17 	0.840857941856383 	-0.00149671265598216 	0
1 	2.00643405466757 	5.55111512312578e-17 	0.74761875615162 	-0.00113908603927834 	0
1 	2.00940910673543 	5.89805981832114e-17 	0.644396119386785 	-0.000825377232191438 	0
1 	2.01227902528253 	6.24500451351651e-17 	0.531905873401156 	-0.000558622185261224 	0
1 	2.01504752555718 	6.24500451351651e-17 	0.413199195806973 	-0.000341933244005232 	0
1 	2.01771819151684 	6.24500451351651e-17 	0.292686370711548 	-0.000178719786406955 	0
1 	2.02029448046775 	6.24500451351651e-17 	0.173785326833511 	-7.07199838081682e-05 	0
1 	2.02277972754048 	6.26675179734096e-17 	0.0575175495148859 	-1.52763298931925e-05 	0
