0.999999999999999 	0.45934591278652 	-7.63278329429795e-17 	-0.0299534017558704 	0.0173005050496441 	1.96885120289994 	0.000615033662620689 	0
0.999999999999999 	0.482961456847958 	-6.76542155630955e-17 	-0.0302358633206781 	0.0176609844257026 	1.93081571962587 	0.000668698993139841 	0
0.999999999999999 	0.507340596788655 	-7.28583859910259e-17 	-0.0304975310592294 	0.0180156154308037 	1.8996928433366 	0.000737849355844946 	0
0.999999999999999 	0.532503907976318 	-7.63278329429795e-17 	-0.0307337172114071 	0.0183732567505681 	1.87724920812366 	0.000825089344324546 	0
0.999999999999999 	0.558472187253039 	-7.41594285980085e-17 	-0.0309403526705669 	0.0187474567027348 	1.86669415699974 	0.000934681552738663 	0
0.999999999999999 	0.5852664235111 	-7.58941520739853e-17 	-0.0311140015845968 	0.019159153668648 	1.87380581728276 	0.00107464206417734 	0
0.999999999999999 	0.612907764628182 	-7.97972798949331e-17 	-0.0311779632679573 	0.019689879848444 	1.91530766325811 	0.00128233680652304 	0
0.999999999999999 	0.641417480463068 	-8.67361737988404e-17 	-0.0311433940378688 	0.0203952211342587 	2.0185768374 	0.00159629955700826 	0
0.999999999999999 	0.670816921592327 	-8.84708972748172e-17 	-0.0310094031279496 	0.0213482915448576 	2.20583998365841 	0.00207912822169906 	0
0.999999999999999 	0.701127473446676 	-8.15320033709099e-17 	-0.0307445075255659 	0.0226761336623334 	2.47689560685504 	0.00286340166900283 	0
0.999999999999999 	0.732370505482658 	-6.67868538251071e-17 	-0.0303177783949177 	0.0246378465333622 	2.85886609985258 	0.00419532535086124 	0
0.999999999999999 	0.7530382470053 	-5.8113236445223e-17 	-0.029954257679312 	0.0263712083706851 	3.18129381401652 	0.00548758806243675 	0
0.999999999999999 	0.769733793157991 	-5.72458747072346e-17 	-0.0296060943609414 	0.0281614805300495 	3.49818013057857 	0.00695005664845655 	0
0.999999999999999 	0.798919143604205 	-5.20417042793042e-17 	-0.0289133936533463 	0.0321009015530227 	4.14948110889631 	0.0105358959332861 	0
0.999999999999999 	0.833973273249739 	-4.5102810375397e-17 	-0.0279282251060792 	0.0387132686730842 	5.11631382002606 	0.0176832513208299 	0
0.999999999999999 	0.869940495526082 	-3.98986399474666e-17 	-0.0267553626313534 	0.047910106084313 	6.26908552492515 	0.0300643725805393 	0
0.999999999999999 	0.90683205719743 	-3.29597460435593e-17 	-0.0253515384535415 	0.0595705495237274 	7.52827114412669 	0.0501976513398245 	0
0.999999999999999 	0.944658471732194 	-2.08166817117217e-17 	-0.0236033594675034 	0.0728512961070211 	8.80352596783472 	0.0812763555628939 	0
0.999999999999999 	0.983429450781787 	-1.38777878078145e-17 	-0.0212558141233788 	0.0849792765484836 	9.89683320157164 	0.117609386325827 	0
0.999999999999999 	1.02315383329415 	-8.67361737988404e-18 	-0.018236044294984 	0.0933411186966644 	10.5435738952569 	0.145451341228314 	0
0.999999999999999 	1.05553668410567 	-3.46944695195361e-18 	-0.0154778336554709 	0.096358963772671 	10.5690826665852 	0.151295840780546 	0
0.999999999999999 	1.07619557829799 	-5.20417042793042e-18 	-0.0136681725948551 	0.0966711568892523 	10.3411672704757 	0.146127628847186 	0
0.999999999999999 	1.10579352755353 	-3.46944695195361e-18 	-0.0111460530879661 	0.0952216509143915 	9.66536288750711 	0.127193226368324 	0
0.999999999999999 	1.14866974742099 	-1.04083408558608e-17 	-0.00771061463182143 	0.0910283569496578 	8.2121880805713 	0.0879781932404897 	0
0.999999999999999 	1.19241815352635 	-1.55040910665427e-17 	-0.00460319655663618 	0.0862759841180934 	6.55067765327882 	0.0506655303461315 	0
1 	1.23704043473638 	-1.55040910665427e-17 	-0.0018819996895439 	0.0825072147299376 	5.12609555387834 	0.0273562831242672 	0
1 	1.28253762191881 	-1.73472347597681e-17 	0.000508185726418452 	0.079711756394375 	4.04723228358571 	0.0165228149613797 	0
1 	1.32891009221053 	-1.77809156287623e-17 	0.00284364142087213 	0.0771906406346477 	3.32430203216455 	0.0115097433748394 	0
1 	1.36302484712642 	-2.12503625807159e-17 	0.00456888257136848 	0.0753491813692418 	2.98802504997441 	0.009511664255788 	0
1 	1.38686726982032 	-2.42861286636753e-17 	0.0057660681327045 	0.0741148536100125 	2.83649864116471 	0.00864892954474775 	0
1 	1.41220272459524 	-2.77555756156289e-17 	0.00738208281488097 	0.0723872743327085 	2.68397660589645 	0.00775531081370209 	0
1 	1.43617694926586 	-2.77555756156289e-17 	0.00893224941519929 	0.0705207820611855 	2.5700680768105 	0.00702452686713558 	0
1 	1.45930396367274 	-2.42861286636753e-17 	0.0103013577081965 	0.0687495309380351 	2.48791344074479 	0.00643933433560922 	0
1 	1.48161370685419 	-2.08166817117217e-17 	0.0116526499277373 	0.0669325569854839 	2.41908107717878 	0.00588771333126777 	0
1 	1.50313505985141 	-2.08166817117217e-17 	0.0129621159516232 	0.0650871373678831 	2.35967283433035 	0.0053550364924501 	0
1 	1.52389588309638 	-1.38777878078145e-17 	0.0142204809031715 	0.0632301248722438 	2.30749918979836 	0.00484261770475481 	0
1 	1.54392305247858 	-6.93889390390723e-18 	0.0154247022373697 	0.0613764878918939 	2.26136950454182 	0.00435412331460512 	0
1 	1.56324249413704 	-6.93889390390723e-18 	0.0165733533467915 	0.0595387122305928 	2.22066178443561 	0.00389329699676074 	0
1 	1.58187921802306 	-6.93889390390723e-18 	0.0176660036286366 	0.0577267154370863 	2.18506535825145 	0.00346287810677975 	0
1 	1.59985735027679 	-6.93889390390723e-18 	0.0187030977641644 	0.0559480403719547 	2.1544319259919 	0.00306429131801184 	0
1 	1.61720016445966 	-3.46944695195361e-18 	0.0196857028866009 	0.0542081756233402 	2.12869367804052 	0.00269775417552252 	0
1 	1.63393011168312 	0 	0.020615286674908 	0.0525109097148058 	2.10782172294317 	0.00236255368386326 	0
1 	1.65006884967273 	0 	0.0214935706757044 	0.0508586679472417 	2.09180776148484 	0.00205734952360433 	0
1 	1.66563727080512 	6.93889390390723e-18 	0.0223224345086999 	0.0492528081548433 	2.08065848065768 	0.00178043902382833 	0
1 	1.68065552915415 	1.38777878078145e-17 	0.0231038505247534 	0.0476938680790808 	2.07439645079483 	0.00152996280423868 	0
1 	1.69514306658136 	1.38777878078145e-17 	0.0238398381620679 	0.0461817658850047 	2.07306405326937 	0.00130405174156464 	0
1 	1.70911863790442 	1.38777878078145e-17 	0.0245324314757348 	0.0447159593716272 	2.07672864534432 	0.00110092498290263 	0
1 	1.72260033517611 	1.73472347597681e-17 	0.0251836554745066 	0.0432955706935538 	2.08548815458835 	0.000918950995552764 	0
1 	1.73560561110537 	2.08166817117217e-17 	0.0257955084417758 	0.0419194832454089 	2.09947685045845 	0.000756682706825163 	0
1 	1.74815130165068 	2.08166817117217e-17 	0.0263699485048469 	0.0405864165658814 	2.11887134177724 	0.000612875706660452 	0
1 	1.76025364781503 	2.08166817117217e-17 	0.0269088834399603 	0.0392949841388688 	2.14389700940981 	0.000486496306029927 	0
1 	1.77192831667064 	2.42861286636753e-17 	0.0274141629657825 	0.0380437377195688 	2.17483517326002 	0.000376724405533346 	0
1 	1.78319042164083 	3.12250225675825e-17 	0.0278875728440428 	0.0368312012358332 	2.21203135444685 	0.000282954733094358 	0
1 	1.79405454206499 	3.12250225675825e-17 	0.0283308305152803 	0.0356558971781017 	2.25590505491935 	0.000204799046040321 	0
1 	1.80453474207227 	2.77555756156289e-17 	0.0287455822432333 	0.0345163672697993 	2.3069615544773 	0.000142091293594388 	0
1 	1.81464458878829 	2.42861286636753e-17 	0.0291334015246382 	0.033411188558958 	2.36580633076961 	9.4897485499304e-05 	0
1 	1.8243971698984 	2.08166817117217e-17 	0.0294957884479914 	0.032338986071523 	2.43316285496066 	6.35320140877295e-05 	0
1 	1.83380511059041 	2.08166817117217e-17 	0.0298341697156045 	0.0312984429051784 	2.50989472018511 	4.85823993626206e-05 	0
1 	1.84288058989839 	2.42861286636753e-17 	0.0301498991660864 	0.0302883277858111 	2.59703330955815 	5.09449237609073e-05 	0
1 	1.8516353564691 	2.77555756156289e-17 	0.0304442588820257 	0.0293075071496623 	2.69581259095451 	7.1874343023117e-05 	0
1 	1.86008074377113 	2.77555756156289e-17 	0.0307184608177162 	0.0283549200897324 	2.80771322280278 	0.00011305199391191 	0
1 	1.8682276847667 	2.08166817117217e-17 	0.0309736484593181 	0.0274295869217416 	2.9345188397696 	0.000176678328007972 	0
1 	1.8760867260648 	1.04083408558608e-17 	0.0312108981193599 	0.0265306390277627 	3.078388284815 	0.00026559808146196 	0
1 	1.88366804157438 	3.46944695195361e-18 	0.0314312199704116 	0.0256573473762154 	3.24194890278647 	0.000383469328541671 	0
1 	1.89098144567491 	0 	0.0316355592968797 	0.0248091770727038 	3.42841779698597 	0.000534992485895087 	0
1 	1.89803640592158 	3.46944695195361e-18 	0.0318247983087974 	0.02398577308859 	3.64176074250381 	0.000726221255246203 	0
1 	1.90484205530155 	6.93889390390723e-18 	0.0319997574764249 	0.0231869484299116 	3.88690234282711 	0.000964987137753114 	0
1 	1.91140720405698 	3.46944695195361e-18 	0.0321611956408529 	0.0224127638619345 	4.17000561570061 	0.00126148171678188 	0
1 	1.91774035109036 	0 	0.0323098099594866 	0.0216636010932267 	4.49884599016679 	0.00162905557699924 	0
1 	1.9238496949667 	0 	0.0324462363142638 	0.0209402330889745 	4.88331461119251 	0.00208531844785121 	0
1 	1.92974314452705 	0 	0.0325710494086634 	0.0202439072979722 	5.33609871165651 	0.00265365267307563 	0
1 	1.9354283291268 	3.46944695195361e-18 	0.0326847625293884 	0.0195764583346866 	5.87360302391081 	0.00336528323892594 	0
1 	1.9409126085123 	1.04083408558608e-17 	0.0327878281164232 	0.0189404396162658 	6.51719552471903 	0.00426207381307937 	0
1 	1.94620308234835 	1.04083408558608e-17 	0.0328806396689662 	0.0183392580957769 	7.29488095130696 	0.00540022124744985 	0
1 	1.95130659940914 	6.93889390390723e-18 	0.0329635358306995 	0.0177772853157197 	8.2435191393936 	0.00685495568434793 	0
1 	1.95622976644424 	3.46944695195361e-18 	0.0330368088515938 	0.0172598856303542 	9.41169795019788 	0.0087261444885745 	0
1 	1.96097895673142 	0 	0.0331007189854783 	0.0167932531858532 	10.8633192907636 	0.0111442367456734 	0
1 	1.96556031832711 	0 	0.0331555067107678 	0.0163838858851128 	12.6818363051398 	0.0142751578375449 	0
1 	1.96997978202541 	0 	0.033201385108998 	0.016037465391165 	14.9748946444547 	0.0183216109803391 	0
1 	1.97424306903576 	0 	0.0332385772484761 	0.0157569122687794 	17.8789916304911 	0.0235403763436632 	0
1 	1.9783556983893 	0 	0.0332677692770669 	0.0155389418745921 	21.5660780246956 	0.0303187312429154 	0
1 	1.98232299408358 	0 	0.0332902823428695 	0.0153666858100782 	26.2609554014845 	0.0390251038413511 	0
1 	1.9861500919747 	3.46944695195361e-18 	0.0333065438518393 	0.0152012872932987 	32.2518911805106 	0.0495885991427186 	0
1 	1.98984194642589 	6.93889390390723e-18 	0.0333158545554539 	0.0149832403406401 	39.8198471426433 	0.0621373941380309 	0
1 	1.99340333672126 	6.93889390390723e-18 	0.0333183078178153 	0.014626782623826 	49.168039668585 	0.0760027050010768 	0
1 	1.99683887325273 	6.93889390390723e-18 	0.0333151678120362 	0.0140247877914407 	60.5043619990781 	0.0899143689282946 	0
1 	2.00015300348845 	6.93889390390723e-18 	0.0333080066384709 	0.01306023997269 	74.1926829973721 	0.101976082170937 	0
1 	2.00335001773022 	6.93889390390723e-18 	0.0332983303629213 	0.0116231018119706 	91.0014433339674 	0.109271881860281 	0
1 	2.00643405466757 	6.93889390390723e-18 	0.0332875690247142 	0.00964528366185885 	112.721251715257 	0.107945399621964 	0
1 	2.00940910673542 	6.93889390390723e-18 	0.0332771271028596 	0.00715861510669332 	143.991621821786 	0.0922886513313695 	0
1 	2.01227902528252 	6.93889390390723e-18 	0.0332683855236562 	0.00443940721663702 	198.397669169258 	0.0595685623113841 	0
1 	2.01504752555717 	3.46944695195361e-18 	0.0332619863020554 	0.00212503438179282 	322.580281782184 	0.0256751849110925 	0
1 	2.01771819151684 	0 	0.0332571515412188 	0.000721447894406156 	724.6966053158 	0.00654789758309442 	0
1 	2.02029448046774 	0 	0.0332526759472758 	0.000154054651641783 	3061.71588305306 	0.000832543352638114 	0
1 	2.02277972754047 	0 	0.0332491698921124 	1.61124785798712e-05 	7940.81913308113 	3.71774522096997e-05 	5.0186052151962e-38
