/*--------------------------------*- C++ -*----------------------------------*\
  =========                 |
  \\      /  F ield         | OpenFOAM: The Open Source CFD Toolbox
   \\    /   O peration     | Website:  https://openfoam.org
    \\  /    A nd           | Version:  7
     \\/     M anipulation  |
\*---------------------------------------------------------------------------*/
FoamFile
{
    version     2.0;
    format      ascii;
    class       volScalarField;
    location    "0";
    object      Cx;
}
// * * * * * * * * * * * * * * * * * * * * * * * * * * * * * * * * * * * * * //

dimensions      [0 1 0 0 0 0 0];

internalField   nonuniform List<scalar> 
15600
(
0.0400330677499857
0.120107357913487
0.199933300416749
0.278266843916536
0.353016182699265
0.423020239000242
0.489004067888648
0.552243562211276
0.613839664532019
0.67472993907003
0.73573231494648
0.797303692837929
0.859467490738087
0.922116917427747
0.985138532042448
1.04841488742828
1.1118858330349
1.17570495393676
1.24021938961014
1.30582124312469
1.37292535846081
1.44194822166373
1.51316444017363
1.58660660866345
1.66213211748951
1.73947814572932
1.81824694186021
1.89790391487318
1.977916727475
2.05798286725087
2.13804900275084
2.21811513825081
2.29818127375078
2.37824740925075
2.45831354475072
2.53837968025069
2.61844581575067
2.69851195125064
2.77857808675061
2.85864422225058
2.93871035775055
3.01877649325052
3.0988426287505
3.17890876425047
3.25897489975044
3.33904103525041
3.41910717075038
3.49917330625036
3.57923944175032
3.6593055772503
3.73937171275027
3.81943784825024
3.89950398375021
3.97957011925019
4.05963625475016
4.13970239025013
4.2197685257501
4.29983466125008
4.37990079675005
4.45996693225001
4.54003306774999
4.62009920324996
4.70016533874993
4.7802314742499
4.86029760974987
4.94036374524984
5.02042988074981
5.10049601624979
5.18056215174976
5.26062828724973
5.3406944227497
5.42076055824967
5.50082669374964
5.58089282924961
5.66095896474959
5.74102510024956
5.82109123574953
5.9011573712495
5.98122350674947
6.06128964224944
6.14135577774941
6.22142191324938
6.30148804874936
6.38155418424933
6.4616203197493
6.54168645524927
6.62175259074924
6.70181872624921
6.78188486174919
6.86195099724916
6.94201713274913
7.02208327252499
7.10209608512682
7.18175305813979
7.26052185427068
7.33786788251049
7.41339339133655
7.48683555982637
7.55805177833628
7.62707464153918
7.6941787568753
7.75978061038984
7.82429504606324
7.8881141669651
7.95158511257172
8.01486146795755
8.07788308257224
8.14053250926191
8.20269630716207
8.26426768505352
8.32527006092997
8.38616033546799
8.44775643778872
8.51099593211135
8.57697976099976
8.64698381730073
8.72173315608348
8.80006669958325
8.87989264208651
8.95996693225002
0.0400229593780247
0.12007712299335
0.199884299112031
0.278205210171478
0.352956165065934
0.422980435701253
0.489000290137842
0.55228665212768
0.6139361309378
0.674882572105764
0.73594065396378
0.797565481290548
0.859780385614803
0.922478998538187
0.985548329054242
1.04887139652561
1.1123882848193
1.17625195497491
1.24080815940316
1.30644743556149
1.37358296998078
1.44262958401175
1.51386079408477
1.58730906802872
1.6628323639088
1.74016890900161
1.81892253906266
1.89856079841112
1.97855355490856
2.05859947794049
2.13864539669654
2.21869131545258
2.29873723420864
2.37878315296469
2.45882907172074
2.53887499047678
2.61892090923283
2.69896682798888
2.77901274674493
2.85905866550098
2.93910458425703
3.01915050301308
3.09919642176913
3.17924234052518
3.25928825928123
3.33933417803728
3.41938009679333
3.49942601554938
3.57947193430543
3.65951785306147
3.73956377181752
3.81960969057358
3.89965560932963
3.97970152808568
4.05974744684173
4.13979336559778
4.21983928435383
4.29988520310988
4.37993112186593
4.45997704062197
4.54002295937803
4.62006887813408
4.70011479689013
4.78016071564617
4.86020663440222
4.94025255315828
5.02029847191432
5.10034439067037
5.18039030942642
5.26043622818247
5.34048214693852
5.42052806569457
5.50057398445062
5.58061990320667
5.66066582196272
5.74071174071877
5.82075765947482
5.90080357823087
5.98084949698692
6.06089541574297
6.14094133449901
6.22098725325506
6.30103317201111
6.38107909076716
6.46112500952321
6.54117092827927
6.62121684703531
6.70126276579136
6.78130868454741
6.86135460330346
6.94140052205951
7.02144644509143
7.10143920158888
7.18107746093734
7.25983109099839
7.3371676360912
7.41269093197128
7.48613920591523
7.55737041598824
7.62641703001922
7.69355256443849
7.75919184059684
7.82374804502509
7.88761171518069
7.95112860347439
8.01445167094575
8.07752100146182
8.14021961438519
8.20243451870946
8.26405934603623
8.32511742789424
8.3860638690622
8.44771334787231
8.51099970986217
8.57701956429874
8.64704383493407
8.72179478982851
8.80011570088797
8.87992287700665
8.95997704062198
0.0400124807073867
0.120045780481147
0.199833502747404
0.278141318601015
0.352893948822968
0.422939174319773
0.488996374001213
0.552331320501247
0.614036131085581
0.675040796408784
0.736156624930646
0.797836859721139
0.860104742665503
0.922854343673665
0.985973138076489
1.04934462884335
1.11290914284782
1.17681899423742
1.24141849754368
1.30709656725627
1.37426467173689
1.44333590665714
1.51458265747086
1.58803726051899
1.6635582623755
1.74088497691731
1.81962288532707
1.8992417454766
1.97921371115878
2.0592386768494
2.13926363826418
2.21928859967895
2.29931356109373
2.3793385225085
2.45936348392327
2.53938844533804
2.61941340675282
2.69943836816759
2.77946332958236
2.85948829099714
2.93951325241191
3.01953821382668
3.09956317524146
3.17958813665623
3.25961309807101
3.33963805948578
3.41966302090056
3.49968798231533
3.5797129437301
3.65973790514487
3.73976286655965
3.81978782797442
3.8998127893892
3.97983775080397
4.05986271221875
4.13988767363352
4.21991263504829
4.29993759646306
4.37996255787784
4.45998751929262
4.54001248070739
4.62003744212216
4.70006240353694
4.78008736495171
4.86011232636648
4.94013728778126
5.02016224919603
5.1001872106108
5.18021217202557
5.26023713344035
5.34026209485512
5.4202870562699
5.50031201768467
5.58033697909944
5.66036194051422
5.74038690192899
5.82041186334376
5.90043682475854
5.98046178617331
6.06048674758808
6.14051170900286
6.22053667041763
6.3005616318324
6.38058659324718
6.46061155466195
6.54063651607673
6.6206614774915
6.70068643890627
6.78071140032105
6.86073636173582
6.94076132315059
7.02078628884122
7.1007582545234
7.18037711467293
7.25911502308268
7.3364417376245
7.41196273948101
7.48541734252913
7.55666409334285
7.6257353282631
7.69290343274373
7.75858150245632
7.82318100576257
7.88709085715218
7.95065537115664
8.01402686192352
8.07714565632632
8.1398952573345
8.20216314027886
8.26384337506935
8.32495920359121
8.38596386891442
8.44766867949875
8.51100362599879
8.57706082568022
8.64710605117704
8.72185868139898
8.8001664972526
8.87995421951885
8.95998751929262
0.0400016181729913
0.120013289802864
0.199780845564604
0.278075086494324
0.352829453429739
0.422896401444091
0.488992314409579
0.552377625151705
0.614139794419106
0.675204816794357
0.736380507419119
0.798118179431417
0.860440981777219
0.923243438729403
0.986413509039098
1.04983519699876
1.11344908139242
1.17740680578129
1.24205119414234
1.30776947854087
1.37497134622508
1.44406810396862
1.51533096481809
1.58879212881259
1.664310752597
1.74162727645673
1.82034888728088
1.89994763758409
1.97989805082572
2.05990129144753
2.13990452779351
2.2199077641395
2.29991100048548
2.37991423683146
2.45991747317744
2.53992070952342
2.61992394586941
2.69992718221539
2.77993041856137
2.85993365490735
2.93993689125334
3.01994012759932
3.0999433639453
3.17994660029128
3.25994983663727
3.33995307298325
3.41995630932923
3.49995954567521
3.57996278202119
3.65996601836718
3.73996925471316
3.81997249105915
3.89997572740513
3.97997896375111
4.0599822000971
4.13998543644308
4.21998867278906
4.29999190913504
4.37999514548103
4.45999838182701
4.54000161817299
4.62000485451898
4.70000809086496
4.78001132721094
4.86001456355692
4.9400177999029
5.02002103624889
5.10002427259487
5.18002750894085
5.26003074528684
5.34003398163282
5.4200372179788
5.50004045432478
5.58004369067076
5.66004692701675
5.74005016336273
5.82005339970871
5.9000566360547
5.98005987240068
6.06006310874666
6.14006634509264
6.22006958143862
6.30007281778461
6.38007605413059
6.46007929047657
6.54008252682256
6.62008576316854
6.70008899951452
6.7800922358605
6.86009547220649
6.94009870855247
7.02010194917428
7.10005236241591
7.17965111271912
7.25837272354326
7.33568924740299
7.4112078711874
7.48466903518192
7.55593189603137
7.62502865377492
7.69223052145912
7.75794880585766
7.82259319421872
7.88655091860758
7.95016480300126
8.01358649096088
8.0767565612706
8.13955901822277
8.20188182056859
8.26361949258088
8.32479518320564
8.38586020558089
8.44762237484831
8.51100768559042
8.57710359855592
8.64717054657024
8.72192491350568
8.8002191544354
8.87998671019714
8.95999838182701
0.0399903577128326
0.119979608897829
0.199726259396579
0.278006428110651
0.352762595395257
0.422852061705996
0.488988106108107
0.552425626016591
0.614247255123501
0.675374845580064
0.736612591242182
0.798409804591788
0.860789538218252
0.923646787400033
0.986870012017295
1.05034373605077
1.11400879942541
1.17801615055397
1.24270706825384
1.30846704053093
1.37570390826968
1.44482712381093
1.51610668484552
1.58957465012082
1.66509080870476
1.74239676855798
1.82110148476371
1.90067938854025
1.98060745981574
2.06058817951721
2.14056889494287
2.22054961036854
2.3005303257942
2.38051104121987
2.46049175664553
2.5404724720712
2.62045318749686
2.70043390292253
2.78041461834819
2.86039533377386
2.94037604919952
3.02035676462519
3.10033748005085
3.18031819547652
3.26029891090219
3.34027962632785
3.42026034175352
3.50024105717918
3.58022177260485
3.66020248803051
3.74018320345618
3.82016391888184
3.90014463430751
3.98012534973318
4.06010606515884
4.14008678058451
4.22006749601017
4.30004821143584
4.3800289268615
4.46000964228717
4.53999035771283
4.6199710731385
4.69995178856417
4.77993250398983
4.8599132194155
4.93989393484116
5.01987465026683
5.09985536569249
5.17983608111816
5.25981679654382
5.33979751196949
5.41977822739515
5.49975894282082
5.57973965824648
5.65972037367215
5.73970108909781
5.81968180452348
5.89966251994914
5.97964323537481
6.05962395080048
6.13960466622614
6.2195853816518
6.29956609707747
6.37954681250313
6.4595275279288
6.53950824335446
6.61948895878013
6.69946967420579
6.77945038963146
6.85943110505712
6.93941182048279
7.01939254018426
7.09932061145975
7.17889851523629
7.25760323144201
7.33490919129522
7.41042534987918
7.48389331515448
7.55517287618908
7.62429609173032
7.69153295946907
7.75729293174616
7.82198384944604
7.88599120057459
7.94965626394921
8.01312998798271
8.07635321259995
8.13921046178176
8.20159019540821
8.26338740875782
8.32462515441995
8.3857527448765
8.4475743739834
8.51101189389188
8.577147938294
8.64723740460475
8.72199357188934
8.80027374060343
8.88002039110217
8.96000964228717
0.0399786847497762
0.119944694164778
0.199669673579044
0.277935254568294
0.352693288170071
0.422806097709162
0.488983743649471
0.552475385228859
0.61435865229891
0.675551102860616
0.736853176828842
0.79871211271273
0.861150863201586
0.924064911831624
0.987343237969447
1.05087090432224
1.11458902152432
1.17864781737853
1.24338696893714
1.30919015625356
1.37646330620773
1.44561394877182
1.51691082175922
1.59038583745294
1.66589944051535
1.74319444936089
1.82188165204399
1.90143794562695
1.98134285648831
2.06130023026364
2.1412575997632
2.22121496926275
2.3011723387623
2.38112970826185
2.46108707776141
2.54104444726096
2.62100181676051
2.70095918626006
2.78091655575962
2.86087392525917
2.94083129475872
3.02078866425827
3.10074603375783
3.18070340325738
3.26066077275693
3.34061814225649
3.42057551175604
3.50053288125559
3.58049025075514
3.6604476202547
3.74040498975425
3.8203623592538
3.90031972875336
3.98027709825291
4.06023446775246
4.14019183725201
4.22014920675157
4.30010657625112
4.38006394575067
4.46002131525023
4.53997868474977
4.61993605424933
4.69989342374889
4.77985079324844
4.85980816274799
4.93976553224754
5.0197229017471
5.09968027124665
5.1796376407462
5.25959501024575
5.3395523797453
5.41950974924486
5.49946711874441
5.57942448824396
5.65938185774351
5.73933922724307
5.81929659674262
5.89925396624217
5.97921133574172
6.05916870524128
6.13912607474083
6.21908344424038
6.29904081373993
6.37899818323949
6.45895555273904
6.53891292223859
6.61887029173814
6.6988276612377
6.77878503073725
6.8587424002368
6.93869976973635
7.01865714351168
7.09856205437304
7.17811834795601
7.25680555063911
7.33410055948465
7.40961416254705
7.48308917824078
7.55438605122818
7.62353669379227
7.69080984374644
7.75661303106285
7.82135218262147
7.88541097847569
7.94912909567775
8.01265676203055
8.07593508816837
8.13884913679841
8.20128788728727
8.26314682317116
8.32444889713937
8.38564134770109
8.44752461477114
8.51101625635053
8.57719390229084
8.64730671182991
8.72206474543171
8.80033032642095
8.88005530583522
8.96002131525022
0.0399665841726885
0.119908500405015
0.199611014859128
0.277861473729524
0.352621442034265
0.422758449954832
0.488979221386813
0.552526967197261
0.614474130140509
0.675733816792685
0.737102575613003
0.799025495133444
0.861525424468961
0.924498353297573
0.987833799502167
1.05141738425195
1.11519049880984
1.17930262397478
1.24409177635463
1.3099397618164
1.37725052311662
1.44642959743417
1.51774441655221
1.59122674092763
1.66673769483765
1.74402135149657
1.82269039908018
1.90222429082748
1.98210519284487
2.062038365466
2.14197153381138
2.22190470215675
2.30183787050213
2.38177103884751
2.46170420719288
2.54163737553826
2.62157054388364
2.70150371222901
2.78143688057439
2.86137004891977
2.94130321726515
3.02123638561052
3.1011695539559
3.18110272230127
3.26103589064665
3.34096905899203
3.4209022273374
3.50083539568278
3.58076856402816
3.66070173237354
3.74063490071891
3.82056806906429
3.90050123740967
3.98043440575505
4.06036757410043
4.1403007424458
4.22023391079118
4.30016707913656
4.38010024748194
4.46003341582731
4.53996658417269
4.61989975251807
4.69983292086344
4.77976608920882
4.8596992575542
4.93963242589957
5.01956559424495
5.09949876259033
5.1794319309357
5.25936509928108
5.33929826762646
5.41923143597184
5.49916460431721
5.57909777266259
5.65903094100797
5.73896410935334
5.81889727769872
5.8988304460441
5.97876361438948
6.05869678273485
6.13862995108023
6.21856311942561
6.29849628777098
6.37842945611636
6.45836262446174
6.53829579280711
6.61822896115249
6.69816212949787
6.77809529784325
6.85802846618862
6.937961634534
7.01789480715513
7.09777570917252
7.17730960091982
7.25597864850343
7.33326230516235
7.40877325907237
7.48225558344779
7.55357040256582
7.62274947688336
7.6900602381836
7.75590822364537
7.82069737602523
7.88480950119014
7.94858261574805
8.01216620049783
8.07550164670244
8.13847457553103
8.20097450486655
8.262897424387
8.32426618320732
8.38552586985948
8.44747303280275
8.51102077861317
8.57724155004517
8.64737855796574
8.72213852627048
8.80038898514088
8.88009149959498
8.96003341582731
0.0399540403168747
0.11987098076434
0.199550207300466
0.277784990081434
0.352546963981268
0.422709056764826
0.488974533466454
0.552580438689712
0.614593838125117
0.675923223890176
0.737361110436562
0.799350357528372
0.861913706896354
0.924947672899278
0.988342331663282
1.05198388327813
1.11581400991823
1.17998141801782
1.24482240291151
1.31071682761938
1.37806657808679
1.44727512569449
1.51860854835205
1.59209844913231
1.66760665682804
1.74487854542414
1.82352877282819
1.90303944209776
1.98289545576117
2.06280354067064
2.14271162130439
2.22261970193814
2.30252778257189
2.38243586320564
2.46234394383938
2.54225202447313
2.62216010510688
2.70206818574063
2.78197626637438
2.86188434700813
2.94179242764188
3.02170050827563
3.10160858890938
3.18151666954313
3.26142475017688
3.34133283081063
3.42124091144438
3.50114899207813
3.58105707271188
3.66096515334563
3.74087323397938
3.82078131461313
3.90068939524688
3.98059747588063
4.06050555651438
4.14041363714813
4.22032171778188
4.30022979841563
4.38013787904938
4.46004595968313
4.53995404031687
4.61986212095062
4.69977020158437
4.77967828221812
4.85958636285187
4.93949444348562
5.01940252411937
5.09931060475312
5.17921868538687
5.25912676602062
5.33903484665437
5.41894292728812
5.49885100792187
5.57875908855562
5.65866716918937
5.73857524982312
5.81848333045687
5.89839141109062
5.97829949172437
6.05820757235812
6.13811565299187
6.21802373362562
6.29793181425937
6.37783989489312
6.45774797552687
6.53765605616062
6.61756413679436
6.69747221742811
6.77738029806186
6.85728837869561
6.93719645932936
7.01710454423883
7.09696055790224
7.17647122717181
7.25512145457586
7.33239334317195
7.40790155086768
7.48139145164794
7.5527248743055
7.62193342191321
7.6892831723806
7.7551775970885
7.82001858198216
7.88418599008178
7.94801611672186
8.01165766833672
8.07505232710071
8.13808629310365
8.20064964247163
8.26263888956344
8.32407677610981
8.38540616187488
8.44741956131028
8.51102546653356
8.57729094323517
8.64745303601873
8.72221500991857
8.80044979269954
8.88012901923566
8.96004595968313
0.0399410369438013
0.119832086672048
0.199487172184948
0.277705704611968
0.352469757597534
0.422657854201698
0.488969673820302
0.552635868919667
0.614717931204631
0.676119569330352
0.737629115967241
0.799687120432331
0.862316213121591
0.925413452292458
0.988869492763894
1.05257113475427
1.11646036200907
1.18068507823543
1.24557979443697
1.31152235961104
1.37891252754088
1.44815162812987
1.51950433581788
1.59300209053246
1.66850745139511
1.74576714081651
1.82439785859665
1.90388445468411
1.98371466826482
2.06359674642811
2.14347882031572
2.22336089420332
2.30324296809092
2.38312504197852
2.46300711586613
2.54288918975373
2.62277126364133
2.70265333752894
2.78253541141654
2.86241748530414
2.94229955919174
3.02218163307935
3.10206370696695
3.18194578085455
3.26182785474216
3.34170992862976
3.42159200251736
3.50147407640496
3.58135615029257
3.66123822418017
3.74112029806777
3.82100237195537
3.90088444584298
3.98076651973058
4.06064859361819
4.14053066750579
4.22041274139339
4.30029481528099
4.3801768891686
4.4600589630562
4.5399410369438
4.61982311083141
4.69970518471901
4.77958725860661
4.85946933249421
4.93935140638181
5.01923348026942
5.09911555415702
5.17899762804463
5.25887970193222
5.33876177581983
5.41864384970743
5.49852592359503
5.57840799748264
5.65829007137024
5.73817214525784
5.81805421914545
5.89793629303305
5.97781836692065
6.05770044080825
6.13758251469586
6.21746458858346
6.29734666247106
6.37722873635867
6.45711081024627
6.53699288413387
6.61687495802147
6.69675703190908
6.77663910579668
6.85652117968428
6.93640325357188
7.01628533173517
7.09611554531589
7.17560214140335
7.25423285918348
7.33149254860488
7.40699790946754
7.48049566418211
7.55184837187013
7.62108747245911
7.68847764038896
7.75442020556303
7.81931492176457
7.88353963799091
7.94742886524573
8.0111305072361
8.07458654770755
8.13768378687841
8.20031287956767
8.26237088403276
8.32388043066965
8.38528206879537
8.44736413108034
8.5110303261797
8.57734214579829
8.64753024240247
8.72229429538804
8.80051282781505
8.88016791332796
8.9600589630562
0.0399275572200745
0.119791767777972
0.199421827910842
0.277623514682259
0.352389722937663
0.422604775986031
0.488964636157997
0.552693329635704
0.614846570006537
0.676323107271119
0.737906939131767
0.800036219784825
0.862733464194987
0.925896294440092
0.989415965230572
1.05317989889837
1.11713039181047
1.18141451554549
1.2463649314086
1.31235740059067
1.37978946660145
1.44906023941494
1.52043293858852
1.59393883493235
1.66944124465592
1.74668828799682
1.82529878145186
1.90476042248929
1.98456389085965
2.06441900957545
2.1442741240156
2.22412923845575
2.3039843528959
2.38383946733605
2.4636945817762
2.54354969621635
2.6234048106565
2.70325992509664
2.78311503953679
2.86297015397694
2.94282526841709
3.02268038285724
3.10253549729739
3.18239061173754
3.26224572617769
3.34210084061784
3.42195595505799
3.50181106949813
3.58166618393828
3.66152129837843
3.74137641281858
3.82123152725873
3.90108664169888
3.98094175613904
4.06079687057918
4.14065198501933
4.22050709945948
4.30036221389963
4.38021732833978
4.46007244277993
4.53992755722008
4.61978267166023
4.69963778610037
4.77949290054052
4.85934801498067
4.93920312942082
5.01905824386097
5.09891335830112
5.17876847274127
5.25862358718142
5.33847870162156
5.41833381606171
5.49818893050186
5.57804404494201
5.65789915938216
5.73775427382231
5.81760938826246
5.89746450270261
5.97731961714276
6.05717473158291
6.13702984602306
6.2168849604632
6.29674007490335
6.3765951893435
6.45645030378365
6.5363054182238
6.61616053266395
6.6960156471041
6.77587076154424
6.8557258759844
6.93558099042454
7.01543610914034
7.0952395775107
7.17470121854813
7.25331171200317
7.33055875534407
7.40606116506765
7.47956706141149
7.55093976058505
7.62021053339855
7.68764259940933
7.7536350685914
7.81858548445451
7.88286960818953
7.94682010110163
8.01058403476943
8.07410370555991
8.13726653580501
8.19996378021517
8.26209306086823
8.32367689272888
8.38515342999347
8.44730667036429
8.51103536384199
8.57739522401398
8.64761027706234
8.72237648531773
8.80057817208916
8.88020823222203
8.96007244277992
0.039913583695649
0.11974997188792
0.19935408988701
0.277538313893213
0.352306756395075
0.422549753410596
0.488959413958782
0.552752895214373
0.614979921041792
0.676534101179957
0.738194939564879
0.800398107494315
0.863166000253813
0.926396824392919
0.989982456488712
1.0538109637771
1.11782496670192
1.18217067423533
1.2471788302216
1.31322303155834
1.38069853050856
1.45000213579084
1.52139555878365
1.59490989498947
1.67040924544554
1.74764317942758
1.82623270767426
1.90566847948857
1.9854442228985
2.06527139456541
2.14509856195671
2.224925729348
2.3047528967393
2.3845800641306
2.4644072315219
2.5442343989132
2.62406156630449
2.70388873369579
2.78371590108709
2.86354306847839
2.94337023586969
3.02319740326098
3.10302457065228
3.18285173804358
3.26267890543488
3.34250607282618
3.42233324021747
3.50216040760877
3.58198757500007
3.66181474239137
3.74164190978267
3.82146907717396
3.90129624456526
3.98112341195656
4.06095057934786
4.14077774673916
4.22060491413046
4.30043208152176
4.38025924891305
4.46008641630435
4.53991358369565
4.61974075108695
4.69956791847825
4.77939508586954
4.85922225326084
4.93904942065214
5.01887658804344
5.09870375543474
5.17853092282603
5.25835809021733
5.33818525760863
5.41801242499993
5.49783959239123
5.57766675978253
5.65749392717382
5.73732109456512
5.81714826195642
5.89697542934772
5.97680259673901
6.05662976413031
6.13645693152161
6.21628409891291
6.29611126630421
6.3759384336955
6.4557656010868
6.5355927684781
6.6154199358694
6.69524710326069
6.77507427065199
6.85490143804329
6.93472860543459
7.0145557771015
7.09433152051143
7.17376729232573
7.25235682057241
7.32959075455446
7.40509010501052
7.47860444121634
7.54999786420917
7.61930146949143
7.68677696844166
7.75282116977839
7.81782932576467
7.88217503329808
7.9461890362229
8.01001754351129
8.07360317560708
8.13683399974618
8.19960189250569
8.26180506043512
8.32346589882004
8.3850200789582
8.44724710478562
8.51104058604122
8.5774502465894
8.64769324360492
8.72246168610678
8.800645910113
8.88025002811208
8.96008641630435
0.0398990982812392
0.11970664489527
0.199283870423601
0.277449991948211
0.352220750567891
0.42249271525147
0.48895400046307
0.552814642756413
0.61511815692028
0.676752824174887
0.738493490074823
0.800773252023153
0.863614381221449
0.926915690098559
0.990569699878326
1.05446514632591
1.11854498583727
1.18295453318404
1.24802254450462
1.31412037311428
1.3816408960895
1.45097853658776
1.52239344256011
1.59591652778434
1.6714127068819
1.74863305125434
1.82720084626812
1.90660980119764
1.98635680400635
2.0661550048444
2.14595320140688
2.22575139796936
2.30554959453184
2.38534779109431
2.46514598765679
2.54494418421928
2.62474238078175
2.70454057734423
2.78433877390671
2.86413697046919
2.94393516703167
3.02373336359414
3.10353156015662
3.1833297567191
3.26312795328158
3.34292614984406
3.42272434640654
3.50252254296902
3.58232073953149
3.66211893609397
3.74191713265645
3.82171532921893
3.90151352578141
3.98131172234389
4.06110991890637
4.14090811546885
4.22070631203133
4.30050450859381
4.38030270515628
4.46010090171876
4.53989909828124
4.61969729484372
4.6994954914062
4.77929368796867
4.85909188453116
4.93889008109363
5.01868827765611
5.09848647421859
5.17828467078107
5.25808286734355
5.33788106390602
5.4176792604685
5.49747745703098
5.57727565359346
5.65707385015594
5.73687204671842
5.8166702432809
5.89646843984338
5.97626663640585
6.05606483296833
6.13586302953081
6.21566122609329
6.29545942265577
6.37525761921825
6.45505581578073
6.5348540123432
6.61465220890568
6.69445040546816
6.77424860203064
6.85404679859312
6.9338449951556
7.01364319599365
7.09339019880236
7.17279915373188
7.25136694874566
7.32858729311809
7.40408347221566
7.47760655743989
7.54902146341223
7.6183591039105
7.68587962688572
7.75197745549537
7.81704546681596
7.88145501416272
7.94553485367409
8.00943030012168
8.07308430990144
8.13638561877855
8.19922674797685
8.26150650992516
8.32324717582512
8.38488184307971
8.4471853572436
8.51104599953693
8.57750728474853
8.6477792494321
8.72255000805179
8.8007161295764
8.88029335510473
8.96010090171876
0.0398840822249021
0.119661730711521
0.199211078618401
0.277358434510003
0.352131594119901
0.422433587675862
0.488948388663667
0.552878652186548
0.615261456574191
0.676979559377931
0.738802977125846
0.801162138993942
0.864079187532176
0.92745356324023
0.991178455603297
1.05514329340661
1.11929138130871
1.18376710712967
1.24889716648366
1.31505058690952
1.38261778328213
1.45199070580362
1.52342788172496
1.5969600364478
1.67245292798806
1.74965918490584
1.82820445052663
1.90758560619438
1.98730281555563
2.06707098428096
2.14683914873076
2.22660731318057
2.30637547763037
2.38614364208018
2.46591180652998
2.54567997097979
2.62544813542959
2.7052162998794
2.7849844643292
2.86475262877901
2.94452079322881
3.02428895767861
3.10405712212842
3.18382528657822
3.26359345102803
3.34336161547783
3.42312977992764
3.50289794437744
3.58266610882725
3.66243427327705
3.74220243772686
3.82197060217666
3.90173876662646
3.98150693107627
4.06127509552608
4.14104325997588
4.22081142442569
4.30057958887549
4.38034775332529
4.4601159177751
4.5398840822249
4.61965224667471
4.69942041112451
4.77918857557431
4.85895674002412
4.93872490447393
5.01849306892373
5.09826123337353
5.17802939782334
5.25779756227314
5.33756572672295
5.41733389117275
5.49710205562256
5.57687022007236
5.65663838452216
5.73640654897197
5.81617471342178
5.89594287787158
5.97571104232139
6.05547920677119
6.13524737122099
6.2150155356708
6.2947837001206
6.3745518645704
6.45432002902021
6.53408819347001
6.61385635791982
6.69362452236962
6.77339268681942
6.85316085126923
6.93292901571903
7.01269718444437
7.09241439380562
7.17179554947337
7.25034081509416
7.32754707201194
7.4030399635522
7.47657211827503
7.54800929419637
7.61738221671786
7.68494941309048
7.75110283351634
7.81623289287033
7.88070861869129
7.94485670659339
8.0088215443967
8.07254643675977
8.13592081246782
8.19883786100606
8.26119702287416
8.32302044062206
8.3847385434258
8.44712134781346
8.51105161133632
8.57756641232414
8.6478684058801
8.72264156548999
8.8007889213816
8.88033826928848
8.9601159177751
0.0398685160877627
0.119615171193466
0.199135620239324
0.277263523052819
0.352039171636426
0.422372294146537
0.48894257129675
0.552945006356877
0.615410005489568
0.677214600281515
0.739123801338381
0.801565271818112
0.864561020882476
0.928011140106231
0.991809511715483
1.05584628290355
1.1200651193533
1.18460944798284
1.24980382839598
1.31601487714974
1.38363045671427
1.45303995374022
1.52450021540792
1.59804177184799
1.67353125537371
1.75072290875294
1.82924481965434
1.90859715769628
1.98828348219546
2.06802051864647
2.14775755082199
2.22749458299752
2.30723161517305
2.38696864734857
2.4667056795241
2.54644271169962
2.62617974387515
2.70591677605067
2.7856538082262
2.86539084040173
2.94512787257725
3.02486490475277
3.1046019369283
3.18433896910383
3.26407600127935
3.34381303345488
3.4235500656304
3.50328709780593
3.58302412998145
3.66276116215698
3.74249819433251
3.82223522650803
3.90197225868356
3.98170929085909
4.06144632303461
4.14118335521014
4.22092038738566
4.30065741956119
4.38039445173671
4.46013148391224
4.53986851608776
4.61960554826329
4.69934258043881
4.77907961261434
4.85881664478987
4.93855367696539
5.01829070914092
5.09802774131644
5.17776477349197
5.25750180566749
5.33723883784302
5.41697587001854
5.49671290219407
5.5764499343696
5.65618696654512
5.73592399872064
5.81566103089617
5.8953980630717
5.97513509524722
6.05487212742275
6.13460915959828
6.2143461917738
6.29408322394932
6.37382025612485
6.45355728830037
6.5332943204759
6.61303135265143
6.69276838482695
6.77250541700247
6.852242449178
6.93197948135353
7.01171651780453
7.09140284230371
7.17075518034566
7.24927709124706
7.32646874462628
7.40195822815201
7.47549978459208
7.54696004625977
7.61636954328574
7.68398512285025
7.75019617160403
7.81539055201715
7.8799348806467
7.94415371709646
8.00819048828451
8.07198885989376
8.13543897911753
8.19843472818189
8.26087619866161
8.32278539971848
8.38458999451043
8.44705499364312
8.51105742870326
8.57762770585346
8.64796082836357
8.72273647694718
8.80086437976068
8.88038482880654
8.96013148391224
0.0398523797188499
0.119566906068097
0.199057397601943
0.277165134709111
0.351943363474966
0.422308755322783
0.488936540832416
0.553013791154122
0.615563995946304
0.677458251128289
0.739456378007576
0.801983172347498
0.865060505009895
0.928589142491231
0.992463685134818
1.05657502486009
1.12086720160381
1.18548264618849
1.25074370395589
1.31701449215415
1.3846802273407
1.45412763869955
1.52561183179478
1.5991631343391
1.67464908497849
1.75182559982811
1.83032330044893
1.90964576519574
1.98930007343702
2.06900483715015
2.14870959658785
2.22841435602555
2.30811911546325
2.38782387490095
2.46752863433865
2.54723339377635
2.62693815321405
2.70664291265175
2.78634767208945
2.86605243152715