/*--------------------------------*- C++ -*----------------------------------*\
  =========                 |
  \\      /  F ield         | OpenFOAM: The Open Source CFD Toolbox
   \\    /   O peration     | Website:  https://openfoam.org
    \\  /    A nd           | Version:  7
     \\/     M anipulation  |
\*---------------------------------------------------------------------------*/
FoamFile
{
    version     2.0;
    format      ascii;
    class       volScalarField;
    location    "0";
    object      Cz;
}
// * * * * * * * * * * * * * * * * * * * * * * * * * * * * * * * * * * * * * //

dimensions      [0 1 0 0 0 0 0];

internalField   nonuniform List<scalar> 
15600
(
-5.63518249810207e-18
0
8.60191188462889e-18
0
2.40164676404661e-17
2.21783774654429e-17
0
7.5265257111591e-18
-1.13622211433145e-17
1.04011218447469e-17
-5.64221972769636e-18
6.90671365691005e-18
7.99492935824712e-18
-6.05996169914057e-18
0
0
0
0
2.3346821067039e-18
-2.11787246601129e-18
2.19216449711207e-18
0
-3.6070602122916e-18
-3.55166377688676e-18
-1.67004820697494e-18
0
5.01621997813752e-18
3.4054610578146e-18
-3.31648112830977e-18
8.24300776481464e-18
0
1.7064256689276e-18
-3.3164778112475e-18
9.63735266077534e-20
0
-9.63735266077521e-20
0
9.63735266077485e-20
-3.44346931306668e-16
-3.54157926762264e-16
0
0
-1.70642566892746e-18
0
0
-3.47759782644523e-16
-3.51181403245212e-16
0
0
-6.63295562249474e-18
-9.63735266077513e-20
5.02290348017486e-18
3.22010428463988e-18
0
0
0
-1.70642566892764e-18
0
-9.63735266077534e-20
9.63735266077487e-20
-3.49369834786821e-16
-3.50930559671226e-16
-8.24300776481506e-18
-1.70642566892764e-18
9.63735266077493e-20
-3.41285133785521e-18
3.41285133785532e-18
0
4.92652995356732e-18
-8.24300776481506e-18
0
0
3.49273461260228e-16
3.4770572229285e-16
0
-3.41285133785524e-18
9.63735266077509e-20
0
0
3.49273461260234e-16
3.49352355717715e-16
0
0
-3.31647781124752e-18
0
0
9.63735266077525e-20
-9.63735266077506e-20
3.31647781124719e-18
0
-9.63735266077507e-20
3.37907061894461e-16
3.34977536549188e-16
-1.70468275481989e-18
-6.71189256633713e-18
5.01014462092511e-18
8.83501002891863e-18
1.90100104359387e-18
5.68747203367205e-18
-4.10276238337375e-18
2.019807596108e-18
-2.24018093326488e-18
1.96785942459297e-19
0
-2.64279215505043e-18
-5.60053744743254e-18
9.14734285892363e-18
0
1.04595522375683e-17
7.62276841797142e-18
1.2370316832441e-17
-6.76201940602334e-18
7.24188551386668e-18
-1.05041537548996e-17
-1.11436776024981e-17
-5.52926937309854e-18
1.27086186520063e-17
-8.41116942130381e-18
0
0
2.71870861506601e-18
5.81473372118916e-18
0
-8.30070323784721e-18
2.90377081656043e-18
-7.98572160466211e-18
-1.01261882727367e-17
0
0
5.77347292720698e-18
0
-2.43143127637569e-15
-2.33384835763445e-15
-1.15060191325191e-17
0
0
0
0
-2.54228072732006e-18
2.0427196623217e-18
-6.1770936307473e-18
-5.48658292287391e-18
5.41157358147269e-18
1.66731599947062e-18
5.21832292777172e-18
0
6.59143974121591e-18
0
5.23892235576373e-18
0
0
6.5997072511141e-18
0
2.90841534716497e-16
2.9830153691706e-16
1.9275806549343e-19
1.74630584552511e-18
-1.9390639110186e-18
6.34299452632513e-16
6.28785238461583e-16
6.40694918562066e-18
-3.29985362555707e-18
-1.92758065493431e-19
0
1.92758065493424e-19
9.23587439568978e-16
9.15632751862221e-16
-3.299853625557e-18
0
1.74630584552509e-18
0
-4.85340140558818e-18
0
0
0
0
1.7463058455252e-18
1.92758065493432e-19
0
-6.40694918562051e-18
3.28897713699218e-16
3.35565156912428e-16
0
3.299853625557e-18
0
1.92758065493425e-19
-1.74630584552529e-18
-1.9275806549343e-19
0
0
-1.74630584552518e-18
0
-3.37243726795889e-16
-3.39038078180541e-16
-1.9275806549343e-19
-8.15325503114564e-18
6.59970725111426e-18
0
1.92758065493424e-19
-3.40350822355948e-16
-3.4192085949927e-16
5.04615947108202e-18
5.04615947108206e-18
0
-1.74630584552514e-18
-2.97248483902121e-16
-2.93448135511473e-16
1.74630584552525e-18
0
4.85340140558886e-18
-1.92758065493426e-19
-6.16247243899998e-16
-6.12635814782576e-16
4.84792784861767e-18
9.82073683317002e-18
3.22280145392153e-18
0
-1.54612300071504e-18
4.23988208669877e-18
-1.93154104113605e-18
-1.94435703982666e-19
-4.12647487175785e-18
7.04771953103924e-18
3.89804599990977e-19
-5.09704827555276e-18
-1.95182446796381e-19
-3.2672283341223e-18
-1.73733885379238e-18
0
-3.82248129193142e-18
0
1.96870387024228e-19
0
-9.92901274505391e-18
0
0
-5.4067512239754e-18
0
2.90776225092069e-18
0
0
-3.00466625527515e-18
0
2.60800519226956e-18
-7.66458533837742e-18
-7.32255122162002e-18
0
7.01074729649728e-18
0
0
-6.99184212359425e-18
2.40982316807524e-15
2.2021538762299e-15
2.58356529252523e-18
-5.20773591386278e-18
-2.4575880123728e-18
4.65458251412678e-18
0
-1.90870652020086e-19
1.91045168369692e-19
0
-1.38137976072559e-18
0
4.82605699408156e-18
-1.92060576481319e-19
7.97064952052108e-18
1.92468510141319e-19
-4.87249675207333e-18
0
0
4.88263812043018e-18
-1.92758471907168e-19
1.69179886411255e-18
-2.92913530339117e-16
-2.80133858337392e-16
1.92758471907167e-19
0
1.49904039220532e-18
-2.82034730649882e-16
-2.8025319316594e-16
-1.49904039220545e-18
0
-1.92758471907167e-19
-1.92758471907173e-19
-1.92758471907168e-19
-5.65954018635748e-16
-5.59789821432163e-16
0
1.92758471907168e-19
0
-1.69179886411249e-18
0
0
0
0
0
0
1.49904039220524e-18
-1.92758471907167e-19
0
-1.69179886411244e-18
1.49904039220528e-18
1.6917988641125e-18
1.92758471907169e-19
-6.38167851263602e-18
0
6.38167851263599e-18
-1.92758471907171e-19
-1.92758471907167e-19
-3.19083925631784e-18
-1.92758471907174e-19
-1.92758471907165e-19
-1.92758471907171e-19
0
3.19083925631789e-18
-1.92758471907173e-19
-3.19083925631784e-18
-1.92758471907169e-19
-1.92758471907167e-19
-1.92758471907169e-19
1.92758471907163e-19
0
0
-1.92758471907172e-19
0
2.77344851001345e-16
2.84630979514023e-16
0
9.37975929704601e-18
0
-1.92758471907168e-19
2.80343206586096e-16
2.80007903451691e-16
0
-3.22770338219002e-18
8.1610381478075e-18
1.80233795308209e-18
-5.22984152325671e-18
-1.57021087224998e-18
-5.58943778178887e-18
-3.94044546628594e-18
-2.08371283129966e-18
-2.39772454221318e-18
4.65458251412938e-18
1.9503283824768e-19
-1.95180906017621e-19
-5.35196391374397e-18
0
1.800893480671e-18
6.99184212359729e-18
2.11235365727563e-18
-2.29115078263911e-18
-2.47124336598592e-18
9.76158867238904e-18
5.32999010020618e-18
0
5.60585673848251e-18
-2.80391868353651e-18
0
1.92758471907164e-19
0
5.44042260499606e-18
-2.51847975433167e-18
5.03201005862728e-18
0
0
9.59814744016155e-18
-6.57603849570241e-18
1.88561943196462e-19
9.42245347171345e-18
-4.86594106642552e-18
-1.23795501679254e-17
-7.35639726690656e-18
2.86455161584237e-18
0
4.93016261532966e-18
4.67913675226491e-18
4.43968392216597e-18
4.21007321272641e-18
0
-3.78557086250962e-18
0
5.05021179255242e-18
0
-6.19306305296237e-18
-1.92263949178915e-19
-4.52671772224464e-18
-1.92675706063683e-19
1.4464608712794e-18
-1.6392183099901e-18
2.76559048323361e-16
2.7480202706526e-16
0
0
-2.73858888383675e-16
-2.78120217488227e-16
0
-4.72489603653594e-18
1.92758893433803e-19
0
4.72489603653616e-18
0
-1.63921830998993e-18
0
0
6.17135545309209e-18
-6.17135545309249e-18
1.63921830999002e-18
1.63921830999e-18
0
-1.63921830998997e-18
1.92758893433807e-19
0
0
-7.81057376308203e-18
0
-1.63921830999008e-18
-1.63921830998999e-18
-1.63921830999009e-18
0
4.53213714310241e-18
-1.4464594165562e-18
0
0
0
1.63921830999001e-18
1.63921830998992e-18
1.63921830999e-18
0
0
0
1.63921830999002e-18
0
1.63921830998991e-18
1.63921830999002e-18
1.63921830999001e-18
0
0
1.63921830999004e-18
0
1.63921830999e-18
1.63921830999002e-18
0
1.6392183099901e-18
0
0
1.6392183099901e-18
1.63921830998991e-18
1.63921830998992e-18
1.63921830999e-18
0
-4.72490034528185e-18
0
0
-1.93255076908249e-19
1.69370537855992e-18
3.29790742037103e-18
1.4256684692355e-18
-3.79200772347085e-18
1.79716780660557e-18
1.90028782764494e-18
-4.01920248115642e-18
1.92972891500628e-18
-4.6834719324231e-18
-2.56489748320886e-18
0
-2.6744544623834e-18
0
-2.70320890463553e-18
1.03065904412971e-17
0
-2.21549708310387e-18
-2.38911039594819e-18
2.35247073556751e-18
-1.23726206467184e-17
-2.29198275314835e-17
-2.32108161223732e-18
-2.51847975433141e-18
-5.44121380108982e-18
0
4.9814645502375e-18
5.2631293892999e-18
2.43003856368991e-18
9.7090240978652e-18
-9.74012300821255e-18
-9.35456311781937e-18
0
0
4.07988947885072e-18
1.3027048797533e-17
8.31130093115764e-18
1.68147857268129e-18
-1.105548088055e-17
-2.95894921308426e-18
5.41305254657961e-18
4.38005862293241e-18
1.97364975920632e-18
-4.66969480984058e-18
1.90870813994836e-19
-3.85669404525657e-18
-1.92475651428895e-18
2.02472308434581e-18
0
0
-1.92061005459684e-19
-1.60497286486473e-18
4.18238254961759e-18
-1.2000022732315e-18
-3.17699507658576e-18
0
-2.68327633293289e-16
-2.67227126831392e-16
-5.96846579987303e-18
0
2.68134873962637e-16
2.60867306359913e-16
0
0
1.58849611529008e-18
0
0
-8.95269869980934e-18
-1.92759330643924e-19
0
0
-5.9684657998724e-18
0
7.55696191516308e-18
-2.79147356929233e-18
1.58849611529006e-18
0
0
0
0
0
0
0
-4.57272901522608e-18
-5.96846579987289e-18
5.96846579987263e-18
-2.79147356929237e-18
0
-1.58849611529018e-18
-7.36420258451876e-18
4.5727290152263e-18
0
1.58849611529011e-18
2.98423289993637e-18
-1.58849611529018e-18
-1.39573678464609e-18
0
-4.57272901522663e-18
-2.79147356929241e-18
0
1.7812554459341e-18
0
0
0
-1.9275933064393e-19
0
5.96846579987321e-18
8.7599393691651e-18
-1.35254277150344e-17
0
-1.58849611529006e-18
1.58849611529006e-18
-1.78125544593405e-18
1.92759330643932e-19
2.98423289993628e-18
-4.57272901522639e-18
-4.37996968458261e-18
-1.92759302915311e-19
0
0
0
1.25414861027106e-18
0
-6.44371665581495e-18
0
7.32258894969394e-18
1.94434121133031e-19
0
-1.04386643186461e-17
-8.85175708773921e-18
-4.76551938459209e-18
0
5.15750776668968e-18
1.95572715394043e-19
1.40143652435498e-17
-6.49762200500014e-18
-9.09678561909456e-18
6.03384456223615e-18
8.45115906596921e-18
-1.13382697014564e-17
-9.54308501238723e-18
1.44140042791168e-17
2.8171033564865e-18
-4.66631835843934e-18
0
-1.9275933064393e-19
0
0
5.07295698461281e-18
4.87386281175107e-18
2.15909322306533e-18
4.97735926861492e-18
-6.93404881351556e-18
-8.14547719904456e-18
1.70660066626048e-17
-1.90464719919455e-18
5.07620561054853e-18
1.43826676452524e-18
2.47488703480111e-18
-2.67653451902797e-18
-6.8133429105218e-18
-4.59765995668295e-18
4.17394673519858e-18
0
2.06001404884999e-18
-1.76774515049283e-18
-1.48088867120377e-18
-1.58385092674035e-18
-6.22136799088046e-18
-1.63679433829369e-18
-3.17775859313075e-18
-3.3032027830914e-18
-3.07552857264753e-18
3.07310274950813e-18
0
0
1.92759784130337e-19
0
-1.9275978413033e-19
2.88637345166232e-18
0
0
0
2.88637345166255e-18
-1.92759784130328e-19
0
3.85519568260662e-19
5.38722733506462e-18
0
1.92759784130331e-19
-2.69361366753214e-18
-3.85519568260656e-19
2.88637345166236e-18
1.92759784130331e-19
0
0
3.07913323579269e-18
0
-5.77274690332455e-18
3.07913323579267e-18
2.88637345166265e-18
0
0
0
-5.77274690332515e-18
-1.92759784130327e-19
-2.50085388340187e-18
5.7727469033245e-18
0
-1.92759784130329e-19
2.88637345166259e-18
0
3.07913323579263e-18
0
3.07913323579285e-18
-5.57998711919437e-18
-2.88637345166252e-18
0
0
0
-5.77274690332494e-18
2.88637345166264e-18
-8.46636057085709e-18
0
1.92759784130338e-19
0
-5.77274690332484e-18
0
5.77274690332441e-18
0
1.92759784130331e-19
2.88637345166266e-18
-2.88637345166231e-18
0
-1.92759784130332e-19
5.77274690332511e-18
-5.38722733506457e-18
-1.92759756384454e-19
2.88059378766067e-18
1.93052514430838e-19
-1.93256313778062e-19
-1.59027404734831e-18
0
0
-1.77790452646748e-18
-1.94251689785891e-19
9.22759286200498e-18
-4.12748829866826e-18
0
6.45581728980864e-18
0
-2.529717103179e-18
-5.16822689361008e-18
2.46919345322077e-18
4.31480029357522e-18
4.5014988272897e-18
0
2.07212280529827e-18
1.03789340797191e-17
8.94050602984923e-18
4.79723364501838e-18
-1.96178974488247e-19
1.94923924099955e-19
0
0
0
2.3706976161864e-18
0
-4.33308962524216e-18
0
-1.15133135743704e-17
0
0
-1.39269013330226e-17
9.22541899922085e-18
1.32297675269568e-17
1.89276227019105e-19
0
0
2.777579760747e-18
-1.36964984025282e-17
0
-2.20302759893648e-18
0
0
-1.3379516864191e-15
-1.3397009041546e-15
4.58373755850311e-18
-4.55466200617063e-18
0
3.52143199038476e-16
3.54872040512062e-16
2.78884539270843e-18
-2.78626916473465e-18
0
-3.6332366534592e-16
-3.65638928223698e-16
-3.63709185854942e-16
-3.62730028232348e-16
0
0
3.60724452902053e-16
3.66043928648574e-16
1.92760254508899e-19
3.58318000712669e-16
3.65939999444763e-16
2.98473295288513e-18
-1.92760254508902e-19
3.63709185854932e-16
3.63901910787406e-16
-2.59921244386711e-18
-2.79197269837623e-18
3.66501158553315e-16
3.63788908279264e-16
3.63709185854916e-16
-3.49654308620016e-19
-3.66819587259766e-16
6.15167284995257e-16
6.16898471280629e-16
-1.92760254508897e-19
3.63709185854933e-16
3.61285654062853e-16
0
-3.66501158553316e-16
-3.69675588826059e-16
-2.79197269837614e-18
-2.7919726983762e-18
0
0
0
3.69293131251689e-16
3.61478414317348e-16
-5.39118514224312e-18
-6.17573737184644e-16
-6.1728399178967e-16
2.79197269837624e-18
-3.63516425600419e-16
-3.64206384635086e-16
0
0
-2.98473295288509e-18
2.79197269837623e-18
3.66308398298761e-16
3.639019107874e-16
2.79197269837619e-18
-1.927602545089e-19
0
0
5.39118514224311e-18
-6.1478176448626e-16
-6.08265417500467e-16
0
0
-2.7919726983761e-18
0
3.60724452902042e-16
-2.49409068058068e-16
-6.01993421743726e-16
-1.92844738456384e-19
1.93053131280853e-19
-2.57279278848125e-16
-5.08258844707562e-16
-2.53845812121601e-16
1.45433651216323e-18
4.58373755849943e-18
1.94251430187429e-19
-1.94432967877055e-19
1.10102890173441e-17
4.00536164984149e-18
0
1.9298426481464e-18
-2.05586206594808e-18
-1.84049989996689e-15
-1.90477665014781e-15
5.93788614066665e-18
6.43004623775827e-18
-1.13795263855987e-17
7.22948011930627e-18
0
-4.60813461134384e-18
-1.5522977295674e-17
0
-4.51811197931265e-18
0
0
0
2.29101644602305e-18
1.92562501972062e-19
-1.91755766177319e-19
1.9888110729398e-18
-4.74693956408405e-18
1.49653016870942e-17
0
-1.15375999932905e-17
-3.67231419020744e-18
-8.15833958153781e-18
0
-1.8960879492409e-19
-7.81057282509164e-18
-2.12137713623041e-18
6.70173088607899e-18
6.33715598073208e-18
0
-1.90711082526394e-19
-3.66774657444757e-18
1.33463956418669e-15
1.24655361090545e-15
0
-1.91652526225314e-19
0
-3.45063804877465e-16
-3.34929881808243e-16
-1.92470547645723e-19
-2.69544009219062e-18
0
3.58656087764687e-16
3.4546647796286e-16
3.56147940072901e-16
3.50748687254903e-16
0
2.70090843420994e-18
-3.58463327022261e-16
-3.48179365653075e-16
1.92760742419579e-19
-3.5846332702227e-16
-3.51024542829198e-16
-2.70090843420999e-18
1.9276074241958e-19
-3.53254270896265e-16
-3.51121739247397e-16
-5.20905612600063e-18
1.9276074241958e-19
-3.53254270896271e-16
-3.45989622377681e-16
-3.58848848507105e-16
4.72567424002585e-18
3.48927613934972e-16
-5.93258632217452e-16
-5.93170768241046e-16
5.40181686842006e-18
-3.55762418588064e-16
-3.53799393438065e-16
2.70090843420992e-18
3.45537067078475e-16
3.51497527833874e-16
-2.7009084342101e-18
0
-5.59457761083964e-18
8.29548604504966e-18
-1.9276074241958e-19
-3.53447031638686e-16
-3.56693062614715e-16
-1.92760742419578e-19
5.90750484525694e-16
5.90024663294808e-16
0
3.53447031638686e-16
3.51289013552067e-16
-5.20905612600046e-18
2.70090843421004e-18
5.20905612600055e-18
1.92760742419577e-19
-3.45922588563287e-16
-3.51314499989812e-16
0
-1.92760742419581e-19
-1.9276074241958e-19
0
-5.59457761083986e-18
5.90557723783276e-16
5.81315616621796e-16
-2.50814769179046e-18
0
0
-2.8936691766296e-18
-3.53254270896274e-16
2.33128789588703e-16
5.98601262945207e-16
0
-5.39709019406089e-18
2.367273079345e-16
4.92442001080458e-16
2.47103605522407e-16
-4.20936112019479e-18
-1.47395088634956e-18
-2.91727215425111e-18
-1.83883743637684e-18
0
0
0
6.53677473570012e-18
-2.36565549473334e-18
1.7280085273111e-15
1.89160481329516e-15
-5.34669622681183e-18
4.16879266037207e-18
-1.15502432231831e-17
1.9684130916939e-19
7.56617563926084e-18
5.69805086143445e-18
-2.33481461504312e-18
4.56452771362555e-18
-1.94924469106027e-19
-2.37679155175702e-18
-2.38438026134272e-18
-4.5820192030597e-18
0
4.42187915094713e-18
-1.91755912036479e-19
4.01449157242776e-18
-1.0531984974403e-17
-2.24957756519014e-18
0
-1.82295148538872e-18
1.86726442119763e-18
1.88904446704953e-19
-5.79909064599804e-18
7.92094529632071e-18
0
6.87592279294208e-18
0
4.14169556260849e-18
-5.80430989384725e-18
0
-3.81742349074307e-19
-1.2429084221973e-15
-1.25005900288809e-15
-6.07046928739252e-18
1.91652584857064e-19
2.59588373949298e-18
-2.27406266169689e-16
-4.77468397552279e-16
-2.34289020340508e-16
0
0
-7.6464270692078e-18
-2.42030152405117e-18
2.42030152405099e-18
2.24188258366001e-16
2.3028570190606e-16
2.6130627725784e-18
0
-2.24381019614515e-16
-2.28140728307428e-16
1.92761248527365e-19
0
-5.03336429662966e-18
0
0
-2.24188258365995e-16
-2.30481495510842e-16
1.9276124852737e-19
0
4.84060304810229e-18
0
2.61306277257849e-18
-2.24381019614515e-16
-2.28756272799893e-16
5.41888679368407e-18
5.03336429662932e-18
-2.24188258366005e-16
-4.59843452771681e-16
3.39044333218174e-16
5.64325041130524e-16
0
0
5.22612554515671e-18
0
-5.67635169862913e-16
-3.40522305261568e-16
-4.38024769393519e-19
-2.2877981233056e-16
0
0
-2.61306277257845e-18
5.22612554515688e-18
2.61306277257837e-18
2.61306277257854e-18
2.61306277257839e-18
3.41026609972859e-16
3.38657993402357e-16
2.26415798641531e-16
2.30910419094293e-16
1.92761248527375e-19
5.03336429662964e-18
-1.92761248527369e-19
2.31449162938162e-16
2.30361818242832e-16
2.28836100165584e-16
2.28140728307409e-16
-2.29028861414108e-16
-2.27480404266467e-16
1.92761248527366e-19
-2.61306277257846e-18
0
-5.6705688611734e-16
-3.31489385537208e-16
2.17276475420319e-16
0
2.21363692824316e-16
2.1311695675797e-16
0
2.78953903769387e-18
5.80256265659097e-18
-5.88163847250373e-18
-1.94250882257862e-19
1.58598459420483e-18
1.34391774138746e-15
1.34555004013242e-15
1.94892850435456e-19
0
1.70243677932917e-18
2.03325976890501e-18
0
7.92715995805937e-18
-3.00105153884843e-18
0
-3.16054525814528e-18
2.72077780218067e-15
2.98137098836339e-15
1.4821166279112e-17
8.22941306030699e-18
-6.30760150106755e-18
0
2.30761723275709e-18
-4.6210501641512e-18
0
0
-6.28945369926578e-18
0
1.65277684348422e-18
-4.53942163184438e-18
-7.73429640995269e-18
-8.7839320720537e-18
4.85323676301036e-18
1.88906603613291e-19
0
5.15816858863551e-18
0
-4.48743760179123e-18
-2.39838371525061e-18
-3.80989128265225e-18
-1.80436208886709e-18
3.60781023841238e-18
-1.42593672304091e-18
1.24533380719479e-15
1.16557728602224e-15
0
-2.42045527622546e-18
5.39317878672835e-18
2.3296583566427e-16
4.5781170493601e-16
2.28659835211512e-16
0
-4.86388676359716e-18
0
0
-1.92761773523363e-19
-2.23568238990758e-16
-2.20059384388855e-16
0
0
2.21039916997174e-16
2.22887621755011e-16
2.33556022004794e-18
2.33556022004809e-18
0
4.8638822136192e-18
-1.92761773523359e-19
2.21039916997157e-16
2.22997585467967e-16
1.92761773523364e-19
0
0
2.52832199357146e-18
2.52832199357146e-18
2.15983273010016e-16
2.15483419863264e-16
2.52832199357135e-18
2.33556022004795e-18
2.21039916997184e-16
4.43938248755604e-16
-3.29919465484087e-16
-5.44694309727259e-16
1.92761773523366e-19
4.86388221361948e-18
0
0
5.47543148505821e-16
3.28518274943698e-16
8.87911981934347e-19
2.2056277153838e-16
0
7.39220420719066e-18
0
-2.52832199357146e-18
5.24940576066626e-18
4.47835866657275e-18
1.9276177352336e-19
-3.26503231508606e-16
-3.34155396495209e-16
-2.165615583306e-16
-2.25525907461517e-16
-1.92761773523357e-19
0
0
-2.19089880324167e-16
-2.22509737962218e-16
-2.1598327301004e-16
-2.22281831761351e-16
2.16561558330599e-16
2.19715239400652e-16
1.92761773523369e-19
0
3.40902116375927e-16
8.75572438182949e-16
3.29363709499208e-16
-2.24638642698159e-16
0
1.96811359334405e-17
5.20580658722484e-18
0
1.93655866909758e-19
2.80596125887133e-18
1.94053854231111e-19
1.64172888414717e-18
0
-1.24267798953664e-15
-1.3412271800388e-15
5.41308626660108e-18
-5.90985875096633e-18
-6.24862575350528e-18
-4.10199151145156e-18
0
-2.68010006088154e-18
5.88425338434108e-19
3.15749861318234e-18
-5.24689719270653e-18
-2.58690885333418e-15
-2.8931106131238e-15
0
1.03530094998898e-17
1.94925054951678e-19
0
0
0
2.06847611013e-18
-1.96917449561447e-18
0
-2.33803077637953e-18
2.148284960689e-18
-5.93474288495669e-18
0
1.05344683382038e-17
-6.23583049230455e-18
4.46928507052333e-18
0
-7.56341101113381e-18
9.25727639160124e-18
-2.26165684565754e-18
-3.89102095487026e-18
-1.90432814151027e-19
0
0
0
-4.42579349758567e-18
1.58742458996502e-18
0
2.71180876893195e-18
2.22494089146833e-18
1.92062497502181e-19
4.94743204179467e-18
0
0
-6.95421107995959e-18
2.44657639674092e-18
0
4.89315279348188e-18
9.40078095071265e-18
0
0
-4.70039047535607e-18
0
-2.44657639674107e-18
2.25381407861512e-18
4.31486583910447e-18
0
-4.89315279348192e-18
-2.44657639674095e-18
0
2.44657639674109e-18
0
2.44657639674095e-18
2.25381407861527e-18
-2.44657639674109e-18
0
2.06565084858659e-16
2.06294546041554e-16
0
2.44657639674095e-18
0
0
-7.14696687209714e-18
-2.44657639674095e-18
0
2.4465763967409e-18
2.2538140786151e-18
0
-1.92762318125823e-19
4.89315279348193e-18
0
7.1469668720975e-18
4.89315279348216e-18
-1.92762318125822e-19
-1.92762318125826e-19
-5.08591511160771e-18
-4.70039047535639e-18
0
-1.92762318125827e-19
0
0
2.25381407861529e-18
0
-2.44657639674096e-18
2.44657639674121e-18
-1.92762318125825e-19
-2.44657639674094e-18
2.44657639674091e-18
-1.92762318125822e-19
0
0
2.44657639674108e-18
2.44657639674107e-18
2.44657639674092e-18
-3.22147223561314e-16
-3.28562363442012e-16
4.70039047535636e-18
0
-1.92847020415117e-19
-2.17083253473136e-16
-2.23049574712704e-16
0
2.61045599436294e-18
-1.93853710775419e-19
0
-5.97325802206227e-18
2.95052899839024e-18
-8.18518167047911e-18
3.48983993315014e-18
-3.67457061141452e-18
1.95020021236729e-19
0
4.33845463366513e-18
6.8536934461868e-18
-7.38000451790645e-18
5.60389713177432e-18
4.67337751573013e-18
-6.4326548709334e-18
1.97059425256777e-19
0
-9.7739215274957e-18
-8.0321287711857e-18
0
0
1.92960312906336e-19
1.92762318125857e-19
0
-4.18566096184009e-18
1.91756382991204e-19
0
9.63514277237401e-18
-5.53926159146979e-18
0
1.03534365835935e-17
-6.19758424928803e-18
-1.88911144115959e-19
-5.02302877448554e-18
-7.11465184218407e-18
8.74797790169074e-18
-3.9943385640803e-18
-3.94179963284001e-18
0
-7.09153176903239e-18
0
1.69449534741849e-18
-4.45951010439279e-18
-2.69342584351528e-18
4.91460361930538e-18
-4.86290746154455e-18
7.3796450433469e-18
4.51060911694306e-18
0
-4.53839949308021e-18
0
2.36772226078742e-18
0
4.54267743510313e-18
0
0
4.73544031818459e-18
0
-2.36772015909208e-18
0
4.54267743510326e-18
0
-2.36772015909212e-18
0
0
-4.7354403181843e-18
0
0
-2.56048304217351e-18
1.9276288308134e-19
-2.36772015909219e-18
4.73544031818426e-18
0
-1.92443686463216e-16
-1.98863824613858e-16
0
2.17495727601061e-18
0
-2.17495727601088e-18
4.73544031818426e-18
0
0
1.9276288308135e-19
-1.92762883081346e-19
0
-6.71763471111425e-18
2.36772015909218e-18
0
6.91039759419532e-18
4.54267743510286e-18
0
2.36772015909229e-18
0
0
2.36772015909215e-18
4.73544031818446e-18
1.92762883081349e-19
0
-4.7354403181843e-18
0
2.36772015909214e-18
-6.91039759419537e-18
-1.92762883081347e-19
0
-9.08535487020592e-18
0
-2.36772015909211e-18
-2.36772015909212e-18
4.73544031818454e-18
7.10316047727647e-18
1.92762883081339e-19
0
0
1.92762883081352e-19
-2.56048506091806e-18
0
0
0
2.44876461334185e-18
-2.33197580841314e-18
0
0
-5.77535165342173e-18
-8.92578872108804e-18
1.94595116148606e-19
1.94747921583261e-19
-1.04553736065631e-17
3.54196281366913e-18
1.95164310358495e-19
3.99433856408097e-18
-3.91108800171549e-19
0
4.82689552574464e-18
0
-4.50675164675694e-18
0
1.97127086109152e-19
-9.42900184199851e-18
0
-2.08281426110678e-18
0
1.90026613988812e-18
0
3.86583341028346e-18
1.83379338842407e-18
0
-3.81151762788033e-19
0
-3.7482896856222e-18
0
-6.28805489858223e-18
-5.79020377492127e-18
2.65003603392009e-18
0
-9.27930435946832e-18
-6.37736239063714e-18
5.77623892176734e-18
1.9028378746215e-19
-3.60549326502626e-18
0
-7.65964877584417e-18
-4.35004222063961e-18
0
0
0
0
-1.91858977998669e-19
0
-2.31697327219831e-18
-2.28951853923135e-18
0
0
0
0
4.7760658653521e-18
0
-2.09888772892696e-18
0
2.09888772892705e-18
0
6.68219012511294e-18
-2.29165119809303e-18
1.9276346916604e-19
1.92763469166041e-19
0
2.291651198093e-18
0
-6.68219012511296e-18
0
0
0
1.92763469166041e-19
0
0
1.9276346916604e-19
-2.29165119809306e-18
2.13958316177075e-16
2.06497083958607e-16
0
0
2.291651198093e-18
4.58330239618606e-18
0
0
0
-2.29165119809301e-18
-2.29165119809301e-18
0
2.29165119809307e-18
0
2.29165119809306e-18
0
2.09567777250067e-16
2.02082473908461e-16
0
0
0
0
0
0
0
-1.92763469166039e-19
2.29165119809303e-18
-1.92763469166038e-19
1.92763469166048e-19
0
2.09888772892708e-18
8.97384132320564e-18
0
4.19777545785369e-18
-2.29165119809302e-18
-2.29165119809303e-18
-2.29165119809311e-18
-6.87495359427945e-18
0
-1.92848293369889e-19
-4.58020578367921e-18
-6.5673795585146e-18
-2.17634897664697e-18
-2.63746531424947e-18
2.3458861040682e-18
-7.58265785680431e-18
0
2.93889296114721e-18
-4.54463622895445e-18
0
1.94886309262607e-19
-8.92768162626324e-18
5.81573994055437e-18
1.73007472967084e-18
-6.38303123281738e-18
2.02920801079117e-18
-4.64497932702853e-18
1.96489814741615e-19
1.64436304040517e-18
9.629129102562e-18
9.23184394475851e-18
1.58298194091207e-18
9.10908532647474e-18
-1.82133639151657e-18
-2.21375778725837e-18
1.83379338842406e-18
0
9.63905503207198e-20
5.6941413025761e-18
0
-8.78568041326363e-18
0
7.23982306257911e-18
0
6.0589247963388e-18
0
-7.84981514077129e-18
-7.18772424955751e-18
-1.89615956146547e-19
1.79830312703598e-18
3.80206336953574e-19
-3.48712906381196e-18
6.39485178846785e-18
0
1.47716862317899e-18
1.58917078228185e-18
-3.82091032463482e-19
-5.39424483893415e-18
-2.37589882513817e-18
-2.26334240874927e-18
4.53429097375075e-18
-1.92063375784623e-19
2.24273231230545e-18
0
0
-4.43654593440477e-18
2.21827103952825e-18
0
0
-6.26928496421132e-18
0
0
2.0255069623415e-18
0
4.2437780018698e-18
0
-1.92764077186779e-19
0
0
2.21827103952817e-18
2.21827103952829e-18
-1.92764077186778e-19
2.02550696234136e-18
0
2.21827103952824e-18
0
1.95987812698515e-16
1.94803006274569e-16
0
0
-1.95602284544131e-16
-2.01122215145953e-16
6.46204904139811e-18
0
0
0
6.46204904139812e-18
0
0
-4.24377800186982e-18
0
2.21827103952815e-18
0
0
0
0
-1.98013319660861e-16
-1.964698392762e-16
0
2.21827103952817e-18
-1.92764077186781e-19
0
2.41103511671491e-18
-6.26928496421137e-18
0
-4.43654207905634e-18
0
4.43654207905658e-18
1.92764077186771e-19
0
2.21827103952832e-18
-1.92764077186784e-19
4.2437780018698e-18
0
-1.92764077186772e-19
2.21827103952828e-18
1.92764077186768e-19
-2.21827103952823e-18
0
4.42843676279836e-18
1.93058145737823e-19
-6.53791849173625e-18
2.10018407446869e-18
0
-2.26334240874979e-18
-1.9405414818431e-19
-1.94249327924804e-19
1.94428219284661e-19
0
-4.43150586953766e-18
-4.48403754972377e-18
-6.97531419910101e-18
3.90319715558753e-19
7.62011117312226e-18
6.16010819172052e-18
1.94883184943697e-18
0
2.75011716638307e-18
8.36872790406455e-18
-3.22650248944604e-18
-8.13669416384638e-18
1.0491012247332e-17
-3.70985784139633e-18
0
-3.71827256405787e-18
0
0
-9.63911810845193e-20
-7.21638595144869e-18
0
0
0
0
6.27270692063156e-18
2.73059602999547e-18
-8.06336011494494e-18
2.46064282321206e-18
0
4.13420465644713e-18
0
1.97952630552267e-18
0
4.95226537095008e-18
-7.51884977604825e-18
1.61505564929408e-18
0
0
1.91235218771917e-19
-4.58400614477675e-18
-4.55908456114956e-18
-2.09507163036795e-18
1.9206369069015e-19
0
4.09880504702635e-18
0
0
1.92764707982494e-19
0
-1.92764707982498e-19
0
4.10220467206293e-18
-2.14748469002273e-18
2.14748469002274e-18
0
2.14748469002273e-18
0
0
2.14748469002274e-18
0
0
0
0
-8.20440934412548e-18
1.92764707982492e-19
0
-2.1474846900225e-18
-1.84653356047266e-16
-1.92261747497004e-16
-2.14748469002262e-18
1.92764707982495e-19
0
-1.92764707982493e-19
-2.14748469002286e-18
-6.05692465410354e-18
-4.29496938004513e-18
-1.95471998204037e-18
4.29496938004548e-18
4.10220467206297e-18
1.92764707982494e-19
0
0
-2.14748469002273e-18
0
0
0
1.9547199820401e-18
0
-2.14748469002284e-18
1.92764707982492e-19
1.92764707982488e-19
0
-2.14748469002285e-18
1.95471998204023e-18
0
0
1.95471998204021e-18
0
0
-2.14748469002285e-18
0
-2.14748469002262e-18
0
-2.14748469002272e-18
-4.10220467206295e-18
1.92764707982491e-19
0
-8.39717405210835e-18
2.14748469002274e-18
0
-4.09438089721358e-18
2.14622444308919e-18
-1.97884752629641e-18
-2.22017370549773e-18
-4.19014326073615e-18
4.75514227450243e-18
1.18481238190094e-17
-2.61130762953597e-18
0
1.9459167179005e-19
0
-1.94882678317634e-19
1.95012132144075e-19
-2.07126707579016e-18
-3.57884482451766e-18
4.22410602529064e-18
0
1.96119308328242e-19
5.31424210805346e-18
5.1787744518573e-18
1.45947696044704e-18
0
1.85065352407027e-18
-8.66701564727047e-18
-8.67094941614404e-18
1.89430539745776e-18
0
0
9.63918354932209e-20
-5.1369965037801e-18
1.91757097001563e-19
-5.09696046506685e-18
-4.90113002055797e-18
6.18760863126612e-18
-1.20888709459914e-17
0
-2.40100795250835e-18
7.11283489478918e-18
0
-2.37154621727048e-18
6.11174961264019e-18
0
-1.90285428671861e-19
0
4.349623117071e-18
0
2.60057612215572e-18
-2.65292602410045e-18
-1.91235215354452e-19
2.5939567523806e-18
-2.10690316155957e-18
0
-2.14789941718774e-18
0
1.92474695433069e-19
1.92682127798214e-19
1.92765389641302e-19
1.92765362425561e-19
0
0
-2.07920051407275e-18
-2.07920051407264e-18
0
0
3.9656356657201e-18
2.07920051407264e-18
0
-6.04483617979292e-18
0
0
-4.15840102814526e-18
0
1.92765362425563e-19
0
0
0
-3.96563566571992e-18
2.07920051407272e-18
8.85081160904038e-16
8.89821750995437e-16
1.92765362425561e-19
0
2.07920051407275e-18
-1.92765362425567e-19
-2.07920051407263e-18
1.92765362425571e-19
3.96563566571972e-18
-4.35116639057148e-18
1.9276536242555e-19
0
3.7728703032943e-18
2.07920051407263e-18
0
2.07920051407251e-18
0
-1.92765362425569e-19
0
-1.92765362425564e-19
0
3.96563566571971e-18
-3.96563566571991e-18
0
0
-3.96563566572015e-18