/*--------------------------------*- C++ -*----------------------------------*\
  =========                 |
  \\      /  F ield         | OpenFOAM: The Open Source CFD Toolbox
   \\    /   O peration     | Website:  https://openfoam.org
    \\  /    A nd           | Version:  7
     \\/     M anipulation  |
\*---------------------------------------------------------------------------*/
FoamFile
{
    version     2.0;
    format      ascii;
    class       volScalarField;
    location    "0";
    object      k_LES;
}
// * * * * * * * * * * * * * * * * * * * * * * * * * * * * * * * * * * * * * //

dimensions      [0 2 -2 0 0 0 0];

internalField   nonuniform List<scalar>
15600
(
0.01223937
0.01543433
0.00097246
0.00362536
0.00324865
0.00147716
0.00768100
0.00654492
0.00224840
0.00344487
0.00154640
0.00062864
0.00085571
0.00135176
0.00139669
0.00133357
0.00133619
0.00113991
0.00109427
0.00252301
0.00060773
0.00099463
0.00249823
0.00255671
0.00378837
0.00287262
0.00345068
0.00299058
0.00246301
0.00289204
0.00328841
0.00370224
0.00402678
0.00434702
0.00467274
0.00491266
0.00508633
0.00531537
0.00543407
0.00550404
0.00558208
0.00563623
0.00577251
0.00579810
0.00574373
0.00571659
0.00575431
0.00575771
0.00570400
0.00562266
0.00558836
0.00558725
0.00551552
0.00542331
0.00522339
0.00514566
0.00505585
0.00487677
0.00470068
0.00452813
0.00438629
0.00437405
0.00416444
0.00408855
0.00399366
0.00384953
0.00367942
0.00363904
0.00350383
0.00337138
0.00329022
0.00316923
0.00313920
0.00303800
0.00296784
0.00293425
0.00282711
0.00272204
0.00262569
0.00260581
0.00247446
0.00238514
0.00227422
0.00220061
0.00213428
0.00207511
0.00203060
0.00194914
0.00187013
0.00188400
0.00174245
0.00179850
0.00283141
0.00216558
0.00167033
0.00054213
0.00078892
0.00090561
0.00007332
-0.00022740
0.00001038
-0.00014067
-0.00050246
-0.00015199
-0.00091114
-0.00007814
-0.00060922
-0.00103144
-0.00036989
-0.00128110
-0.00096411
-0.00096938
0.00002679
0.00025383
-0.00060942
-0.00152352
0.00177959
0.00039360
0.00343821
0.00725327
0.01755428
0.02244374
0.00536106
0.00713799
0.00502266
0.00449454
0.01143221
0.00998303
0.00559060
0.00681553
0.00332059
0.00206049
0.00262535
0.00377472
0.00382814
0.00378377
0.00415616
0.00414070
0.00457938
0.00566683
0.00392622
0.00474706
0.00768185
0.00736076
0.00904494
0.00874959
0.01008688
0.00885283
0.00879524
0.01022830
0.01148412
0.01268673
0.01356510
0.01455068
0.01539758
0.01624690
0.01689476
0.01758563
0.01785465
0.01814172
0.01831929
0.01864910
0.01904277
0.01911829
0.01896999
0.01888879
0.01895917
0.01903283
0.01897334
0.01876657
0.01866462
0.01862613
0.01832630
0.01811266
0.01776811
0.01744534
0.01723228
0.01670923
0.01615640
0.01595068
0.01546116
0.01508771
0.01470025
0.01443519
0.01414445
0.01380358
0.01335646
0.01309581
0.01271449
0.01242020
0.01201457
0.01178176
0.01163197
0.01134397
0.01113414
0.01095783
0.01076189
0.01050086
0.01019363
0.00986945
0.00947725
0.00918288
0.00892756
0.00860889
0.00837512
0.00820094
0.00794266
0.00772134
0.00745849
0.00727926
0.00698369
0.00679824
0.00846342
0.00932879
0.00882632
0.00716801
0.00755819
0.00541227
0.00475086
0.00097339
0.00415219
0.00127842
0.00175419
0.00146475
0.00158372
0.00154886
0.00017148
-0.00038323
-0.00039323
-0.00259551
-0.00043513
-0.00092280
0.00220921
0.00261189
-0.00115259
-0.00234247
0.00382258
0.00329720
0.00654605
0.01108154
0.02455079
0.03091012
0.01157689
0.01139883
0.00732313
0.00854141
0.01674121
0.01422637
0.00849162
0.00934315
0.00590453
0.00467978
0.00602990
0.00727026
0.00701494
0.00692515
0.00771407
0.00816898
0.00913497
0.01016655
0.00982563
0.01115280
0.01242542
0.01348929
0.01417705
0.01500375
0.01594629
0.01569623
0.01686941
0.01910014
0.02112085
0.02302884
0.02451397
0.02602989
0.02741815
0.02867062
0.02964511
0.03088864
0.03150261
0.03192950
0.03217244
0.03260693
0.03323438
0.03347958
0.03334053
0.03336660
0.03340206
0.03349460
0.03335366
0.03323023
0.03323971
0.03325234
0.03286118
0.03246914
0.03212660
0.03173332
0.03145081
0.03075651
0.02982275
0.02945547
0.02877427
0.02816529
0.02767989
0.02725171
0.02686228
0.02632752
0.02568093
0.02533577
0.02472343
0.02425469
0.02354479
0.02318415
0.02291281
0.02252061
0.02221861
0.02194107
0.02155837
0.02108661
0.02055993
0.02002631
0.01938837
0.01882414
0.01833350
0.01785961
0.01737452
0.01700228
0.01656021
0.01612401
0.01559331
0.01511395
0.01464368
0.01420901
0.01557019
0.01817788
0.01891070
0.01874552
0.01909301
0.01858258
0.01538875
0.00797569
0.01314225
0.00910840
0.00853742
0.00684556
0.00638901
0.00550046
0.00446968
0.00252765
0.00041540
-0.00192790
0.00080814
0.00082167
0.00670554
0.00661609
-0.00081117
-0.00241005
0.00697865
0.00746795
0.01147635
0.01682619
0.03313926
0.04108536
0.01966358
0.01625083
0.01036119
0.01336904
0.02182010
0.01938185
0.01185289
0.01280327
0.00971902
0.00907362
0.01027631
0.01059588
0.01040604
0.01057776
0.01162322
0.01223652
0.01317388
0.01421146
0.01510592
0.01587868
0.01696288
0.01785573
0.01850214
0.01948714
0.02033975
0.02100870
0.02319049
0.02587866
0.02824198
0.03048896
0.03237989
0.03414377
0.03580231
0.03727133
0.03872858
0.04016456
0.04102707
0.04152218
0.04181851
0.04238408
0.04310011
0.04349038
0.04341653
0.04351881
0.04367373
0.04360766
0.04362643
0.04345820
0.04356540
0.04364647
0.04325503
0.04269301
0.04254630
0.04211885
0.04184860
0.04103120
0.04015874
0.03962077
0.03882366
0.03805145
0.03744913
0.03700436
0.03659309
0.03608973
0.03545715
0.03485982
0.03418505
0.03354640
0.03281959
0.03233900
0.03192775
0.03154138
0.03121171
0.03090732
0.03045403
0.02991631
0.02918259
0.02847561
0.02773309
0.02703953
0.02644408
0.02586061
0.02529418
0.02475087
0.02418651
0.02357311
0.02293617
0.02229426
0.02164727
0.02101506
0.02188056
0.02479204
0.02659333
0.02792505
0.02845136
0.02872149
0.02644474
0.02259789
0.02626917
0.02270820
0.01947554
0.01691696
0.01252698
0.01426732
0.01408822
0.00835504
0.00367068
0.00008126
0.00517693
0.00439221
0.01220513
0.01136566
0.00148349
-0.00074804
0.01112519
0.01299953
0.01855117
0.02408901
0.04263641
0.05183358
0.02963263
0.02211094
0.01417698
0.01861963
0.02551246
0.02417020
0.01525068
0.01620324
0.01392706
0.01401202
0.01352899
0.01338327
0.01379723
0.01435512
0.01491421
0.01574705
0.01654315
0.01775722
0.01885484
0.01946288
0.02017270
0.02099447
0.02177621
0.02285557
0.02383212
0.02517333
0.02783184
0.03073934
0.03327501
0.03579622
0.03792852
0.03984243
0.04169563
0.04337842
0.04501334
0.04669110
0.04767702
0.04823486
0.04853846
0.04917863
0.05001363
0.05052741
0.05053707
0.05068948
0.05085633
0.05089678
0.05094419
0.05075756
0.05096575
0.05108705
0.05075211
0.05026724
0.05008331
0.04974961
0.04943164
0.04853000
0.04759429
0.04700453
0.04625006
0.04542713
0.04477599
0.04422830
0.04377774
0.04326678
0.04270416
0.04210421
0.04135404
0.04068069
0.03983386
0.03936062
0.03893337
0.03847108
0.03814149
0.03780650
0.03723911
0.03668287
0.03595269
0.03516682
0.03435115
0.03357190
0.03296693
0.03229575
0.03168113
0.03106961
0.03043365
0.02980085
0.02902368
0.02828291
0.02763629
0.02688851
0.02736333
0.03021225
0.03286632
0.03525340
0.03642075
0.03700901
0.03612078
0.03512343
0.03689068
0.03578579
0.03238888
0.03052082
0.02597904
0.02652432
0.02768080
0.02147940
0.01183099
0.00443549
0.01332865
0.01455088
0.02035023
0.01869576
0.00702000
0.00373510
0.01720129
0.01998792
0.02739163
0.03198896
0.05249360
0.06359996
0.04147031
0.02908302
0.01932572
0.02398232
0.02785713
0.02767181
0.01963029
0.01886645
0.01772748
0.01734527
0.01659576
0.01610764
0.01663195
0.01738676
0.01771001
0.01881048
0.01971633
0.02065014
0.02147986
0.02198052
0.02239507
0.02343183
0.02418602
0.02531698
0.02646681
0.02837662
0.03131822
0.03434538
0.03703577
0.03966497
0.04193783
0.04397103
0.04597498
0.04776199
0.04959393
0.05136528
0.05243490
0.05308421
0.05343487
0.05414205
0.05500698
0.05566296
0.05575327
0.05593109
0.05614845
0.05626085
0.05639812
0.05625508
0.05642229
0.05661385
0.05631273
0.05582499
0.05575818
0.05542151
0.05511390
0.05413679
0.05324469
0.05264098
0.05178712
0.05101614
0.05030520
0.04975518
0.04929656
0.04879257
0.04821474
0.04756391
0.04682774
0.04612250
0.04527912
0.04478478
0.04431840
0.04380519
0.04343646
0.04309084
0.04248614
0.04188533
0.04120966
0.04034515
0.03947444
0.03870359
0.03805630
0.03739471
0.03670393
0.03609031
0.03542226
0.03475662
0.03401751
0.03321956
0.03253256
0.03180214
0.03199363
0.03452532
0.03740334
0.04017468
0.04198343
0.04349356
0.04416007
0.04342542
0.04416016
0.04471807
0.04454198
0.04458660
0.04200000
0.03845412
0.03970528
0.03199070
0.02622361
0.01445477
0.02476710
0.02436875
0.03040643
0.02960150
0.01551275
0.01068935
0.02588138
0.02854151
0.03747631
0.04135239
0.06323335
0.07515656
0.05500879
0.03707253
0.02564749
0.02935339
0.02996630
0.02975428
0.02458990
0.02120383
0.02067326
0.01964011
0.01904551
0.01873823
0.01887092
0.01991528
0.02044956
0.02124393
0.02236419
0.02273442
0.02327455
0.02357490
0.02418140
0.02511753
0.02605258
0.02721888
0.02860224
0.03081503
0.03398383
0.03711103
0.03990006
0.04263460
0.04501950
0.04715941
0.04928095
0.05115223
0.05309385
0.05496606
0.05610079
0.05677203
0.05718667
0.05796034
0.05889176
0.05959298
0.05974501
0.05993797
0.06018596
0.06037030
0.06052438
0.06044764
0.06062284
0.06088850
0.06064779
0.06018123
0.06009692
0.05984736
0.05949969
0.05848652
0.05761063
0.05695537
0.05613274
0.05535973
0.05463873
0.05409624
0.05357670
0.05304437
0.05251234
0.05182606
0.05110768
0.05038555
0.04958698
0.04903750
0.04850448
0.04799213
0.04758229
0.04716749
0.04655145
0.04595870
0.04528843
0.04441239
0.04356104
0.04273669
0.04210136
0.04146351
0.04074303
0.04009569
0.03942556
0.03873590
0.03803041
0.03722818
0.03658407
0.03586964
0.03591001
0.03805654
0.04103784
0.04380889
0.04594061
0.04779974
0.04938077
0.04985101
0.05090659
0.05063670
0.05199419
0.05264780
0.05195435
0.05151606
0.04995222
0.04635467
0.04301497
0.03174523
0.03742610
0.03357824
0.04350792
0.04392641
0.02633920
0.02002249
0.03608757
0.03855463
0.04776785
0.05149652
0.07329660
0.08560407
0.06960699
0.04601929
0.03259563
0.03436627
0.03389470
0.03116221
0.02677578
0.02332599
0.02307780
0.02175181
0.02132058
0.02120797
0.02130412
0.02212894
0.02267020
0.02342976
0.02411369
0.02412825
0.02468875
0.02499021
0.02545963
0.02637140
0.02744364
0.02873687
0.03033498
0.03281142
0.03609695
0.03932165
0.04220330
0.04502408
0.04749997
0.04972069
0.05194415
0.05391195
0.05590536
0.05780841
0.05896970
0.05971674
0.06019982
0.06105011
0.06201881
0.06272521
0.06293182
0.06310464
0.06336960
0.06360677
0.06380832
0.06383919
0.06398691
0.06430524
0.06409251
0.06361961
0.06360154
0.06335405
0.06300200
0.06197963
0.06113533
0.06045933
0.05957098
0.05881486
0.05811798
0.05760136
0.05701753
0.05648432
0.05595082
0.05524324
0.05454368
0.05381987
0.05308120
0.05247003
0.05192140
0.05133472
0.05086196
0.05043542
0.04979044
0.04918186
0.04856831
0.04767508
0.04682810
0.04602433
0.04536044
0.04475368
0.04400634
0.04332533
0.04266627
0.04194540
0.04126877
0.04050624
0.03990797
0.03922471
0.03917232
0.04096038
0.04379323
0.04664386
0.04901061
0.05124123
0.05263073
0.05422281
0.05631720
0.05616923
0.05688498
0.05841178
0.05843238
0.05820967
0.05652451
0.05581172
0.05436232
0.04904781
0.05055276
0.04835541
0.05770486
0.05689820
0.03861996
0.03109301
0.04598208
0.04956029
0.05857855
0.06177089
0.08254974
0.09434919
0.08421095
0.05533322
0.03937945
0.03850922
0.03560813
0.03275629
0.02856084
0.02562299
0.02507070
0.02394355
0.02314470
0.02322144
0.02325837
0.02390054
0.02435317
0.02498240
0.02531582
0.02519182
0.02571085
0.02598539
0.02640754
0.02735302
0.02852731
0.02998138
0.03179233
0.03447145
0.03785954
0.04116813
0.04414978
0.04704276
0.04958131
0.05191923
0.05421506
0.05623800
0.05827791
0.06016914
0.06137001
0.06216253
0.06272378
0.06364360
0.06462675
0.06531636
0.06554793
0.06571999
0.06596730
0.06627013
0.06654798
0.06661962
0.06678310
0.06711710
0.06690843
0.06644459
0.06643900
0.06621556
0.06584526
0.06483917
0.06407319
0.06331551
0.06238756
0.06165376
0.06097944
0.06049675
0.05983927
0.05928133
0.05875224
0.05803680
0.05736602
0.05665141
0.05594330
0.05530336
0.05470117
0.05407065
0.05351997
0.05305992
0.05241573
0.05182291
0.05123695
0.05032792
0.04949378
0.04870089
0.04802519
0.04742715
0.04668393
0.04597198
0.04529062
0.04457492
0.04394193
0.04321419
0.04265829
0.04198475
0.04188180
0.04336843
0.04601943
0.04885766
0.05128000
0.05370163
0.05551604
0.05747645
0.05982500
0.06084632
0.06189547
0.06228820
0.06296609
0.06309333
0.06105119
0.06224353
0.06231651
0.06125506
0.06083092
0.06171271
0.06851884
0.06824097
0.05071607
0.04292629
0.05571827
0.06047973
0.06797454
0.07196317
0.09095044
0.10184222
0.09751745
0.06446852
0.04519632
0.04178712
0.03792829
0.03486144
0.03073433
0.02731192
0.02665169
0.02563095
0.02469444
0.02468562
0.02492584
0.02538772
0.02559290
0.02601400
0.02617886
0.02605018
0.02646591
0.02667571
0.02719335
0.02818529
0.02943884
0.03106720
0.03306188
0.03590455
0.03938081
0.04277081
0.04585385
0.04881943
0.05142683
0.05384966
0.05620197
0.05827970
0.06035188
0.06222813
0.06345610
0.06427465
0.06491659
0.06590816
0.06689694
0.06749394
0.06776495
0.06793145
0.06815731
0.06851352
0.06887570
0.06901488
0.06917109
0.06949875
0.06928410
0.06883499
0.06882409
0.06859548
0.06820177
0.06723485
0.06653096
0.06570073
0.06472406
0.06400988
0.06338530
0.06292246
0.06221599
0.06164256
0.06111040
0.06035008
0.05971126
0.05901174
0.05832411
0.05765181
0.05701307
0.05635346
0.05571808
0.05521614
0.05462158
0.05400698
0.05343801
0.05253755
0.05170665
0.05092108
0.05023359
0.04963685
0.04890055
0.04816997
0.04749512
0.04676681
0.04614929
0.04546245
0.04494031
0.04429537
0.04413868
0.04537925
0.04778505
0.05052318
0.05302526
0.05559974
0.05796558
0.05994918
0.06222666
0.06413328
0.06527851
0.06640427
0.06707218
0.06706510
0.06694865
0.06798536
0.06753678
0.06767545
0.06527219
0.06938531
0.07313669
0.07382661
0.06080952
0.05435601
0.06395920
0.07000608
0.07649291
0.08146366
0.09864767
0.10789614
0.10797449
0.07358398
0.05045465
0.04443519
0.04030176
0.03693793
0.03290328
0.02937597
0.02804616
0.02692775
0.02610805
0.02596371
0.02615757
0.02648521
0.02654673
0.02673150
0.02680945
0.02678044
0.02703637
0.02727740
0.02785468
0.02888000
0.03026834
0.03202778
0.03419598
0.03719264
0.04075849
0.04421320
0.04740292
0.05042286
0.05311690
0.05561305
0.05801538
0.06013109
0.06221957
0.06409442
0.06533253
0.06614999
0.06688548
0.06792610
0.06890802
0.06941968
0.06966190
0.06985972
0.07006524
0.07047469
0.07092253
0.07110843
0.07126752
0.07156207
0.07135799
0.07088979
0.07081787
0.07061794
0.07016896
0.06927022
0.06863041
0.06772031
0.06673218
0.06601889
0.06544293
0.06498738
0.06425751
0.06365300
0.06311358
0.06230028
0.06167879
0.06100248
0.06031596
0.05963277
0.05896043
0.05829391
0.05758933
0.05705188
0.05650001
0.05585037
0.05526896
0.05439783
0.05356795
0.05280377
0.05209424
0.05147347
0.05074960
0.05002450
0.04936170
0.04861323
0.04800636
0.04734803
0.04685109
0.04622608
0.04603770
0.04705948
0.04925200
0.05183800
0.05440137
0.05704981
0.05953809
0.06176338
0.06404317
0.06650524
0.06810993
0.06896923
0.07007107
0.07078115
0.07208483
0.07208709
0.07132322
0.07175458
0.07146517
0.07325624
0.07576510
0.07662669
0.06937543
0.06489137
0.07056363
0.07661299
0.08361404
0.09019565
0.10528909
0.11287605
0.11496084
0.08284039
0.05571856
0.04701788
0.04260414
0.03857492
0.03448451
0.03103728
0.02934562
0.02803245
0.02720745
0.02699706
0.02718790
0.02728307
0.02723512
0.02729881
0.02733724
0.02731958
0.02749820
0.02777634
0.02838215
0.02952390
0.03102565
0.03292757
0.03525330
0.03838766
0.04204193
0.04556948
0.04885502
0.05191897
0.05472019
0.05726919
0.05973103
0.06187349
0.06395617
0.06584766
0.06707211
0.06788695
0.06869724
0.06977144
0.07074553
0.07116920
0.07136003
0.07160053
0.07179326
0.07223702
0.07275121
0.07298541
0.07312984
0.07338711
0.07321754
0.07269751
0.07256216
0.07237392
0.07185201
0.07103741
0.07042424
0.06947405
0.06849672
0.06777421
0.06723607
0.06677351
0.06604852
0.06541659
0.06485520
0.06398611
0.06335256
0.06269935
0.06201872
0.06133527
0.06063022
0.05996670
0.05920706
0.05864270
0.05812695
0.05744594
0.05682087
0.05598305
0.05516267
0.05440112
0.05367418
0.05302852
0.05231461
0.05159339
0.05096140
0.05018592
0.04957838
0.04894514
0.04844215
0.04786795
0.04765839
0.04848263
0.05043296
0.05289540
0.05544311
0.05824443
0.06080456
0.06320915
0.06547622
0.06811060
0.07006264
0.07166602
0.07251303
0.07367010
0.07581965
0.07551768
0.07503443
0.07528080
0.07443167
0.07777983
0.07988955
0.08091328
0.07649894
0.07371273
0.07514607
0.08011770
0.08870659
0.09753432
0.11048811
0.11728303
0.11927952
0.09241798
0.06170774
0.05024682
0.04478572
0.04010462
0.03583923
0.03249495
0.03051018
0.02908890
0.02829479
0.02787600
0.02796710
0.02788157
0.02773266
0.02776917
0.02776481
0.02770781
0.02786382
0.02823693
0.02889335
0.03009952
0.03175484
0.03380968
0.03626731
0.03953196
0.04327968
0.04688132
0.05024619
0.05335603
0.05627277
0.05886629
0.06138115
0.06354921
0.06560739
0.06753297
0.06873286
0.06954112
0.07041890
0.07149851
0.07245421
0.07280767
0.07292975
0.07320468
0.07340953
0.07386216
0.07443058
0.07469960
0.07480692
0.07500150
0.07489257
0.07432308
0.07413958
0.07393925
0.07333267
0.07260656
0.07199252
0.07103525
0.07008086
0.06935013
0.06882163
0.06832440
0.06764380
0.06699078
0.06638922
0.06548477
0.06480659
0.06416135
0.06347832
0.06280359
0.06208033
0.06141302
0.06065008
0.06005908
0.05955319
0.05883336
0.05816198
0.05735796
0.05654591
0.05579141
0.05504504
0.05436357
0.05365736
0.05295294
0.05233229
0.05153941
0.05092543
0.05031673
0.04979344
0.04927361
0.04905001
0.04970543
0.05141099
0.05375498
0.05634255
0.05906728
0.06173821
0.06425504
0.06686499
0.06917684
0.07112921
0.07321982
0.07475602
0.07584145
0.07757675
0.07704779
0.07889894
0.07869089
0.07763866
0.08069564
0.08447152
0.08597149
0.08202221
0.08013302
0.07868494
0.08141081
0.09126891
0.10242700
0.11465720
0.12096806
0.12207030
0.10163179
0.06830449
0.05431590
0.04702820
0.04166881
0.03719875
0.03391481
0.03156166
0.03009618
0.02920561
0.02869056
0.02856752
0.02839331
0.02815254
0.02814431
0.02809043
0.02803277
0.02825739
0.02864745
0.02941466
0.03068844
0.03247603
0.03467762
0.03727230
0.04065366
0.04448964
0.04816176
0.05159645
0.05476577
0.05778355
0.06043510
0.06299224
0.06517822
0.06722304
0.06917102
0.07034859
0.07115188
0.07209809
0.07314588
0.07407507
0.07436888
0.07444129
0.07472317
0.07495183
0.07539682
0.07600064
0.07628906
0.07633483
0.07646665
0.07641839
0.07582869
0.07560776
0.07537862
0.07467205
0.07403227
0.07340795
0.07247412
0.07153029
0.07078511
0.07025234
0.06969381
0.06909671
0.06841881
0.06775811
0.06684818
0.06610413
0.06543887
0.06477082
0.06408843
0.06335962
0.06268433
0.06197105
0.06133545
0.06080920
0.06005783
0.05934650
0.05857585
0.05776677
0.05701929
0.05624681
0.05552467
0.05483568
0.05414805
0.05351866
0.05271356
0.05209671
0.05150820
0.05096222
0.05049188
0.05024452
0.05076508
0.05225905
0.05448054
0.05702014
0.05970650
0.06247532
0.06488860
0.06775183
0.07019069
0.07209014
0.07429616
0.07575297
0.07722784
0.07884357
0.07844425
0.08101517
0.08190975
0.08112434
0.08336722
0.08760100
0.08828544
0.08518738
0.08459779
0.08159939
0.08153915
0.09161538
0.10576174
0.11753285
0.12369966
0.12469984
0.11020542
0.07555006
0.05890271
0.04955593
0.04356403
0.03873241
0.03529040
0.03261885
0.03111109
0.03002539
0.02948248
0.02910229
0.02881210
0.02853121
0.02846641
0.02832741
0.02831593
0.02859708
0.02907651
0.02991309
0.03129997
0.03319950
0.03553873
0.03827932
0.04177467
0.04569339
0.04942573
0.05292575
0.05616608
0.05926804
0.06199834
0.06459466
0.06677932
0.06883441
0.07076864
0.07193409
0.07274824
0.07374369
0.07473780
0.07563148
0.07587731
0.07590436
0.07619403
0.07644516
0.07686415
0.07750345
0.07779151
0.07774808
0.07782771
0.07784917
0.07725241
0.07698867
0.07673027
0.07593077
0.07537700
0.07472653
0.07382282
0.07287382
0.07210739
0.07155681
0.07093591
0.07042456
0.06973487
0.06900180
0.06811579
0.06728478
0.06658745
0.06593209
0.06522755
0.06450001
0.06383727
0.06318544
0.06248986
0.06192223
0.06115181
0.06042005
0.05966089
0.05884706
0.05811529
0.05732155
0.05656362
0.05589371
0.05521225
0.05456263
0.05374588
0.05313283
0.05256022
0.05199551
0.05155235
0.05127848
0.05170517
0.05301578
0.05511998
0.05758137
0.06029905
0.06299512
0.06555044
0.06831997
0.07117092
0.07294666
0.07485162
0.07654788
0.07836069
0.07962438
0.07992567
0.08189729
0.08384188
0.08420301
0.08638928
0.08938903
0.09130277
0.08739955
0.08759526
0.08407283
0.08177234
0.09058791
0.10711522
0.11854127
0.12535378
0.12756669
0.11788299
0.08354689
0.06359192
0.05253516
0.04570107
0.04030711
0.03656969
0.03371727
0.03195512
0.03078734
0.03013711
0.02958520
0.02918547
0.02883123
0.02865504
0.02859815
0.02863634
0.02892592
0.02951785
0.03042702
0.03194056
0.03396752
0.03642182
0.03930142
0.04290846
0.04689781
0.05069469
0.05426263
0.05756539
0.06075219
0.06357487
0.06621278
0.06838240
0.07046063
0.07235341
0.07350596
0.07436534
0.07537761
0.07631585
0.07715091
0.07734838
0.07733554
0.07764735
0.07790770
0.07829182
0.07896267
0.07922947
0.07908223
0.07913947
0.07921591
0.07862528
0.07829994
0.07800857
0.07717196
0.07667446
0.07598978
0.07510429
0.07413689
0.07335711
0.07276019
0.07209489
0.07165207
0.07095447
0.07015405
0.06931381
0.06838537
0.06765130
0.06699744
0.06627001
0.06553658
0.06490804
0.06429086
0.06355337
0.06292434
0.06213867
0.06139878
0.06063782
0.05982697
0.05911112
0.05829631
0.05751949
0.05686636
0.05617019
0.05550444
0.05467871
0.05407296
0.05350879
0.05293553
0.05248172
0.05219593
0.05254374
0.05369895
0.05566056
0.05806888
0.06074267
0.06338655
0.06606923
0.06868911
0.07152415
0.07397419
0.07584562
0.07736004
0.07931935
0.08049888
0.08218023
0.08364993
0.08470846
0.08653302
0.08847733
0.08958259
0.09357073
0.09038258
0.08994785
0.08614952
0.08254991
0.08908502
0.10647425
0.11759550
0.12556136
0.13009849
0.12407932
0.09228696
0.06839906
0.05590416
0.04797326
0.04188872
0.03773954
0.03470006
0.03280320
0.03142557
0.03071278
0.03000324
0.02952952
0.02908168
0.02887404
0.02885846
0.02893567
0.02926825
0.02999253
0.03101122
0.03262441
0.03476127
0.03734107
0.04034947
0.04406940
0.04811977
0.05198275
0.05562453
0.05897991
0.06225730
0.06518221
0.06786520
0.07000520
0.07210537
0.07394400
0.07509211
0.07600951
0.07702883
0.07790718
0.07866312
0.07881757
0.07878260
0.07910944
0.07935564
0.07970541
0.08039708
0.08062979
0.08039018
0.08044051
0.08053625
0.07997606
0.07957903
0.07925128
0.07843911
0.07794424
0.07723169
0.07633723
0.07537219
0.07456830
0.07389162
0.07322506
0.07281382
0.07209519
0.07124923
0.07045768
0.06944760
0.06868613
0.06799845
0.06724378
0.06650725
0.06591491
0.06529582
0.06455147
0.06383808
0.06303923
0.06230131
0.06153627
0.06073355
0.06002386
0.05919988
0.05841616
0.05776314
0.05704391
0.05637074
0.05554194
0.05494887
0.05437916
0.05380816
0.05331433
0.05301933
0.05330013
0.05432587
0.05615350
0.05846670
0.06103064
0.06364987
0.06634560
0.06896546
0.07168517
0.07452019
0.07652085
0.07820825
0.08012544
0.08154780
0.08407683
0.08474134
0.08651738
0.08906190
0.08934502
0.09030117
0.09480316
0.09430375
0.09231605
0.08766262
0.08359618
0.08754465
0.10423803
0.11576963
0.12447630
0.13158234
0.12877321
0.10148223
0.07377857
0.05965055
0.05043016
0.04369973
0.03905596
0.03571046
0.03362725
0.03210581
0.03128134
0.03039979
0.02980669
0.02932425
0.02910724
0.02915504
0.02925499
0.02967356
0.03049156
0.03163097
0.03335604
0.03560171
0.03830226
0.04143874
0.04527083
0.04938497
0.05329299
0.05702324
0.06043567
0.06378489
0.06682893
0.06956127
0.07167825
0.07376743
0.07555759
0.07671122
0.07769169
0.07870673
0.07953079
0.08019473
0.08033385
0.08027575
0.08060220
0.08081332
0.08112897
0.08183436
0.08199954
0.08170305
0.08175756
0.08187299
0.08130781
0.08087080
0.08049687
0.07974347
0.07921689
0.07849173
0.07753640
0.07661872
0.07575373
0.07499436
0.07436601
0.07393645
0.07319634
0.07231144
0.07154673
0.07051384
0.06971669
0.06894258
0.06816599
0.06744231
0.06687539
0.06622856
0.06548877
0.06470428
0.06389121
0.06313962
0.06236457
0.06157306
0.06088604
0.06005920
0.05926406
0.05858990
0.05785746
0.05717890
0.05636641
0.05577817
0.05518628
0.05462651
0.05408059
0.05376259
0.05398125
0.05491513
0.05661038
0.05881213
0.06125965
0.06386200
0.06644173
0.06916555
0.07180739
0.07451549
0.07694383
0.07901601
0.08074127
0.08245954
0.08507165
0.08632683
0.08810521
0.09011665
0.09100004
0.09194244
0.09461416
0.09792758
0.09436827
0.08872055
0.08458800
0.08625061
0.10139272
0.11275644
0.12234312
0.13141792
0.13208720
0.11070298
0.08018882
0.06379962
0.05318534
0.04563203
0.04055429
0.03688482
0.03455563
0.03284397
0.03184728
0.03084462
0.03014542
0.02961072
0.02939835
0.02943010
0.02961381
0.03012352
0.03104428
0.03229406
0.03412969
0.03649101
0.03932160
0.04258258
0.04651998
0.05071292
0.05464324
0.05847610
0.06193778
0.06532741
0.06851183
0.07127801
0.07341449
0.07543132
0.07721091
0.07838914
0.07942598
0.08042143
0.08119254
0.08179035
0.08191366
0.08184185
0.08213233
0.08232615
0.08259708
0.08328644
0.08337360
0.08302956
0.08310564
0.08323407
0.08263206
0.08219130
0.08177346
0.08106468
0.08050799
0.07976940
0.07875129
0.07788239
0.07693433
0.07611405
0.07551716
0.07505245
0.07430630
0.07337425
0.07259095
0.07156998
0.07072694
0.06984226
0.06906577
0.06835708
0.06780298
0.06710483
0.06637785
0.06556197
0.06471460
0.06394195
0.06314447
0.06237876
0.06171842
0.06088552
0.06007901
0.05936630
0.05862842
0.05794580
0.05716640
0.05656854
0.05596056
0.05539348
0.05481933
0.05445721
0.05461231
0.05546961
0.05702715
0.05909923
0.06143103
0.06396023
0.06652748
0.06918460
0.07201339
0.07458474
0.07701281
0.07924026
0.08067650
0.08289913
0.08518321
0.08751578
0.08853840
0.09024992
0.09164479
0.09307086
0.09089501
0.10007555
0.09562789
0.08956782
0.08536633
0.08530403
0.09790686
0.10914607
0.11951414
0.12981689
0.13434704
0.11950053
0.08745806
0.06850489
0.05639013
0.04784757
0.04216056
0.03813174
0.03551545
0.03361558
0.03244974
0.03132147
0.03053438
0.02995504
0.02971882
0.02974693
0.03001562
0.03061097
0.03163236
0.03300391
0.03495086
0.03742606
0.04041321
0.04378147
0.04783113
0.05210169
0.05604071
0.05998882
0.06347419
0.06688692
0.07020841
0.07300648
0.07521284
0.07710722
0.07889728
0.08014243
0.08121894
0.08220212
0.08289553
0.08345745
0.08355611
0.08347410
0.08373741
0.08392131
0.08414677
0.08477153
0.08480855
0.08437798
0.08449781
0.08461209
0.08398354
0.08353609
0.08306549
0.08239607
0.08181580
0.08106056
0.08002770
0.07915139
0.07813727
0.07728361
0.07666064
0.07618327
0.07541850
0.07443667
0.07360269
0.07256634
0.07168270
0.07073359
0.06997220
0.06925733
0.06868776
0.06794768
0.06723606
0.06641885
0.06552276
0.06472313
0.06391157
0.06318500
0.06252733
0.06168011
0.06087230
0.06011467
0.05937782
0.05867550
0.05793642
0.05732081
0.05670907
0.05610998
0.05554412
0.05512921
0.05521825
0.05599241
0.05742969
0.05935709
0.06158185
0.06406624
0.06658398
0.06922159
0.07202029
0.07459953
0.07686706
0.07907819
0.08063181
0.08306684
0.08500399
0.08684504
0.08884959
0.09057824
0.09217321
0.09388916
0.09321301
0.10087809
0.09549616
0.09029201
0.08598640
0.08471763
0.09469463
0.10529278
0.11615436
0.12736442
0.13572600
0.12749102
0.09500771
0.07363911
0.06000244
0.05032582
0.04394578
0.03949508
0.03660065
0.03449670
0.03310675
0.03182681
0.03097566
0.03033475
0.03008570
0.03012881
0.03047164
0.03116137
0.03229343
0.03377428
0.03582994
0.03843092
0.04156089
0.04504901
0.04919095
0.05353973
0.05750086
0.06155330
0.06506059
0.06851054
0.07191632
0.07476097
0.07705532
0.07886073
0.08063363
0.08196377
0.08304330
0.08405203
0.08467772
0.08519628
0.08526660
0.08518702
0.08543230
0.08557544
0.08578895
0.08634674
0.08633433
0.08578675
0.08594339
0.08603845
0.08539805
0.08493945
0.08440797
0.08375481
0.08314242
0.08235845
0.08135926
0.08042297
0.07938164
0.07850879
0.07780863
0.07733238
0.07651819
0.07548547
0.07459617
0.07352587
0.07259241
0.07164655
0.07088253
0.07015590
0.06954055
0.06877918
0.06808553
0.06725861
0.06632233
0.06548649
0.06469416
0.06400209
0.06331048
0.06245259
0.06164685
0.06086177
0.06011913
0.05937972
0.05867909
0.05803950
0.05742448
0.05680540
0.05626202
0.05579738
0.05581497
0.05649737
0.05781823
0.05959839
0.06172165
0.06412601
0.06654518
0.06922751
0.07184476
0.07453965
0.07692720
0.07903761
0.08113166
0.08312761
0.08499786
0.08653310
0.08828308
0.09093639
0.09241245
0.09411619
0.09480298
0.10063177
0.09482540
0.09097827
0.08655574
0.08450558
0.09185205
0.10138866
0.11238559
0.12445920
0.13622681
0.13431735
0.10269434
0.07936974
0.06407559
0.05316170
0.04601458
0.04108503
0.03781691
0.03544963
0.03384267
0.03242305
0.03147706
0.03078099
0.03051987
0.03057717
0.03098394
0.03178375
0.03302320
0.03460876
0.03677323
0.03951164
0.04275115
0.04639460
0.05062109
0.05502436
0.05904041
0.06315324
0.06672041
0.07021696
0.07366383
0.07655386
0.07894893
0.08071011
0.08246589
0.08385284
0.08491001
0.08595906
0.08654147
0.08699365
0.08704735
0.08700092
0.08720529
0.08731170
0.08751795
0.08800295
0.08795494
0.08730666
0.08746000
0.08753643
0.08685895
0.08641318
0.08583230
0.08517752
0.08451359
0.08367470
0.08272277
0.08171768
0.08067073
0.07978075
0.07901666
0.07850735
0.07759788
0.07650982
0.07557863
0.07450186
0.07349963
0.07259256
0.07183308
0.07106601
0.07039045
0.06962167
0.06894230
0.06808157
0.06712593
0.06626323
0.06549880
0.06479885
0.06408356
0.06321393
0.06240539
0.06162292
0.06085849
0.06007890
0.05939967
0.05873401
0.05812514
0.05749595
0.05696958
0.05647357
0.05641057
0.05700587
0.05821140
0.05985406
0.06187137
0.06417867
0.06654865
0.06916008
0.07172507
0.07432944
0.07678465
0.07901354
0.08143312
0.08323288
0.08504784
0.08699835
0.08837798
0.09134149
0.09271504
0.09365632
0.09530972
0.09834593
0.09471549
0.09148199
0.08713973
0.08456038
0.08945325
0.09772805
0.10843491
0.12114085
0.13530395
0.13998887
0.11076756
0.08567601
0.06866123
0.05635933
0.04834109
0.04282178
0.03918077
0.03651548
0.03470594
0.03310352
0.03205161
0.03130403
0.03103960
0.03109183
0.03157638
0.03246962
0.03383180