/*--------------------------------*- C++ -*----------------------------------*\
  =========                 |
  \\      /  F ield         | OpenFOAM: The Open Source CFD Toolbox
   \\    /   O peration     | Website:  https://openfoam.org
    \\  /    A nd           | Version:  7
     \\/     M anipulation  |
\*---------------------------------------------------------------------------*/
FoamFile
{
    version     2.0;
    format      ascii;
    class       volSymmTensorField;
    location    "0";
    object      tauij_LES;
}
// * * * * * * * * * * * * * * * * * * * * * * * * * * * * * * * * * * * * * //

dimensions      [0 2 -2 0 0 0 0];

internalField   nonuniform List<symmTensor>
15600
(
(0.01537941 -0.00023992 0.00000000 0.00008534 0.00000000 0.00901399)
(0.01930498 -0.00015725 0.00000000 0.00003838 0.00000000 0.01152529)
(0.00114968 -0.00026086 0.00000000 0.00009633 0.00000000 0.00069890)
(0.00405532 -0.00047841 0.00000000 -0.00009071 0.00000000 0.00328612)
(0.00168183 -0.00115446 0.00000000 0.00082591 0.00000000 0.00398957)
(0.00131224 -0.00056591 0.00000000 0.00035597 0.00000000 0.00128612)
(0.00506807 -0.00394715 0.00000000 0.00307807 0.00000000 0.00721586)
(0.00445373 -0.00340410 0.00000000 0.00267819 0.00000000 0.00595793)
(0.00155312 -0.00117533 0.00000000 0.00089452 0.00000000 0.00204917)
(0.00198393 -0.00159420 0.00000000 0.00130062 0.00000000 0.00360519)
(0.00031552 -0.00042374 0.00000000 0.00058974 0.00000000 0.00218754)
(0.00039130 -0.00032166 0.00000000 0.00027996 0.00000000 0.00058603)
(0.00057144 -0.00040327 0.00000000 0.00028100 0.00000000 0.00085898)
(0.00089692 -0.00061248 0.00000000 0.00041492 0.00000000 0.00139167)
(0.00081519 -0.00054819 0.00000000 0.00037259 0.00000000 0.00160561)
(0.00068947 -0.00049207 0.00000000 0.00034269 0.00000000 0.00163497)
(0.00074144 -0.00051373 0.00000000 0.00036460 0.00000000 0.00156633)
(0.00072737 -0.00044609 0.00000000 0.00027307 0.00000000 0.00127939)
(0.00072973 -0.00044168 0.00000000 0.00026697 0.00000000 0.00119184)
(0.00192297 -0.00118443 0.00000000 0.00073242 0.00000000 0.00239063)
(0.00051684 -0.00027885 0.00000000 0.00013973 0.00000000 0.00055889)
(0.00098498 -0.00036003 0.00000000 0.00014295 0.00000000 0.00086132)
(0.00163052 -0.00071939 0.00000000 0.00034712 0.00000000 0.00301883)
(0.00209120 -0.00099871 0.00000000 0.00047309 0.00000000 0.00254914)
(0.00253642 -0.00079735 0.00000000 0.00029830 0.00000000 0.00474201)
(0.00240906 -0.00049368 0.00000000 0.00014303 0.00000000 0.00319315)
(0.00370356 -0.00056868 0.00000000 0.00013066 0.00000000 0.00306714)
(0.00312948 -0.00000942 0.00000000 -0.00000887 0.00000000 0.00286055)
(0.00265749 0.00001060 0.00000000 -0.00001419 0.00000000 0.00228271)
(0.00309494 0.00001378 0.00000000 -0.00002208 0.00000000 0.00271121)
(0.00347003 0.00001686 0.00000000 -0.00002473 0.00000000 0.00313152)
(0.00382598 0.00002082 0.00000000 -0.00002612 0.00000000 0.00360461)
(0.00406776 0.00002252 0.00000000 -0.00002723 0.00000000 0.00401303)
(0.00431143 0.00002473 0.00000000 -0.00002835 0.00000000 0.00441095)
(0.00454383 0.00002652 0.00000000 -0.00002010 0.00000000 0.00482176)
(0.00473723 0.00002799 0.00000000 -0.00002952 0.00000000 0.00511761)
(0.00484038 0.00002676 0.00000000 -0.00003826 0.00000000 0.00537056)
(0.00505011 0.00002779 0.00000000 -0.00003922 0.00000000 0.00561985)
(0.00513939 0.00002797 0.00000000 -0.00003721 0.00000000 0.00576595)
(0.00514616 0.00002703 0.00000000 -0.00003655 0.00000000 0.00589847)
(0.00513836 0.00002683 0.00000000 -0.00003329 0.00000000 0.00605908)
(0.00515572 0.00002587 0.00000000 -0.00004681 0.00000000 0.00616355)
(0.00522166 0.00002529 0.00000000 -0.00004728 0.00000000 0.00637063)
(0.00520977 0.00002237 0.00000000 -0.00004226 0.00000000 0.00642870)
(0.00516851 0.00001949 0.00000000 -0.00003837 0.00000000 0.00635731)
(0.00511671 0.00001962 0.00000000 -0.00003731 0.00000000 0.00635378)
(0.00515319 0.00001705 0.00000000 -0.00003445 0.00000000 0.00638988)
(0.00514284 0.00001542 0.00000000 -0.00003069 0.00000000 0.00640327)
(0.00504051 0.00001363 0.00000000 -0.00003162 0.00000000 0.00639911)
(0.00497578 0.00001231 0.00000000 -0.00003690 0.00000000 0.00630644)
(0.00489557 0.00001278 0.00000000 -0.00003733 0.00000000 0.00631847)
(0.00494000 0.00000842 0.00000000 -0.00003259 0.00000000 0.00626708)
(0.00488799 0.00000659 0.00000000 -0.00002834 0.00000000 0.00617139)
(0.00477844 0.00000263 0.00000000 -0.00001993 0.00000000 0.00608812)
(0.00461199 0.00000447 0.00000000 -0.00003486 0.00000000 0.00586964)
(0.00458855 0.00000188 0.00000000 -0.00002989 0.00000000 0.00573266)
(0.00455780 0.00000149 0.00000000 -0.00002828 0.00000000 0.00558218)
(0.00440418 0.00000270 0.00000000 -0.00003076 0.00000000 0.00538011)
(0.00419885 0.00000099 0.00000000 -0.00002701 0.00000000 0.00522953)
(0.00402169 0.00000366 0.00000000 -0.00003583 0.00000000 0.00507039)
(0.00389986 0.00000290 0.00000000 -0.00003440 0.00000000 0.00490712)
(0.00389045 -0.00000534 0.00000000 -0.00001367 0.00000000 0.00487132)
(0.00374282 -0.00000112 0.00000000 -0.00002699 0.00000000 0.00461305)
(0.00369809 -0.00000125 0.00000000 -0.00002493 0.00000000 0.00450394)
(0.00359889 -0.00000244 0.00000000 -0.00002276 0.00000000 0.00441119)
(0.00348209 -0.00000169 0.00000000 -0.00002431 0.00000000 0.00424128)
(0.00333373 -0.00000220 0.00000000 -0.00002321 0.00000000 0.00404833)
(0.00332872 -0.00000326 0.00000000 -0.00001879 0.00000000 0.00396815)
(0.00319894 -0.00000374 0.00000000 -0.00001831 0.00000000 0.00382703)
(0.00310069 -0.00000077 0.00000000 -0.00002114 0.00000000 0.00366321)
(0.00300994 -0.00000333 0.00000000 -0.00001671 0.00000000 0.00358720)
(0.00291738 -0.00000083 0.00000000 -0.00001928 0.00000000 0.00344037)
(0.00291585 -0.00000181 0.00000000 -0.00001783 0.00000000 0.00338037)
(0.00278926 -0.00000043 0.00000000 -0.00001895 0.00000000 0.00330569)
(0.00271933 -0.00000106 0.00000000 -0.00001778 0.00000000 0.00323414)
(0.00270541 -0.00000195 0.00000000 -0.00001568 0.00000000 0.00317877)
(0.00259439 -0.00000007 0.00000000 -0.00001716 0.00000000 0.00307700)
(0.00248328 0.00000141 0.00000000 -0.00001794 0.00000000 0.00297873)
(0.00237790 0.00000101 0.00000000 -0.00001709 0.00000000 0.00289057)
(0.00236560 -0.00000345 0.00000000 -0.00001119 0.00000000 0.00285721)
(0.00222598 -0.00000094 0.00000000 -0.00001281 0.00000000 0.00273576)
(0.00213513 -0.00000046 0.00000000 -0.00001242 0.00000000 0.00264758)
(0.00200896 0.00000151 0.00000000 -0.00001420 0.00000000 0.00255368)
(0.00193206 0.00000123 0.00000000 -0.00001329 0.00000000 0.00248245)
(0.00186096 0.00000115 0.00000000 -0.00001177 0.00000000 0.00241936)
(0.00179230 0.00000168 0.00000000 -0.00001246 0.00000000 0.00237037)
(0.00172909 0.00000097 0.00000000 -0.00001109 0.00000000 0.00234319)
(0.00161635 0.00000197 0.00000000 -0.00001115 0.00000000 0.00229308)
(0.00151054 0.00000297 0.00000000 -0.00001149 0.00000000 0.00224122)
(0.00148484 -0.00000040 0.00000000 -0.00000718 0.00000000 0.00229035)
(0.00131976 0.00000479 0.00000000 -0.00001171 0.00000000 0.00217686)
(0.00129545 0.00000036 0.00000000 -0.00000603 0.00000000 0.00230758)
(0.00184787 -0.00000198 0.00000000 -0.00000622 0.00000000 0.00382116)
(0.00131231 0.00003056 0.00000000 -0.00000827 0.00000000 0.00302712)
(0.00076330 0.00003296 0.00000000 -0.00001772 0.00000000 0.00259509)
(-0.00001497 0.00008417 0.00000000 0.00006059 0.00000000 0.00103864)
(0.00047622 -0.00005144 0.00000000 -0.00008646 0.00000000 0.00118807)
(0.00032363 0.00017342 0.00000000 0.00008909 0.00000000 0.00139850)
(-0.00023663 -0.00010177 0.00000000 -0.00004662 0.00000000 0.00042990)
(-0.00012285 -0.00006503 0.00000000 -0.00002792 0.00000000 -0.00030403)
(-0.00000962 0.00000657 0.00000000 0.00001312 0.00000000 0.00001726)
(-0.00003880 -0.00002845 0.00000000 -0.00001909 0.00000000 -0.00022345)
(-0.00033074 -0.00023680 0.00000000 -0.00018477 0.00000000 -0.00048941)
(-0.00004819 -0.00005288 0.00000000 -0.00005457 0.00000000 -0.00020122)
(-0.00068867 -0.00056139 0.00000000 -0.00049978 0.00000000 -0.00063382)
(-0.00004036 -0.00001814 0.00000000 -0.00000355 0.00000000 -0.00011238)
(-0.00025905 -0.00018324 0.00000000 -0.00013827 0.00000000 -0.00082113)
(-0.00050427 -0.00033554 0.00000000 -0.00025608 0.00000000 -0.00130252)
(-0.00009245 -0.00008124 0.00000000 -0.00008337 0.00000000 -0.00056394)
(-0.00030165 -0.00028908 0.00000000 -0.00027941 0.00000000 -0.00198113)
(-0.00027385 -0.00020368 0.00000000 -0.00015204 0.00000000 -0.00150232)
(-0.00035095 -0.00025158 0.00000000 -0.00017261 0.00000000 -0.00141519)
(0.00000543 0.00000668 0.00000000 0.00000835 0.00000000 0.00003979)
(0.00027028 0.00024509 0.00000000 0.00018168 0.00000000 0.00005570)
(-0.00048441 -0.00023372 0.00000000 -0.00012193 0.00000000 -0.00061249)
(-0.00122779 -0.00032694 0.00000000 -0.00011749 0.00000000 -0.00170176)
(0.00178551 -0.00037404 0.00000000 0.00002630 0.00000000 0.00174738)
(0.00067091 -0.00003081 0.00000000 -0.00001560 0.00000000 0.00013190)
(0.00345396 -0.00003623 0.00000000 0.00002372 0.00000000 0.00339874)
(0.00874498 -0.00010288 0.00000000 0.00002861 0.00000000 0.00573294)
(0.02270610 -0.00051605 0.00000000 0.00024100 0.00000000 0.01216147)
(0.02865531 -0.00056531 0.00000000 0.00029545 0.00000000 0.01593673)
(0.00721764 -0.00083606 0.00000000 0.00018852 0.00000000 0.00331597)
(0.00755302 -0.00116671 0.00000000 0.00015206 0.00000000 0.00657089)
(0.00258467 -0.00185910 0.00000000 0.00138989 0.00000000 0.00607076)
(0.00423848 -0.00134494 0.00000000 0.00079909 0.00000000 0.00395151)
(0.00741622 -0.00570325 0.00000000 0.00469091 0.00000000 0.01075728)
(0.00670549 -0.00508024 0.00000000 0.00413315 0.00000000 0.00912742)
(0.00387416 -0.00289487 0.00000000 0.00228946 0.00000000 0.00501760)
(0.00391444 -0.00324596 0.00000000 0.00278417 0.00000000 0.00693246)
(0.00071830 -0.00128557 0.00000000 0.00202529 0.00000000 0.00389758)
(0.00137310 -0.00107846 0.00000000 0.00088594 0.00000000 0.00186193)
(0.00183677 -0.00130307 0.00000000 0.00093841 0.00000000 0.00247553)
(0.00260407 -0.00183930 0.00000000 0.00132629 0.00000000 0.00361908)
(0.00231938 -0.00177319 0.00000000 0.00141612 0.00000000 0.00392078)
(0.00216326 -0.00176487 0.00000000 0.00148535 0.00000000 0.00391894)
(0.00254694 -0.00197054 0.00000000 0.00157025 0.00000000 0.00419513)
(0.00286376 -0.00199120 0.00000000 0.00142349 0.00000000 0.00399415)
(0.00338988 -0.00225016 0.00000000 0.00153554 0.00000000 0.00423335)
(0.00448970 -0.00268400 0.00000000 0.00169718 0.00000000 0.00514678)
(0.00327260 -0.00190760 0.00000000 0.00114091 0.00000000 0.00343893)
(0.00454402 -0.00189534 0.00000000 0.00088160 0.00000000 0.00406850)
(0.00595349 -0.00249069 0.00000000 0.00119030 0.00000000 0.00821992)
(0.00674927 -0.00234199 0.00000000 0.00099196 0.00000000 0.00698029)
(0.00724752 -0.00199521 0.00000000 0.00080695 0.00000000 0.01003541)
(0.00820741 -0.00163652 0.00000000 0.00055393 0.00000000 0.00873783)
(0.01038287 -0.00150561 0.00000000 0.00051299 0.00000000 0.00927789)
(0.00936673 0.00001081 0.00000000 0.00016430 0.00000000 0.00817463)
(0.00940576 0.00004704 0.00000000 0.00011102 0.00000000 0.00807369)
(0.01074626 0.00007401 0.00000000 0.00014076 0.00000000 0.00956958)
(0.01182141 0.00007865 0.00000000 0.00016179 0.00000000 0.01098503)
(0.01276123 0.00009395 0.00000000 0.00018116 0.00000000 0.01243108)
(0.01332727 0.00009058 0.00000000 0.00019744 0.00000000 0.01360549)
(0.01401736 0.00009363 0.00000000 0.00021565 0.00000000 0.01486835)
(0.01454967 0.00008593 0.00000000 0.00024171 0.00000000 0.01600378)
(0.01518937 0.00009418 0.00000000 0.00024730 0.00000000 0.01705715)
(0.01557247 0.00007582 0.00000000 0.00024984 0.00000000 0.01796720)
(0.01618890 0.00007272 0.00000000 0.00027005 0.00000000 0.01871231)
(0.01636588 0.00007731 0.00000000 0.00027124 0.00000000 0.01907217)
(0.01642148 0.00006986 0.00000000 0.00027370 0.00000000 0.01958827)
(0.01635850 0.00006433 0.00000000 0.00027659 0.00000000 0.02000348)
(0.01647014 0.00004988 0.00000000 0.00028642 0.00000000 0.02054165)
(0.01663710 0.00003383 0.00000000 0.00029267 0.00000000 0.02115576)
(0.01666741 0.00002529 0.00000000 0.00029267 0.00000000 0.02127651)
(0.01659696 0.00001550 0.00000000 0.00028330 0.00000000 0.02105972)
(0.01646888 0.00001571 0.00000000 0.00028370 0.00000000 0.02102499)
(0.01657735 -0.00000585 0.00000000 0.00027337 0.00000000 0.02106763)
(0.01659277 -0.00001640 0.00000000 0.00030421 0.00000000 0.02116868)
(0.01634626 -0.00002095 0.00000000 0.00030053 0.00000000 0.02129990)
(0.01615460 -0.00003511 0.00000000 0.00029696 0.00000000 0.02108159)
(0.01597844 -0.00004562 0.00000000 0.00028457 0.00000000 0.02106624)
(0.01609585 -0.00005831 0.00000000 0.00027044 0.00000000 0.02088597)
(0.01590459 -0.00005926 0.00000000 0.00025823 0.00000000 0.02048978)
(0.01571012 -0.00007641 0.00000000 0.00027099 0.00000000 0.02024420)
(0.01547540 -0.00008616 0.00000000 0.00024937 0.00000000 0.01981146)
(0.01537051 -0.00009569 0.00000000 0.00024046 0.00000000 0.01927971)
(0.01534783 -0.00010291 0.00000000 0.00023670 0.00000000 0.01888003)
(0.01495976 -0.00009148 0.00000000 0.00022542 0.00000000 0.01823327)
(0.01438049 -0.00009339 0.00000000 0.00020656 0.00000000 0.01772575)
(0.01413893 -0.00010802 0.00000000 0.00021901 0.00000000 0.01754341)
(0.01373397 -0.00010775 0.00000000 0.00019715 0.00000000 0.01699120)
(0.01343213 -0.00011818 0.00000000 0.00020251 0.00000000 0.01654078)
(0.01324086 -0.00012568 0.00000000 0.00018873 0.00000000 0.01597091)
(0.01309819 -0.00012041 0.00000000 0.00018155 0.00000000 0.01559063)
(0.01284723 -0.00012803 0.00000000 0.00017466 0.00000000 0.01526701)
(0.01261513 -0.00012941 0.00000000 0.00016862 0.00000000 0.01482341)
(0.01227471 -0.00013575 0.00000000 0.00015698 0.00000000 0.01428122)
(0.01211358 -0.00012587 0.00000000 0.00015059 0.00000000 0.01392745)
(0.01176776 -0.00013460 0.00000000 0.00014775 0.00000000 0.01351346)
(0.01161524 -0.00013338 0.00000000 0.00014592 0.00000000 0.01307924)
(0.01120822 -0.00012803 0.00000000 0.00013679 0.00000000 0.01268414)
(0.01108317 -0.00013232 0.00000000 0.00012982 0.00000000 0.01235055)
(0.01103470 -0.00013359 0.00000000 0.00012983 0.00000000 0.01209941)
(0.01069080 -0.00013248 0.00000000 0.00012393 0.00000000 0.01187322)
(0.01049965 -0.00013642 0.00000000 0.00012111 0.00000000 0.01164753)
(0.01037810 -0.00013292 0.00000000 0.00011234 0.00000000 0.01142521)
(0.01017559 -0.00013181 0.00000000 0.00011426 0.00000000 0.01123393)
(0.00991604 -0.00012961 0.00000000 0.00010936 0.00000000 0.01097633)
(0.00958597 -0.00012763 0.00000000 0.00010293 0.00000000 0.01069836)
(0.00925450 -0.00012825 0.00000000 0.00010303 0.00000000 0.01038136)
(0.00883585 -0.00012188 0.00000000 0.00009396 0.00000000 0.01002469)
(0.00853153 -0.00011777 0.00000000 0.00009144 0.00000000 0.00974279)
(0.00824171 -0.00011904 0.00000000 0.00008848 0.00000000 0.00952494)
(0.00790254 -0.00011335 0.00000000 0.00008128 0.00000000 0.00923395)
(0.00764366 -0.00011001 0.00000000 0.00008096 0.00000000 0.00902562)
(0.00743263 -0.00011168 0.00000000 0.00008268 0.00000000 0.00888656)
(0.00708048 -0.00010487 0.00000000 0.00007604 0.00000000 0.00872880)
(0.00671975 -0.00010191 0.00000000 0.00007742 0.00000000 0.00864550)
(0.00629928 -0.00009404 0.00000000 0.00007044 0.00000000 0.00854727)
(0.00593849 -0.00008889 0.00000000 0.00007260 0.00000000 0.00854743)
(0.00544789 -0.00007591 0.00000000 0.00006457 0.00000000 0.00845493)
(0.00494778 -0.00006644 0.00000000 0.00006300 0.00000000 0.00858571)
(0.00540975 -0.00006701 0.00000000 0.00011525 0.00000000 0.01140184)
(0.00547538 0.00032298 0.00000000 0.00013675 0.00000000 0.01304544)
(0.00401432 0.00086067 0.00000000 0.00032385 0.00000000 0.01331447)
(0.00311144 0.00139120 0.00000000 0.00067802 0.00000000 0.01054656)
(0.00345003 0.00097963 0.00000000 0.00034907 0.00000000 0.01131729)
(0.00207304 0.00107274 0.00000000 0.00057697 0.00000000 0.00817453)
(0.00167401 0.00063793 0.00000000 0.00026984 0.00000000 0.00755787)
(0.00045323 0.00027155 0.00000000 0.00016024 0.00000000 0.00133330)
(0.00151775 0.00096992 0.00000000 0.00062672 0.00000000 0.00615990)
(0.00020629 0.00004732 0.00000000 -0.00004199 0.00000000 0.00239254)
(0.00030629 0.00017208 0.00000000 0.00007506 0.00000000 0.00312703)
(0.00007252 -0.00006726 0.00000000 -0.00016907 0.00000000 0.00302605)
(-0.00018388 -0.00006997 0.00000000 0.00002410 0.00000000 0.00332722)
(0.00018355 0.00005191 0.00000000 -0.00004763 0.00000000 0.00296181)
(-0.00030718 -0.00023768 0.00000000 -0.00022306 0.00000000 0.00087322)
(-0.00034471 -0.00022357 0.00000000 -0.00018879 0.00000000 -0.00023296)
(-0.00008064 -0.00007221 0.00000000 -0.00007659 0.00000000 -0.00062924)
(-0.00067930 -0.00064781 0.00000000 -0.00062757 0.00000000 -0.00388414)
(-0.00032759 -0.00026709 0.00000000 -0.00023416 0.00000000 -0.00030852)
(-0.00033669 -0.00024499 0.00000000 -0.00017067 0.00000000 -0.00133824)
(0.00082809 0.00059123 0.00000000 0.00042502 0.00000000 0.00316530)
(0.00155718 0.00128121 0.00000000 0.00094482 0.00000000 0.00272178)
(-0.00104158 -0.00043197 0.00000000 -0.00019535 0.00000000 -0.00106824)
(-0.00195228 -0.00048883 0.00000000 -0.00016635 0.00000000 -0.00256632)
(0.00388554 -0.00047339 0.00000000 0.00008012 0.00000000 0.00367951)
(0.00523702 0.00004414 0.00000000 -0.00000808 0.00000000 0.00136546)
(0.00791664 -0.00001772 0.00000000 0.00005110 0.00000000 0.00512435)
(0.01413814 -0.00022403 0.00000000 0.00009303 0.00000000 0.00793192)
(0.03268628 -0.00096625 0.00000000 0.00050634 0.00000000 0.01590897)
(0.04009624 -0.00114528 0.00000000 0.00066882 0.00000000 0.02105518)
(0.01591172 -0.00155260 0.00000000 0.00029075 0.00000000 0.00695130)
(0.01181177 -0.00206076 0.00000000 0.00061506 0.00000000 0.01037083)
(0.00384849 -0.00280752 0.00000000 0.00217501 0.00000000 0.00862275)
(0.00801789 -0.00243515 0.00000000 0.00148885 0.00000000 0.00757608)
(0.01072636 -0.00815907 0.00000000 0.00703762 0.00000000 0.01571845)
(0.00943504 -0.00708076 0.00000000 0.00596634 0.00000000 0.01305137)
(0.00583983 -0.00434992 0.00000000 0.00347062 0.00000000 0.00767279)
(0.00530015 -0.00435067 0.00000000 0.00379628 0.00000000 0.00958987)
(0.00195548 -0.00273640 0.00000000 0.00385395 0.00000000 0.00599962)
(0.00328015 -0.00251503 0.00000000 0.00200773 0.00000000 0.00407168)
(0.00431284 -0.00308702 0.00000000 0.00230376 0.00000000 0.00544320)
(0.00509052 -0.00364128 0.00000000 0.00272314 0.00000000 0.00672687)
(0.00432330 -0.00344665 0.00000000 0.00289161 0.00000000 0.00681497)
(0.00454453 -0.00358117 0.00000000 0.00304224 0.00000000 0.00626353)
(0.00522420 -0.00395247 0.00000000 0.00315399 0.00000000 0.00704995)
(0.00597711 -0.00419948 0.00000000 0.00311781 0.00000000 0.00724303)
(0.00715800 -0.00469585 0.00000000 0.00326045 0.00000000 0.00785147)
(0.00820887 -0.00492492 0.00000000 0.00322362 0.00000000 0.00890061)
(0.00832016 -0.00482087 0.00000000 0.00299635 0.00000000 0.00833475)
(0.01041266 -0.00474529 0.00000000 0.00247266 0.00000000 0.00942029)
(0.01058594 -0.00431225 0.00000000 0.00220019 0.00000000 0.01206471)
(0.01257805 -0.00419127 0.00000000 0.00189119 0.00000000 0.01250935)
(0.01256404 -0.00306901 0.00000000 0.00139685 0.00000000 0.01439321)
(0.01440446 -0.00263769 0.00000000 0.00114674 0.00000000 0.01445628)
(0.01602241 -0.00186393 0.00000000 0.00102703 0.00000000 0.01484315)
(0.01659536 -0.00000618 0.00000000 0.00064265 0.00000000 0.01415445)
(0.01777234 0.00008604 0.00000000 0.00062450 0.00000000 0.01534198)
(0.01962861 0.00013981 0.00000000 0.00073829 0.00000000 0.01783338)
(0.02112524 0.00012365 0.00000000 0.00084209 0.00000000 0.02027437)
(0.02245459 0.00014749 0.00000000 0.00093187 0.00000000 0.02267122)
(0.02329385 0.00012972 0.00000000 0.00102115 0.00000000 0.02471295)
(0.02421258 0.00011579 0.00000000 0.00110884 0.00000000 0.02673837)
(0.02498170 0.00008132 0.00000000 0.00118166 0.00000000 0.02867294)
(0.02583073 0.00008322 0.00000000 0.00124703 0.00000000 0.03026347)
(0.02632572 0.00001198 0.00000000 0.00130753 0.00000000 0.03165697)
(0.02743315 0.00000258 0.00000000 0.00135431 0.00000000 0.03298982)
(0.02781948 0.00003120 0.00000000 0.00137388 0.00000000 0.03381185)
(0.02780885 0.00000217 0.00000000 0.00139166 0.00000000 0.03465849)
(0.02766334 -0.00002148 0.00000000 0.00142012 0.00000000 0.03526142)
(0.02769149 -0.00006548 0.00000000 0.00144995 0.00000000 0.03607242)
(0.02793918 -0.00011760 0.00000000 0.00148205 0.00000000 0.03704754)
(0.02819372 -0.00012651 0.00000000 0.00147312 0.00000000 0.03729231)
(0.02820521 -0.00014658 0.00000000 0.00146087 0.00000000 0.03701498)
(0.02819429 -0.00013758 0.00000000 0.00144325 0.00000000 0.03709568)
(0.02830579 -0.00021623 0.00000000 0.00146003 0.00000000 0.03703830)
(0.02839190 -0.00021784 0.00000000 0.00144618 0.00000000 0.03715113)
(0.02794422 -0.00022003 0.00000000 0.00142169 0.00000000 0.03734141)
(0.02777776 -0.00024618 0.00000000 0.00140265 0.00000000 0.03728004)
(0.02771730 -0.00029795 0.00000000 0.00140797 0.00000000 0.03735415)
(0.02793436 -0.00031976 0.00000000 0.00137653 0.00000000 0.03719378)
(0.02775769 -0.00032366 0.00000000 0.00135294 0.00000000 0.03661173)
(0.02759695 -0.00035004 0.00000000 0.00131101 0.00000000 0.03603032)
(0.02750038 -0.00038081 0.00000000 0.00128236 0.00000000 0.03547047)
(0.02750217 -0.00040824 0.00000000 0.00126074 0.00000000 0.03470374)
(0.02756181 -0.00042654 0.00000000 0.00121877 0.00000000 0.03412104)
(0.02720216 -0.00038369 0.00000000 0.00116584 0.00000000 0.03314501)
(0.02634281 -0.00039433 0.00000000 0.00113952 0.00000000 0.03216317)
(0.02597204 -0.00041809 0.00000000 0.00110198 0.00000000 0.03183692)
(0.02545518 -0.00042851 0.00000000 0.00106174 0.00000000 0.03103163)
(0.02502485 -0.00044444 0.00000000 0.00102270 0.00000000 0.03028303)
(0.02489304 -0.00046612 0.00000000 0.00098371 0.00000000 0.02948303)
(0.02470901 -0.00045722 0.00000000 0.00096329 0.00000000 0.02883112)
(0.02449500 -0.00048339 0.00000000 0.00094003 0.00000000 0.02828954)
(0.02419499 -0.00047879 0.00000000 0.00089184 0.00000000 0.02756822)
(0.02380074 -0.00049685 0.00000000 0.00085698 0.00000000 0.02670414)
(0.02359326 -0.00046929 0.00000000 0.00081796 0.00000000 0.02626032)
(0.02308988 -0.00049217 0.00000000 0.00079108 0.00000000 0.02556591)
(0.02292096 -0.00048845 0.00000000 0.00076620 0.00000000 0.02482222)
(0.02228179 -0.00047286 0.00000000 0.00073820 0.00000000 0.02406959)
(0.02214058 -0.00049188 0.00000000 0.00070471 0.00000000 0.02352302)
(0.02206885 -0.00049330 0.00000000 0.00070064 0.00000000 0.02305613)
(0.02163606 -0.00049619 0.00000000 0.00067190 0.00000000 0.02273326)
(0.02139672 -0.00050695 0.00000000 0.00065269 0.00000000 0.02238782)
(0.02121342 -0.00050451 0.00000000 0.00063301 0.00000000 0.02203571)
(0.02082049 -0.00049014 0.00000000 0.00061561 0.00000000 0.02168065)
(0.02038592 -0.00048544 0.00000000 0.00059883 0.00000000 0.02118847)
(0.01984194 -0.00047260 0.00000000 0.00057083 0.00000000 0.02070709)
(0.01926168 -0.00046881 0.00000000 0.00054402 0.00000000 0.02024692)
(0.01858703 -0.00046588 0.00000000 0.00052789 0.00000000 0.01966183)
(0.01799972 -0.00045077 0.00000000 0.00050693 0.00000000 0.01914162)
(0.01748053 -0.00045611 0.00000000 0.00049586 0.00000000 0.01869062)
(0.01697284 -0.00044640 0.00000000 0.00047238 0.00000000 0.01827400)
(0.01643235 -0.00043510 0.00000000 0.00046220 0.00000000 0.01785449)
(0.01596478 -0.00042742 0.00000000 0.00043991 0.00000000 0.01759987)
(0.01532734 -0.00041664 0.00000000 0.00042751 0.00000000 0.01736557)
(0.01456509 -0.00039674 0.00000000 0.00040700 0.00000000 0.01727592)
(0.01367860 -0.00038063 0.00000000 0.00039673 0.00000000 0.01711129)
(0.01278282 -0.00035637 0.00000000 0.00038957 0.00000000 0.01705551)
(0.01178483 -0.00032636 0.00000000 0.00037095 0.00000000 0.01713159)
(0.01057334 -0.00029024 0.00000000 0.00036208 0.00000000 0.01748261)
(0.01011417 -0.00024894 0.00000000 0.00046234 0.00000000 0.02056387)
(0.01058409 0.00063656 0.00000000 0.00054927 0.00000000 0.02522241)
(0.00975631 0.00189414 0.00000000 0.00085977 0.00000000 0.02720531)
(0.00939424 0.00334356 0.00000000 0.00160602 0.00000000 0.02649079)
(0.00912638 0.00287853 0.00000000 0.00126493 0.00000000 0.02779470)
(0.00804528 0.00377779 0.00000000 0.00205667 0.00000000 0.02706322)
(0.00660709 0.00264674 0.00000000 0.00124694 0.00000000 0.02292347)
(0.00380215 0.00220071 0.00000000 0.00130559 0.00000000 0.01084365)
(0.00493231 0.00309504 0.00000000 0.00207791 0.00000000 0.01927427)
(0.00280854 0.00191770 0.00000000 0.00136578 0.00000000 0.01404248)
(0.00225235 0.00161003 0.00000000 0.00116766 0.00000000 0.01365483)
(0.00098088 0.00091520 0.00000000 0.00094310 0.00000000 0.01176714)
(0.00076888 0.00108917 0.00000000 0.00138173 0.00000000 0.01062741)
(0.00084256 0.00055727 0.00000000 0.00037288 0.00000000 0.00978548)
(0.00104425 0.00068644 0.00000000 0.00043904 0.00000000 0.00745607)
(0.00064700 0.00044011 0.00000000 0.00027800 0.00000000 0.00413031)
(0.00013797 0.00007440 0.00000000 0.00001988 0.00000000 0.00067295)
(-0.00041200 -0.00043300 0.00000000 -0.00046565 0.00000000 -0.00297815)
(-0.00042421 -0.00038346 0.00000000 -0.00037919 0.00000000 0.00241969)
(0.00029695 0.00021254 0.00000000 0.00014550 0.00000000 0.00120090)
(0.00253562 0.00181743 0.00000000 0.00130767 0.00000000 0.00956778)
(0.00341228 0.00269434 0.00000000 0.00198443 0.00000000 0.00783548)
(-0.00116084 -0.00041469 0.00000000 -0.00015059 0.00000000 -0.00031090)
(-0.00206617 -0.00047091 0.00000000 -0.00014569 0.00000000 -0.00260825)
(0.00696049 -0.00031328 0.00000000 0.00021802 0.00000000 0.00677879)
(0.01164651 0.00018129 0.00000000 0.00001038 0.00000000 0.00327901)
(0.01544712 0.00001651 0.00000000 0.00009662 0.00000000 0.00740896)
(0.02267803 -0.00043880 0.00000000 0.00021230 0.00000000 0.01076206)
(0.04523237 -0.00159189 0.00000000 0.00087982 0.00000000 0.02016633)
(0.05423101 -0.00205815 0.00000000 0.00128367 0.00000000 0.02665603)
(0.02722813 -0.00251115 0.00000000 0.00050379 0.00000000 0.01159525)
(0.01645605 -0.00292216 0.00000000 0.00123046 0.00000000 0.01481515)
(0.00570870 -0.00408321 0.00000000 0.00327044 0.00000000 0.01174323)
(0.01225191 -0.00383087 0.00000000 0.00251209 0.00000000 0.01197408)
(0.01378212 -0.01035400 0.00000000 0.00930042 0.00000000 0.02055765)
(0.01274470 -0.00949041 0.00000000 0.00822720 0.00000000 0.01779180)
(0.00806312 -0.00597424 0.00000000 0.00485269 0.00000000 0.01078996)
(0.00711133 -0.00592876 0.00000000 0.00540962 0.00000000 0.01308558)
(0.00476804 -0.00513438 0.00000000 0.00603293 0.00000000 0.00863707)
(0.00639325 -0.00489971 0.00000000 0.00398375 0.00000000 0.00777025)
(0.00736209 -0.00529130 0.00000000 0.00406196 0.00000000 0.00912857)
(0.00749479 -0.00533984 0.00000000 0.00410913 0.00000000 0.00958784)
(0.00689636 -0.00532519 0.00000000 0.00442589 0.00000000 0.00948982)
(0.00723172 -0.00580775 0.00000000 0.00508654 0.00000000 0.00883725)
(0.00857453 -0.00624743 0.00000000 0.00492249 0.00000000 0.00974942)
(0.00953155 -0.00652526 0.00000000 0.00484311 0.00000000 0.01009839)
(0.01068480 -0.00689456 0.00000000 0.00489804 0.00000000 0.01076492)
(0.01170826 -0.00695214 0.00000000 0.00469467 0.00000000 0.01201998)
(0.01287463 -0.00729063 0.00000000 0.00467242 0.00000000 0.01266478)
(0.01448898 -0.00669893 0.00000000 0.00383866 0.00000000 0.01342971)
(0.01494775 -0.00595222 0.00000000 0.00330123 0.00000000 0.01567677)
(0.01658491 -0.00526154 0.00000000 0.00273250 0.00000000 0.01639406)
(0.01705783 -0.00410802 0.00000000 0.00221192 0.00000000 0.01773453)
(0.01884842 -0.00327333 0.00000000 0.00192923 0.00000000 0.01819662)
(0.02036344 -0.00191469 0.00000000 0.00171116 0.00000000 0.01860491)
(0.02193367 -0.00014656 0.00000000 0.00140336 0.00000000 0.01868036)
(0.02393918 0.00003462 0.00000000 0.00148450 0.00000000 0.02095730)
(0.02592427 0.00007733 0.00000000 0.00172357 0.00000000 0.02410948)
(0.02742239 -0.00000078 0.00000000 0.00194833 0.00000000 0.02711326)
(0.02881012 -0.00000147 0.00000000 0.00215183 0.00000000 0.03001596)
(0.02981163 -0.00004680 0.00000000 0.00232490 0.00000000 0.03262326)
(0.03076067 -0.00009818 0.00000000 0.00251269 0.00000000 0.03501417)
(0.03156687 -0.00017978 0.00000000 0.00266923 0.00000000 0.03736853)
(0.03249999 -0.00020318 0.00000000 0.00281122 0.00000000 0.03923144)
(0.03333658 -0.00030940 0.00000000 0.00291550 0.00000000 0.04120507)
(0.03457668 -0.00035376 0.00000000 0.00303044 0.00000000 0.04272200)
(0.03510109 -0.00028784 0.00000000 0.00305958 0.00000000 0.04389346)
(0.03501319 -0.00033219 0.00000000 0.00310918 0.00000000 0.04492198)
(0.03483049 -0.00037577 0.00000000 0.00316800 0.00000000 0.04563853)
(0.03484043 -0.00043999 0.00000000 0.00321523 0.00000000 0.04671250)
(0.03510928 -0.00053134 0.00000000 0.00329062 0.00000000 0.04780032)
(0.03556862 -0.00052981 0.00000000 0.00327542 0.00000000 0.04813672)
(0.03571712 -0.00054308 0.00000000 0.00325377 0.00000000 0.04786217)
(0.03579279 -0.00052153 0.00000000 0.00322125 0.00000000 0.04802358)
(0.03604943 -0.00064192 0.00000000 0.00323715 0.00000000 0.04806088)
(0.03601492 -0.00062964 0.00000000 0.00324572 0.00000000 0.04795468)
(0.03565233 -0.00062024 0.00000000 0.00318176 0.00000000 0.04841877)
(0.03539191 -0.00064738 0.00000000 0.00314870 0.00000000 0.04837580)
(0.03547786 -0.00074396 0.00000000 0.00315707 0.00000000 0.04849588)
(0.03573659 -0.00074622 0.00000000 0.00309122 0.00000000 0.04846514)
(0.03568815 -0.00075044 0.00000000 0.00304506 0.00000000 0.04777686)
(0.03553473 -0.00078421 0.00000000 0.00298574 0.00000000 0.04686557)
(0.03571760 -0.00080866 0.00000000 0.00290455 0.00000000 0.04647045)
(0.03581082 -0.00084387 0.00000000 0.00286690 0.00000000 0.04555999)
(0.03598942 -0.00086979 0.00000000 0.00277412 0.00000000 0.04493367)
(0.03568636 -0.00078419 0.00000000 0.00266805 0.00000000 0.04370798)
(0.03502715 -0.00078625 0.00000000 0.00258937 0.00000000 0.04270097)
(0.03453467 -0.00082109 0.00000000 0.00252582 0.00000000 0.04218105)
(0.03400351 -0.00083766 0.00000000 0.00244651 0.00000000 0.04119731)
(0.03352249 -0.00085808 0.00000000 0.00237385 0.00000000 0.04020656)
(0.03335412 -0.00087329 0.00000000 0.00229627 0.00000000 0.03924788)
(0.03323706 -0.00087157 0.00000000 0.00224003 0.00000000 0.03853163)