/*--------------------------------*- C++ -*----------------------------------*\
  =========                 |
  \\      /  F ield         | OpenFOAM: The Open Source CFD Toolbox
   \\    /   O peration     | Website:  https://openfoam.org
    \\  /    A nd           | Version:  7
     \\/     M anipulation  |
\*---------------------------------------------------------------------------*/
FoamFile
{
    version     2.0;
    format      ascii;
    class       volVectorField;
    location    "0";
    object      U_LES;
}
// * * * * * * * * * * * * * * * * * * * * * * * * * * * * * * * * * * * * * //

dimensions      [0 1 -1 0 0 0 0];

internalField   nonuniform List<vector>
15600
(
(0.03090002 0.00004117 0.00000000)
(0.04192806 -0.00069004 0.00000000)
(0.00332231 0.00005325 0.00000000)
(-0.00801651 0.00109116 0.00000000)
(-0.00865048 0.00523699 0.00000000)
(-0.00525275 0.00321299 0.00000000)
(-0.02725898 0.02109098 0.00000000)
(-0.02357806 0.01807284 0.00000000)
(-0.00922943 0.00703321 0.00000000)
(-0.01146555 0.00896161 0.00000000)
(-0.00707883 0.00725183 0.00000000)
(-0.00413889 0.00348791 0.00000000)
(-0.00656394 0.00477944 0.00000000)
(-0.01021042 0.00718666 0.00000000)
(-0.01228138 0.00853617 0.00000000)
(-0.01366505 0.00978476 0.00000000)
(-0.01709967 0.01182645 0.00000000)
(-0.01880275 0.01214813 0.00000000)
(-0.02146668 0.01356512 0.00000000)
(-0.02940765 0.01870872 0.00000000)
(-0.01513528 0.00876369 0.00000000)
(-0.02057056 0.00863525 0.00000000)
(-0.03451694 0.01682257 0.00000000)
(-0.03043870 0.01432189 0.00000000)
(-0.03862348 0.01291573 0.00000000)
(-0.03526735 0.00809720 0.00000000)
(-0.03537135 0.00555396 0.00000000)
(-0.03449437 0.00034379 0.00000000)
(-0.03146825 0.00011973 0.00000000)
(-0.03835748 0.00009338 0.00000000)
(-0.04313966 0.00006543 0.00000000)
(-0.04686496 0.00004985 0.00000000)
(-0.04973276 0.00004203 0.00000000)
(-0.05174068 0.00002771 0.00000000)
(-0.05233100 0.00001167 0.00000000)
(-0.05298826 0.00000329 0.00000000)
(-0.05320966 -0.00000263 0.00000000)
(-0.05264684 -0.00001041 0.00000000)
(-0.05175820 -0.00000798 0.00000000)
(-0.05065540 -0.00002095 0.00000000)
(-0.04899239 -0.00002189 0.00000000)
(-0.04790793 -0.00001987 0.00000000)
(-0.04556202 -0.00004079 0.00000000)
(-0.04245034 -0.00003836 0.00000000)
(-0.03969776 -0.00004094 0.00000000)
(-0.03693092 -0.00004181 0.00000000)
(-0.03422353 -0.00004233 0.00000000)
(-0.03169860 -0.00004275 0.00000000)
(-0.02915643 -0.00004258 0.00000000)
(-0.02710465 -0.00003053 0.00000000)
(-0.02461540 -0.00004377 0.00000000)
(-0.02186813 -0.00003746 0.00000000)
(-0.01908547 -0.00004906 0.00000000)
(-0.01615177 -0.00005470 0.00000000)
(-0.01388844 -0.00003967 0.00000000)
(-0.01169712 -0.00003236 0.00000000)
(-0.00969837 -0.00003666 0.00000000)
(-0.00751371 -0.00003115 0.00000000)
(-0.00560591 -0.00003050 0.00000000)
(-0.00362254 -0.00003222 0.00000000)
(-0.00160392 -0.00002587 0.00000000)
(0.00055836 -0.00004219 0.00000000)
(0.00226475 -0.00002415 0.00000000)
(0.00376299 -0.00002053 0.00000000)
(0.00546706 -0.00002566 0.00000000)
(0.00682825 -0.00002020 0.00000000)
(0.00804488 -0.00001677 0.00000000)
(0.00921757 -0.00002094 0.00000000)
(0.01051934 -0.00002002 0.00000000)
(0.01164268 -0.00001622 0.00000000)
(0.01277934 -0.00001898 0.00000000)
(0.01359416 -0.00001133 0.00000000)
(0.01421152 -0.00000848 0.00000000)
(0.01494786 -0.00000842 0.00000000)
(0.01569332 -0.00001130 0.00000000)
(0.01617563 -0.00000759 0.00000000)
(0.01688301 -0.00001296 0.00000000)
(0.01738119 -0.00000296 0.00000000)
(0.01790706 -0.00000560 0.00000000)
(0.01840188 -0.00000591 0.00000000)
(0.01861917 0.00000164 0.00000000)
(0.01855291 -0.00000004 0.00000000)
(0.01832748 0.00000650 0.00000000)
(0.01802375 0.00000970 0.00000000)
(0.01736757 0.00001345 0.00000000)
(0.01648417 0.00001968 0.00000000)
(0.01541462 0.00001374 0.00000000)
(0.01416673 0.00002912 0.00000000)
(0.01249202 0.00002040 0.00000000)
(0.01071798 0.00003295 0.00000000)
(0.00793397 0.00005249 0.00000000)
(0.00498412 0.00006513 0.00000000)
(0.00101405 0.00024589 0.00000000)
(0.00059786 0.00061702 0.00000000)
(0.00423625 0.00045848 0.00000000)
(0.00449603 0.00271324 0.00000000)
(0.00535896 0.00092719 0.00000000)
(0.00380650 0.00193181 0.00000000)
(0.00053848 0.00007077 0.00000000)
(-0.00254918 -0.00139760 0.00000000)
(0.00001697 0.00016048 0.00000000)
(-0.00196214 -0.00125627 0.00000000)
(0.00396382 0.00178293 0.00000000)
(-0.00098460 -0.00113801 0.00000000)
(0.00218103 -0.00118089 0.00000000)
(0.00037272 0.00050451 0.00000000)
(-0.00102219 -0.00126452 0.00000000)
(0.00577940 0.00337839 0.00000000)
(-0.00337763 -0.00317947 0.00000000)
(-0.01743581 -0.01645050 0.00000000)
(-0.01036932 -0.00811370 0.00000000)
(-0.01725254 -0.01307080 0.00000000)
(0.00266996 0.00210102 0.00000000)
(0.02416358 0.01943776 0.00000000)
(-0.00644895 -0.00283998 0.00000000)
(-0.03911904 -0.01395986 0.00000000)
(0.05118537 0.00656456 0.00000000)
(0.00651283 -0.00023049 0.00000000)
(0.04084160 0.00157711 0.00000000)
(0.02870049 0.00054325 0.00000000)
(0.04814225 -0.00014849 0.00000000)
(0.06457690 -0.00141731 0.00000000)
(0.02216696 -0.00032521 0.00000000)
(-0.01252300 0.00253477 0.00000000)
(-0.01431765 0.00927563 0.00000000)
(-0.01408190 0.00704113 0.00000000)
(-0.03562898 0.02743967 0.00000000)
(-0.03252355 0.02485075 0.00000000)
(-0.01677840 0.01273822 0.00000000)
(-0.01859660 0.01499936 0.00000000)
(-0.01175064 0.01508026 0.00000000)
(-0.01177247 0.00964758 0.00000000)
(-0.01496595 0.01100720 0.00000000)
(-0.01939894 0.01418151 0.00000000)
(-0.02362399 0.01781416 0.00000000)
(-0.02653410 0.02145179 0.00000000)
(-0.03411408 0.02624460 0.00000000)
(-0.04015525 0.02865394 0.00000000)
(-0.04762809 0.03279038 0.00000000)
(-0.05763348 0.03691583 0.00000000)
(-0.05450823 0.03329373 0.00000000)
(-0.06549551 0.03007045 0.00000000)
(-0.07580946 0.03463043 0.00000000)
(-0.07874549 0.02973230 0.00000000)
(-0.08020673 0.02469981 0.00000000)
(-0.08060026 0.01741924 0.00000000)
(-0.08534873 0.01366886 0.00000000)
(-0.08147743 0.00166525 0.00000000)
(-0.09295621 0.00091835 0.00000000)
(-0.10989327 0.00070498 0.00000000)
(-0.12250431 0.00050592 0.00000000)
(-0.13181472 0.00037929 0.00000000)
(-0.13884033 0.00028017 0.00000000)
(-0.14368983 0.00017803 0.00000000)
(-0.14539927 0.00005127 0.00000000)
(-0.14594648 -0.00000388 0.00000000)
(-0.14554448 -0.00005525 0.00000000)
(-0.14311700 -0.00011843 0.00000000)
(-0.14065144 -0.00009370 0.00000000)
(-0.13733833 -0.00019102 0.00000000)
(-0.13302290 -0.00018801 0.00000000)
(-0.12810339 -0.00022080 0.00000000)
(-0.12140769 -0.00036902 0.00000000)
(-0.11335557 -0.00032623 0.00000000)
(-0.10623202 -0.00033730 0.00000000)
(-0.09860837 -0.00032764 0.00000000)
(-0.09166875 -0.00032379 0.00000000)
(-0.08379142 -0.00032487 0.00000000)
(-0.07663820 -0.00031958 0.00000000)
(-0.07057569 -0.00027557 0.00000000)
(-0.06403608 -0.00034690 0.00000000)
(-0.05690312 -0.00030823 0.00000000)
(-0.04947126 -0.00034933 0.00000000)
(-0.04138593 -0.00035686 0.00000000)
(-0.03482034 -0.00031528 0.00000000)
(-0.02887465 -0.00025559 0.00000000)
(-0.02311211 -0.00028294 0.00000000)
(-0.01689875 -0.00025204 0.00000000)
(-0.01171757 -0.00022911 0.00000000)
(-0.00570392 -0.00028594 0.00000000)
(-0.00012293 -0.00023506 0.00000000)
(0.00519504 -0.00026918 0.00000000)
(0.01035896 -0.00019766 0.00000000)
(0.01457950 -0.00018553 0.00000000)
(0.01923274 -0.00019552 0.00000000)
(0.02326695 -0.00016617 0.00000000)
(0.02667092 -0.00014487 0.00000000)
(0.02999948 -0.00016228 0.00000000)
(0.03373825 -0.00016146 0.00000000)
(0.03700223 -0.00013639 0.00000000)
(0.04020298 -0.00014078 0.00000000)
(0.04265986 -0.00010187 0.00000000)
(0.04453286 -0.00008658 0.00000000)
(0.04668202 -0.00008611 0.00000000)
(0.04880824 -0.00008509 0.00000000)
(0.05033784 -0.00007668 0.00000000)
(0.05240813 -0.00010172 0.00000000)
(0.05400049 -0.00004922 0.00000000)
(0.05558561 -0.00006534 0.00000000)
(0.05685492 -0.00004955 0.00000000)
(0.05759550 -0.00000810 0.00000000)
(0.05757353 0.00000758 0.00000000)
(0.05712865 0.00003485 0.00000000)
(0.05627906 0.00005806 0.00000000)
(0.05464956 0.00009275 0.00000000)
(0.05228823 0.00012720 0.00000000)
(0.04941690 0.00013624 0.00000000)
(0.04610593 0.00018477 0.00000000)
(0.04169299 0.00022316 0.00000000)
(0.03633843 0.00027650 0.00000000)
(0.02904542 0.00038032 0.00000000)
(0.02015871 0.00044680 0.00000000)
(0.01166988 0.00114013 0.00000000)
(0.01106988 0.00224265 0.00000000)
(0.01743023 0.00357036 0.00000000)
(0.02098658 0.00962156 0.00000000)
(0.02335998 0.00768158 0.00000000)
(0.02568699 0.01336563 0.00000000)
(0.01996272 0.00831443 0.00000000)
(0.00865802 0.00523114 0.00000000)
(0.02820051 0.01782056 0.00000000)
(0.02164366 0.01217942 0.00000000)
(0.02086581 0.01274051 0.00000000)
(0.01808292 0.00954108 0.00000000)
(0.01773769 0.01601647 0.00000000)
(0.01980378 0.01130251 0.00000000)
(0.03200257 0.02017795 0.00000000)
(0.01945888 0.01302832 0.00000000)
(-0.00548594 -0.00471072 0.00000000)
(-0.03248926 -0.03178571 0.00000000)
(0.00948657 0.00558305 0.00000000)
(-0.01803220 -0.01373102 0.00000000)
(0.03782873 0.02878692 0.00000000)
(0.11188038 0.08862671 0.00000000)
(0.00478201 0.00856959 0.00000000)
(-0.06019965 -0.02004840 0.00000000)
(0.09859048 0.01337723 0.00000000)
(0.05350270 0.00312600 0.00000000)
(0.06595300 0.00295784 0.00000000)
(0.04550926 0.00088391 0.00000000)
(0.07278438 -0.00040818 0.00000000)
(0.09290223 -0.00239965 0.00000000)
(0.04891073 -0.00098139 0.00000000)
(-0.01366079 0.00318213 0.00000000)
(-0.02076060 0.01411024 0.00000000)
(-0.02549710 0.01217136 0.00000000)
(-0.04457259 0.03410790 0.00000000)
(-0.04125856 0.03139068 0.00000000)
(-0.02631440 0.02001737 0.00000000)
(-0.02613285 0.02088057 0.00000000)
(-0.01815168 0.02366721 0.00000000)
(-0.02124142 0.01704631 0.00000000)
(-0.02495542 0.01887436 0.00000000)
(-0.03066511 0.02306622 0.00000000)
(-0.03666230 0.02896722 0.00000000)
(-0.04167685 0.03457058 0.00000000)
(-0.05326461 0.04177983 0.00000000)
(-0.06363874 0.04727018 0.00000000)
(-0.07564838 0.05329863 0.00000000)
(-0.08643020 0.05689261 0.00000000)
(-0.09378011 0.05878387 0.00000000)
(-0.10725880 0.05552279 0.00000000)
(-0.11087590 0.05150733 0.00000000)
(-0.11932528 0.04650012 0.00000000)
(-0.11737943 0.03459807 0.00000000)
(-0.12028706 0.02628172 0.00000000)
(-0.12137499 0.01787866 0.00000000)
(-0.12753315 0.00425485 0.00000000)
(-0.14758250 0.00269367 0.00000000)
(-0.16962968 0.00199473 0.00000000)
(-0.18573699 0.00142868 0.00000000)
(-0.19723020 0.00105787 0.00000000)
(-0.20489111 0.00075902 0.00000000)
(-0.20999206 0.00045273 0.00000000)
(-0.21158534 0.00008295 0.00000000)
(-0.21042643 -0.00006538 0.00000000)
(-0.20781463 -0.00022597 0.00000000)
(-0.20401317 -0.00040762 0.00000000)
(-0.19919444 -0.00034352 0.00000000)
(-0.19336895 -0.00062054 0.00000000)
(-0.18635808 -0.00061523 0.00000000)
(-0.17848001 -0.00072616 0.00000000)
(-0.16849027 -0.00113057 0.00000000)
(-0.15699907 -0.00100554 0.00000000)
(-0.14605385 -0.00104547 0.00000000)
(-0.13536931 -0.00100121 0.00000000)
(-0.12451091 -0.00102804 0.00000000)
(-0.11452763 -0.00096016 0.00000000)
(-0.10431999 -0.00092721 0.00000000)
(-0.09534460 -0.00084059 0.00000000)
(-0.08523097 -0.00103784 0.00000000)
(-0.07448722 -0.00097321 0.00000000)
(-0.06342076 -0.00106604 0.00000000)
(-0.05266278 -0.00103556 0.00000000)
(-0.04284245 -0.00095296 0.00000000)
(-0.03369123 -0.00080278 0.00000000)
(-0.02518213 -0.00086666 0.00000000)
(-0.01610580 -0.00078220 0.00000000)
(-0.00809148 -0.00071988 0.00000000)
(0.00001750 -0.00084934 0.00000000)
(0.00856882 -0.00073278 0.00000000)
(0.01629570 -0.00078939 0.00000000)
(0.02374522 -0.00061147 0.00000000)
(0.03029381 -0.00060087 0.00000000)
(0.03712443 -0.00060763 0.00000000)
(0.04313469 -0.00051480 0.00000000)
(0.04835066 -0.00046331 0.00000000)
(0.05370567 -0.00050984 0.00000000)
(0.05934076 -0.00050513 0.00000000)
(0.06435495 -0.00042635 0.00000000)
(0.06910337 -0.00043234 0.00000000)
(0.07295066 -0.00032316 0.00000000)
(0.07621960 -0.00029005 0.00000000)
(0.07968158 -0.00028621 0.00000000)
(0.08297424 -0.00026475 0.00000000)
(0.08562398 -0.00026276 0.00000000)
(0.08885765 -0.00030824 0.00000000)
(0.09141121 -0.00017697 0.00000000)
(0.09393349 -0.00022097 0.00000000)
(0.09623990 -0.00015354 0.00000000)
(0.09748180 -0.00004793 0.00000000)
(0.09783032 0.00001850 0.00000000)
(0.09731922 0.00008438 0.00000000)
(0.09638318 0.00016294 0.00000000)
(0.09425322 0.00027332 0.00000000)
(0.09129956 0.00034636 0.00000000)
(0.08745510 0.00042895 0.00000000)
(0.08282266 0.00051777 0.00000000)
(0.07662765 0.00070240 0.00000000)
(0.06877916 0.00084144 0.00000000)
(0.05845295 0.00110568 0.00000000)
(0.04556882 0.00145115 0.00000000)
(0.03334455 0.00260677 0.00000000)
(0.03243197 0.00458690 0.00000000)
(0.03841776 0.00764798 0.00000000)
(0.04585097 0.01782921 0.00000000)
(0.05299447 0.01827404 0.00000000)
(0.05967091 0.02845249 0.00000000)
(0.05977103 0.02609107 0.00000000)
(0.05286554 0.03143874 0.00000000)
(0.07160267 0.04623202 0.00000000)
(0.06380945 0.04320492 0.00000000)
(0.06100570 0.04352353 0.00000000)
(0.05182281 0.04601723 0.00000000)
(0.04595915 0.05363806 0.00000000)
(0.05468492 0.03948865 0.00000000)
(0.07223331 0.04960303 0.00000000)
(0.05088823 0.03568836 0.00000000)
(0.01223153 0.00803310 0.00000000)
(-0.01718276 -0.02019287 0.00000000)
(0.04902866 0.03313001 0.00000000)
(0.01491089 0.01125085 0.00000000)
(0.11755037 0.08959624 0.00000000)
(0.21933989 0.17239116 0.00000000)
(0.03473466 0.03078574 0.00000000)
(-0.06257099 -0.01902150 0.00000000)
(0.16186735 0.02530656 0.00000000)
(0.11944435 0.00829990 0.00000000)
(0.10201091 0.00487957 0.00000000)
(0.07172641 0.00118799 0.00000000)
(0.10502217 -0.00072913 0.00000000)
(0.12974346 -0.00372281 0.00000000)
(0.08314330 -0.00199968 0.00000000)
(-0.01158661 0.00189965 0.00000000)
(-0.02741874 0.01935938 0.00000000)
(-0.03813267 0.01822464 0.00000000)
(-0.05337403 0.04065667 0.00000000)
(-0.05035422 0.03813181 0.00000000)
(-0.03668419 0.02797693 0.00000000)
(-0.03468684 0.02791903 0.00000000)
(-0.02742423 0.03193376 0.00000000)
(-0.03231466 0.02609513 0.00000000)
(-0.03631248 0.02809551 0.00000000)
(-0.04249721 0.03236304 0.00000000)
(-0.05047814 0.03950959 0.00000000)
(-0.05860677 0.05066859 0.00000000)
(-0.07302793 0.05650881 0.00000000)
(-0.08587721 0.06316807 0.00000000)
(-0.09909409 0.07017825 0.00000000)
(-0.11108181 0.07394164 0.00000000)
(-0.12542091 0.07952061 0.00000000)
(-0.13758394 0.07451460 0.00000000)
(-0.14295717 0.06721673 0.00000000)
(-0.15060131 0.05857229 0.00000000)
(-0.15029326 0.04571274 0.00000000)
(-0.15422398 0.03428224 0.00000000)
(-0.15607976 0.02108630 0.00000000)
(-0.16782937 0.00760681 0.00000000)
(-0.19318975 0.00464435 0.00000000)
(-0.21709582 0.00344188 0.00000000)
(-0.23394511 0.00242617 0.00000000)
(-0.24530388 0.00174811 0.00000000)
(-0.25279743 0.00120581 0.00000000)
(-0.25668392 0.00063547 0.00000000)
(-0.25689240 0.00001453 0.00000000)
(-0.25404542 -0.00024035 0.00000000)
(-0.25056596 -0.00053338 0.00000000)
(-0.24431561 -0.00084974 0.00000000)
(-0.23774906 -0.00077172 0.00000000)
(-0.22968897 -0.00121946 0.00000000)
(-0.22062656 -0.00122551 0.00000000)
(-0.21066844 -0.00143942 0.00000000)
(-0.19809374 -0.00210419 0.00000000)
(-0.18416305 -0.00191035 0.00000000)
(-0.17077650 -0.00195018 0.00000000)
(-0.15773173 -0.00187200 0.00000000)
(-0.14478172 -0.00193343 0.00000000)
(-0.13221694 -0.00178760 0.00000000)
(-0.12007299 -0.00170518 0.00000000)
(-0.10890058 -0.00162505 0.00000000)
(-0.09661176 -0.00192241 0.00000000)
(-0.08355647 -0.00186183 0.00000000)
(-0.07016565 -0.00197113 0.00000000)
(-0.05715060 -0.00188678 0.00000000)
(-0.04548759 -0.00176297 0.00000000)
(-0.03391262 -0.00153656 0.00000000)
(-0.02351032 -0.00161005 0.00000000)
(-0.01245574 -0.00148990 0.00000000)
(-0.00247516 -0.00134820 0.00000000)
(0.00730855 -0.00155506 0.00000000)
(0.01782287 -0.00138703 0.00000000)
(0.02734562 -0.00143203 0.00000000)
(0.03637279 -0.00117142 0.00000000)
(0.04468786 -0.00116881 0.00000000)
(0.05302920 -0.00114479 0.00000000)
(0.06059011 -0.00098029 0.00000000)
(0.06739861 -0.00089596 0.00000000)
(0.07410671 -0.00098669 0.00000000)
(0.08122063 -0.00095530 0.00000000)
(0.08742137 -0.00083542 0.00000000)
(0.09364561 -0.00080765 0.00000000)
(0.09846791 -0.00063068 0.00000000)
(0.10284529 -0.00059837 0.00000000)
(0.10753728 -0.00057116 0.00000000)
(0.11182976 -0.00052467 0.00000000)
(0.11565217 -0.00052685 0.00000000)
(0.11987300 -0.00059010 0.00000000)
(0.12344677 -0.00037846 0.00000000)
(0.12651544 -0.00044315 0.00000000)
(0.12955975 -0.00032318 0.00000000)
(0.13158893 -0.00011914 0.00000000)
(0.13250988 -0.00000816 0.00000000)
(0.13227517 0.00013511 0.00000000)
(0.13151920 0.00026965 0.00000000)
(0.12951684 0.00046442 0.00000000)
(0.12627436 0.00061183 0.00000000)
(0.12210047 0.00075684 0.00000000)
(0.11667682 0.00094548 0.00000000)
(0.10978968 0.00126658 0.00000000)
(0.10066971 0.00155603 0.00000000)
(0.08853219 0.00205676 0.00000000)
(0.07313061 0.00264325 0.00000000)
(0.05840794 0.00422035 0.00000000)
(0.05546905 0.00675314 0.00000000)
(0.06145349 0.01205196 0.00000000)
(0.07073773 0.02288853 0.00000000)
(0.08081012 0.02908373 0.00000000)
(0.08817801 0.04089178 0.00000000)
(0.09751260 0.04568085 0.00000000)
(0.10444825 0.06233483 0.00000000)
(0.11750194 0.07763458 0.00000000)
(0.11713808 0.08579165 0.00000000)
(0.10912112 0.08301084 0.00000000)
(0.10243831 0.10601675 0.00000000)
(0.08936683 0.09296052 0.00000000)
(0.10652085 0.10080020 0.00000000)
(0.14093214 0.10267329 0.00000000)
(0.12424261 0.08786263 0.00000000)
(0.07772388 0.05499600 0.00000000)
(0.03064129 0.01848230 0.00000000)
(0.10312300 0.07561200 0.00000000)
(0.09523531 0.07246699 0.00000000)
(0.22945921 0.17553579 0.00000000)
(0.29138562 0.22670675 0.00000000)
(0.09643979 0.06851730 0.00000000)
(-0.02202596 -0.00117022 0.00000000)
(0.23874570 0.04606961 0.00000000)
(0.20402430 0.01613981 0.00000000)
(0.15091644 0.00743926 0.00000000)
(0.10679986 0.00155732 0.00000000)
(0.14392597 -0.00113104 0.00000000)
(0.17135185 -0.00535656 0.00000000)
(0.12434683 -0.00349079 0.00000000)
(-0.00435335 0.00074979 0.00000000)
(-0.03298475 0.02417942 0.00000000)
(-0.04974214 0.02454060 0.00000000)
(-0.06147724 0.04671992 0.00000000)
(-0.05921885 0.04467373 0.00000000)
(-0.04585406 0.03509914 0.00000000)
(-0.04362242 0.03490268 0.00000000)
(-0.03813412 0.04020961 0.00000000)
(-0.04403456 0.03592600 0.00000000)
(-0.04703287 0.03676931 0.00000000)
(-0.05388803 0.04133950 0.00000000)
(-0.06435003 0.05015556 0.00000000)
(-0.07514559 0.06412801 0.00000000)
(-0.08939994 0.07031886 0.00000000)
(-0.10464900 0.07913051 0.00000000)
(-0.11799740 0.08658113 0.00000000)
(-0.13269789 0.09004020 0.00000000)
(-0.14885877 0.09492374 0.00000000)
(-0.16121072 0.08836005 0.00000000)
(-0.16759235 0.07967564 0.00000000)
(-0.17574784 0.06839771 0.00000000)
(-0.17823677 0.05459566 0.00000000)
(-0.18270768 0.04005210 0.00000000)
(-0.18626169 0.02449439 0.00000000)
(-0.20240384 0.01093572 0.00000000)
(-0.22947215 0.00686839 0.00000000)
(-0.25289962 0.00498845 0.00000000)
(-0.26894063 0.00346309 0.00000000)
(-0.27978031 0.00241902 0.00000000)
(-0.28608209 0.00159887 0.00000000)
(-0.28862473 0.00072471 0.00000000)
(-0.28737629 -0.00017092 0.00000000)
(-0.28350183 -0.00052363 0.00000000)
(-0.27805145 -0.00099267 0.00000000)
(-0.27028550 -0.00144714 0.00000000)
(-0.26205012 -0.00136592 0.00000000)
(-0.25232469 -0.00199362 0.00000000)
(-0.24170559 -0.00200327 0.00000000)
(-0.23001570 -0.00235942 0.00000000)
(-0.21592200 -0.00327178 0.00000000)
(-0.20026335 -0.00303613 0.00000000)
(-0.18516238 -0.00305505 0.00000000)
(-0.17049374 -0.00293017 0.00000000)
(-0.15591517 -0.00303545 0.00000000)
(-0.14197019 -0.00280315 0.00000000)
(-0.12826833 -0.00265239 0.00000000)
(-0.11542250 -0.00261896 0.00000000)
(-0.10179632 -0.00298708 0.00000000)
(-0.08710113 -0.00296088 0.00000000)
(-0.07230816 -0.00306273 0.00000000)
(-0.05794208 -0.00290001 0.00000000)
(-0.04480109 -0.00274251 0.00000000)
(-0.03156133 -0.00244283 0.00000000)
(-0.01967425 -0.00250646 0.00000000)
(-0.00736998 -0.00236329 0.00000000)
(0.00409366 -0.00214665 0.00000000)
(0.01504441 -0.00240505 0.00000000)
(0.02684099 -0.00219755 0.00000000)
(0.03769375 -0.00220570 0.00000000)
(0.04781705 -0.00186251 0.00000000)
(0.05740247 -0.00188151 0.00000000)
(0.06669314 -0.00180595 0.00000000)
(0.07531663 -0.00156913 0.00000000)
(0.08336828 -0.00145869 0.00000000)
(0.09130383 -0.00158400 0.00000000)
(0.09941792 -0.00151257 0.00000000)
(0.10660565 -0.00134644 0.00000000)
(0.11361452 -0.00127740 0.00000000)
(0.11938243 -0.00102422 0.00000000)
(0.12488086 -0.00099959 0.00000000)
(0.13033912 -0.00095171 0.00000000)
(0.13548140 -0.00086396 0.00000000)
(0.14024973 -0.00087560 0.00000000)
(0.14504740 -0.00094289 0.00000000)
(0.14945749 -0.00066367 0.00000000)
(0.15336230 -0.00074194 0.00000000)
(0.15712286 -0.00054380 0.00000000)
(0.15972816 -0.00024761 0.00000000)
(0.16118281 -0.00006594 0.00000000)
(0.16143279 0.00016631 0.00000000)
(0.16082677 0.00036328 0.00000000)
(0.15917349 0.00066177 0.00000000)
(0.15608043 0.00088022 0.00000000)
(0.15193855 0.00114326 0.00000000)
(0.14642529 0.00141349 0.00000000)
(0.13906992 0.00190762 0.00000000)
(0.12948565 0.00240308 0.00000000)
(0.11677498 0.00313644 0.00000000)
(0.10022231 0.00408108 0.00000000)
(0.08392077 0.00603670 0.00000000)
(0.07869703 0.00917605 0.00000000)
(0.08382693 0.01630463 0.00000000)
(0.09374913 0.02730471 0.00000000)
(0.10476189 0.03820971 0.00000000)
(0.11346051 0.05158386 0.00000000)
(0.12765227 0.06330264 0.00000000)
(0.14280163 0.08479164 0.00000000)
(0.15323812 0.09699564 0.00000000)
(0.16513176 0.11547290 0.00000000)
(0.16448889 0.13571174 0.00000000)
(0.17060577 0.16207394 0.00000000)
(0.18056251 0.16276788 0.00000000)
(0.17400618 0.17412300 0.00000000)
(0.21496888 0.16247287 0.00000000)
(0.21015558 0.15288570 0.00000000)
(0.17445473 0.12764719 0.00000000)
(0.12358585 0.08973807 0.00000000)
(0.17322545 0.14273722 0.00000000)
(0.18761983 0.14077233 0.00000000)
(0.35414454 0.27007414 0.00000000)
(0.39876176 0.30742166 0.00000000)
(0.20903312 0.12841859 0.00000000)
(0.08272279 0.04573702 0.00000000)
(0.34487293 0.07740607 0.00000000)
(0.30659012 0.02765803 0.00000000)
(0.21234740 0.01080565 0.00000000)
(0.14872887 0.00236222 0.00000000)
(0.18882990 -0.00168390 0.00000000)
(0.21983756 -0.00735273 0.00000000)
(0.17177984 -0.00558534 0.00000000)
(0.01182164 -0.00023268 0.00000000)
(-0.03751663 0.02910368 0.00000000)
(-0.05938092 0.03153689 0.00000000)
(-0.06877896 0.05221034 0.00000000)
(-0.06767584 0.05090376 0.00000000)
(-0.05546505 0.04244886 0.00000000)
(-0.05203460 0.04097520 0.00000000)
(-0.04931746 0.04855989 0.00000000)
(-0.05416446 0.04435399 0.00000000)
(-0.05777675 0.04581849 0.00000000)
(-0.06517048 0.05105853 0.00000000)
(-0.07671710 0.06110287 0.00000000)
(-0.09019348 0.07616388 0.00000000)
(-0.10409815 0.08312436 0.00000000)
(-0.12147887 0.09337439 0.00000000)
(-0.13622934 0.10191351 0.00000000)
(-0.15108464 0.10413714 0.00000000)
(-0.16706731 0.10697004 0.00000000)
(-0.17955795 0.09951307 0.00000000)
(-0.18657724 0.08942499 0.00000000)
(-0.19606844 0.07616993 0.00000000)
(-0.20045176 0.06121514 0.00000000)
(-0.20600298 0.04473246 0.00000000)
(-0.21200304 0.02802019 0.00000000)
(-0.23113544 0.01400527 0.00000000)
(-0.25805179 0.00903027 0.00000000)
(-0.28008236 0.00651166 0.00000000)
(-0.29492837 0.00446043 0.00000000)
(-0.30422615 0.00301358 0.00000000)
(-0.30894037 0.00190091 0.00000000)
(-0.31018557 0.00069623 0.00000000)
(-0.30768230 -0.00047638 0.00000000)
(-0.30250685 -0.00092983 0.00000000)
(-0.29584265 -0.00159209 0.00000000)
(-0.28647958 -0.00218441 0.00000000)
(-0.27690375 -0.00211820 0.00000000)
(-0.26622112 -0.00290378 0.00000000)
(-0.25443554 -0.00292199 0.00000000)
(-0.24146852 -0.00344627 0.00000000)
(-0.22608390 -0.00457441 0.00000000)
(-0.20943334 -0.00433394 0.00000000)
(-0.19314191 -0.00430952 0.00000000)
(-0.17730712 -0.00413162 0.00000000)
(-0.16177413 -0.00426123 0.00000000)
(-0.14669397 -0.00396770 0.00000000)
(-0.13201299 -0.00372842 0.00000000)
(-0.11796552 -0.00376097 0.00000000)
(-0.10313698 -0.00418315 0.00000000)
(-0.08743457 -0.00421146 0.00000000)
(-0.07162229 -0.00429610 0.00000000)
(-0.05631113 -0.00404403 0.00000000)
(-0.04221356 -0.00384972 0.00000000)
(-0.02772265 -0.00349695 0.00000000)
(-0.01477801 -0.00350974 0.00000000)
(-0.00160215 -0.00336822 0.00000000)
(0.01092420 -0.00307486 0.00000000)
(0.02277945 -0.00335314 0.00000000)
(0.03536913 -0.00314424 0.00000000)
(0.04722624 -0.00308281 0.00000000)
(0.05811104 -0.00266726 0.00000000)
(0.06864301 -0.00269745 0.00000000)
(0.07869369 -0.00255591 0.00000000)
(0.08811810 -0.00225424 0.00000000)
(0.09700213 -0.00212419 0.00000000)
(0.10575575 -0.00228901 0.00000000)
(0.11467121 -0.00214588 0.00000000)
(0.12257114 -0.00194818 0.00000000)
(0.13023449 -0.00181760 0.00000000)
(0.13673553 -0.00149354 0.00000000)
(0.14306849 -0.00148485 0.00000000)
(0.14916888 -0.00140775 0.00000000)
(0.15490912 -0.00127981 0.00000000)
(0.16047733 -0.00128677 0.00000000)
(0.16588736 -0.00135482 0.00000000)
(0.17083899 -0.00102182 0.00000000)
(0.17546722 -0.00110075 0.00000000)
(0.17967877 -0.00082202 0.00000000)
(0.18270939 -0.00043091 0.00000000)
(0.18481735 -0.00016866 0.00000000)
(0.18539364 0.00017400 0.00000000)
(0.18513745 0.00043327 0.00000000)
(0.18373936 0.00083313 0.00000000)
(0.18113471 0.00115093 0.00000000)
(0.17713020 0.00152935 0.00000000)
(0.17168141 0.00191176 0.00000000)
(0.16456455 0.00257135 0.00000000)
(0.15492335 0.00328911 0.00000000)
(0.14204659 0.00432184 0.00000000)
(0.12518853 0.00559371 0.00000000)
(0.10829589 0.00806112 0.00000000)
(0.10121692 0.01166883 0.00000000)
(0.10497839 0.02017643 0.00000000)
(0.11367214 0.03186709 0.00000000)
(0.12470542 0.04464672 0.00000000)
(0.13590202 0.06073982 0.00000000)
(0.15247511 0.07688612 0.00000000)
(0.16743808 0.09846289 0.00000000)
(0.17708906 0.11561597 0.00000000)
(0.19568831 0.13501570 0.00000000)
(0.21272840 0.16817422 0.00000000)
(0.23671833 0.20250708 0.00000000)
(0.25860719 0.21664933 0.00000000)
(0.23901112 0.22507247 0.00000000)
(0.27503546 0.20454843 0.00000000)
(0.27186787 0.19833348 0.00000000)
(0.27394479 0.20743315 0.00000000)
(0.23060351 0.17496520 0.00000000)
(0.25922934 0.23473629 0.00000000)
(0.30484717 0.22864882 0.00000000)
(0.46017997 0.34880804 0.00000000)
(0.53019545 0.40444289 0.00000000)
(0.35068219 0.20327857 0.00000000)
(0.25230987 0.10059449 0.00000000)
(0.48636369 0.11479307 0.00000000)
(0.42616603 0.04416377 0.00000000)
(0.28587761 0.01522399 0.00000000)
(0.19914096 0.00346802 0.00000000)
(0.24193620 -0.00240221 0.00000000)
(0.27342588 -0.00952506 0.00000000)
(0.22442181 -0.00841586 0.00000000)
(0.03420339 -0.00266503 0.00000000)
(-0.04117090 0.03394898 0.00000000)
(-0.06750789 0.03903966 0.00000000)
(-0.07582418 0.05750482 0.00000000)
(-0.07534320 0.05659918 0.00000000)
(-0.06553658 0.05010178 0.00000000)
(-0.05985470 0.04799911 0.00000000)
(-0.05923318 0.05508764 0.00000000)
(-0.06318139 0.05223531 0.00000000)
(-0.06826241 0.05446255 0.00000000)
(-0.07665227 0.06104569 0.00000000)
(-0.08767173 0.07101501 0.00000000)
(-0.10420016 0.08647882 0.00000000)
(-0.11976878 0.09646852 0.00000000)
(-0.13573654 0.10564988 0.00000000)
(-0.15253383 0.11499891 0.00000000)
(-0.16575756 0.11576899 0.00000000)
(-0.18125373 0.11631649 0.00000000)
(-0.19326693 0.10848606 0.00000000)
(-0.20250955 0.09766233 0.00000000)
(-0.21211085 0.08326482 0.00000000)
(-0.21857683 0.06698745 0.00000000)
(-0.22537222 0.04901814 0.00000000)
(-0.23385819 0.03125370 0.00000000)
(-0.25420219 0.01709432 0.00000000)
(-0.28026738 0.01113562 0.00000000)
(-0.30037345 0.00793901 0.00000000)
(-0.31364037 0.00537699 0.00000000)
(-0.32139558 0.00350063 0.00000000)
(-0.32467262 0.00209681 0.00000000)
(-0.32481890 0.00056561 0.00000000)
(-0.32105665 -0.00089506 0.00000000)
(-0.31480618 -0.00145012 0.00000000)
(-0.30698941 -0.00231851 0.00000000)
(-0.29666211 -0.00304102 0.00000000)
(-0.28609339 -0.00299899 0.00000000)
(-0.27433199 -0.00392828 0.00000000)
(-0.26174418 -0.00396691 0.00000000)
(-0.24769104 -0.00468685 0.00000000)
(-0.23158754 -0.00598531 0.00000000)
(-0.21415483 -0.00577003 0.00000000)
(-0.19695878 -0.00569608 0.00000000)
(-0.18038847 -0.00544536 0.00000000)
(-0.16415219 -0.00558904 0.00000000)
(-0.14830172 -0.00525828 0.00000000)
(-0.13272312 -0.00493945 0.00000000)
(-0.11773504 -0.00502321 0.00000000)
(-0.10211344 -0.00548630 0.00000000)
(-0.08573969 -0.00558420 0.00000000)
(-0.06932171 -0.00563787 0.00000000)
(-0.05331159 -0.00529464 0.00000000)
(-0.03841449 -0.00506540 0.00000000)
(-0.02313865 -0.00468070 0.00000000)
(-0.00933563 -0.00460971 0.00000000)
(0.00442963 -0.00448656 0.00000000)
(0.01777477 -0.00412309 0.00000000)
(0.03027321 -0.00438944 0.00000000)
(0.04347168 -0.00420072 0.00000000)
(0.05603409 -0.00405772 0.00000000)
(0.06745602 -0.00356986 0.00000000)
(0.07869827 -0.00360744 0.00000000)
(0.08927711 -0.00338479 0.00000000)
(0.09928307 -0.00304033 0.00000000)
(0.10884320 -0.00287871 0.00000000)
(0.11821392 -0.00308068 0.00000000)
(0.12769623 -0.00285059 0.00000000)
(0.13613863 -0.00262705 0.00000000)
(0.14429075 -0.00242890 0.00000000)
(0.15136294 -0.00203634 0.00000000)
(0.15826120 -0.00203898 0.00000000)
(0.16501539 -0.00193527 0.00000000)
(0.17126548 -0.00175644 0.00000000)
(0.17731376 -0.00175988 0.00000000)
(0.18325141 -0.00182177 0.00000000)
(0.18876733 -0.00143864 0.00000000)
(0.19374818 -0.00151556 0.00000000)
(0.19844629 -0.00114579 0.00000000)
(0.20199415 -0.00067362 0.00000000)
(0.20439594 -0.00030490 0.00000000)
(0.20546450 0.00015400 0.00000000)
(0.20550433 0.00046857 0.00000000)
(0.20456498 0.00099288 0.00000000)
(0.20225489 0.00139772 0.00000000)
(0.19861253 0.00192155 0.00000000)
(0.19330493 0.00241282 0.00000000)
(0.18641111 0.00323384 0.00000000)
(0.17708913 0.00420744 0.00000000)
(0.16444903 0.00552105 0.00000000)
(0.14779804 0.00718724 0.00000000)
(0.13077273 0.01004332 0.00000000)
(0.12219431 0.01428936 0.00000000)
(0.12428085 0.02347209 0.00000000)