7 	0.0083134446513525 	1.73472347597681e-18 	0.609074756072084 	0.000159107215493927 	505.012863722388 	3.18892571374323e-07 	0
7 	0.0140935732807766 	1.73472347597681e-17 	0.609073041648994 	0.000809414824335018 	125.983926173645 	3.31493130615479e-06 	0
7 	0.0200854450126847 	2.08166817117217e-17 	0.609073450360178 	0.00243241207165466 	52.278471941347 	4.22707301672339e-05 	0
7 	0.0262968166218313 	1.90819582357449e-17 	0.609073757209181 	0.00492337704730298 	27.85716298786 	0.000201558571845501 	0
7 	0.0327357290367123 	2.77555756156289e-17 	0.609071885191975 	0.00760521638853931 	17.624443615552 	0.000424403449668754 	0
7 	0.0394105177489778 	3.12250225675825e-17 	0.609066339533625 	0.01007225118917 	12.6133534091162 	0.000605142955262592 	0
7 	0.0463298236041721 	2.77555756156289e-17 	0.60905610877964 	0.0122717355569894 	9.799917251891 	0.000743698644594999 	0
7 	0.053502603987774 	2.08166817117217e-17 	0.60904064937174 	0.0142558942295403 	8.03676394774305 	0.000865138177258409 	0
7 	0.0609381444210178 	1.21430643318376e-17 	0.609019688149636 	0.0160800309981708 	6.83827359281986 	0.000983169641347563 	0
7 	0.0686460705815036 	1.73472347597681e-17 	0.608993041823083 	0.0177858788402898 	5.97390209043895 	0.00110387853233534 	0
7 	0.0766363607641627 	1.73472347597681e-17 	0.608960564734883 	0.0194033652722757 	5.32255607193302 	0.00123025205797793 	0
7 	0.0849193587987072 	1.38777878078145e-17 	0.608922142746801 	0.020954173217122 	4.81517203360504 	0.00136404903450765 	0
7 	0.0935057874402871 	1.04083408558608e-17 	0.608877692234813 	0.0224546140636414 	4.40967693711265 	0.00150652305362667 	0
7 	0.10240676225069 	0 	0.608827160906951 	0.0239171961473159 	4.07904284270149 	0.001658707654208 	0
7 	0.111633805988055 	0 	0.608770528822612 	0.0253517639056718 	3.80513823683302 	0.00182155187447344 	0
7 	0.121198863523723 	6.93889390390723e-18 	0.60870780943646 	0.0267662593227058 	3.57535700494301 	0.00199598400627815 	0
7 	0.131114317305552 	3.46944695195361e-18 	0.608639050516314 	0.0281672351513494 	3.38066919515526 	0.0021829459616292 	0
7 	0.141393003387687 	6.93889390390723e-18 	0.608564334623722 	0.0295602081834984 	3.21444191503262 	0.00238341413123646 	0
7 	0.152048228047569 	1.04083408558608e-17 	0.608483778914333 	0.0309499070728782 	3.07169807169216 	0.00259841363543588 	0
7 	0.163093785011667 	3.46944695195361e-18 	0.608397534072337 	0.0323404488474657 	2.94863462611905 	0.00282902922733047 	0
7 	0.174543973312254 	3.46944695195361e-18 	0.608305782201426 	0.0337354658741003 	2.84230032200096 	0.00307641445541839 	0
7 	0.186413615798334 	1.04083408558608e-17 	0.608208733483474 	0.0351381973840755 	2.75037455521189 	0.00334179988705257 	0
7 	0.19871807832468 	8.89045781438114e-18 	0.608105779046615 	0.0365520978200998 	2.67105926763373 	0.00362662791799543 	0
7 	0.211473289643843 	-2.38524477946811e-18 	0.607994823652783 	0.0379813807222754 	2.60298773252135 	0.00393267701720532 	0
7 	0.224695762026858 	-8.67361737988404e-19 	0.607879275697972 	0.0394264454495526 	2.5447811234699 	0.00426102215202466 	0
7 	0.238402612639367 	6.07153216591882e-18 	0.607759403186309 	0.0408894299734244 	2.49547154755718 	0.00461332269582542 	0
7 	0.252611585700823 	6.07153216591882e-18 	0.607635459744766 	0.0423722351000065 	2.45426751603902 	0.00499135103659954 	0
7 	0.26734107545545 	6.07153216591882e-18 	0.607507669996902 	0.0438765158022814 	2.42051976540505 	0.00539699382249611 	0
7 	0.282610149984722 	8.67361737988404e-18 	0.607376211639651 	0.0454036614822639 	2.39369463679715 	0.00583225038721807 	0
7 	0.298438575892171 	1.30104260698261e-17 	0.607241193730951 	0.0469547648209359 	2.37335299345405 	0.00629922712119044 	0
7 	0.314846843892484 	2.08166817117217e-17 	0.607102630658465 	0.0485305784765352 	2.35913320934018 	0.00680012610971171 	0
7 	0.331856195338022 	2.94902990916057e-17 	0.606960411222228 	0.0501314585542031 	2.35073714370629 	0.00733722579753294 	0
7 	0.349488649717101 	2.77555756156289e-17 	0.606814262222949 	0.0517572934914415 	2.34791828358054 	0.00791285074268964 	0
7 	0.367767033159629 	2.60208521396521e-17 	0.606663705886532 	0.0534074167993202 	2.35047142726328 	0.00852932668092371 	0
7 	0.386715007987015 	2.60208521396521e-17 	0.606508010385156 	0.0550805020026395 	2.35822342322669 	0.00918891615774869 	0
7 	0.406357103344595 	3.29597460435593e-17 	0.60634613287682 	0.0567744381910328 	2.37102459002284 	0.00989372900856359 	0
7 	0.426718746956238 	3.46944695195361e-17 	0.606176655182244 	0.0584861849154944 	2.38874054007432 	0.0106456010358944 	0
7 	0.447826298042241 	2.77555756156289e-17 	0.605997710550066 	0.0602116058703653 	2.41124422906794 	0.0114459320924364 	0
7 	0.469707081443133 	2.08166817117217e-17 	0.605806885532355 	0.0619452821055244 	2.43840817177615 	0.0122954688877856 	0
7 	0.492389422993566 	1.38777878078145e-17 	0.605601073426511 	0.0636803078280642 	2.47009693272265 	0.013194025304292 	0
7 	0.515902686192082 	1.38777878078145e-17 	0.605376443944167 	0.0654080754711349 	2.50616024541248 	0.0141402500152972 	0
7 	0.532990765516158 	7.80625564189563e-18 	0.605205332089993 	0.0666193606363455 	2.53399736830968 	0.0148341340633582 	0
7 	0.545416491863872 	4.55364912443912e-18 	0.605075994638202 	0.0674687965616255 	2.55511686408559 	0.015340429813193 	0
7 	0.56561558994153 	8.89045781438114e-18 	0.604857234515161 	0.0687994624083693 	2.59054582168561 	0.0161639557587206 	0
7 	0.591872520294455 	6.93889390390723e-18 	0.604547055502732 	0.0704368391195028 	2.63848403088321 	0.0172766386397958 	0
7 	0.619086962081541 	2.60208521396521e-18 	0.604152812557417 	0.0720154857154576 	2.69008017886663 	0.0185616784252675 	0
7 	0.647293649161612 	2.60208521396521e-18 	0.603617469487747 	0.0735252367248796 	2.74539704881623 	0.019997227433695 	0
7 	0.676528560138408 	-3.46944695195361e-18 	0.602953296771949 	0.074950693762332 	2.80411182945385 	0.0216348301534866 	0
7 	0.706828961640425 	-1.04083408558608e-17 	0.602213233184215 	0.0762444133468349 	2.86435974215647 	0.0233324693528012 	0
7 	0.738233452981483 	-8.67361737988404e-18 	0.601410155713692 	0.0773300616720837 	2.92269254848614 	0.0249000355557415 	0
7 	0.770782012233241 	-6.93889390390723e-18 	0.600518960877583 	0.078118559151243 	2.97471358650177 	0.026195249165293 	0
7 	0.804516043740078 	0 	0.599506570151767 	0.0785229769079582 	3.01588128345904 	0.0271406656615827 	0
7 	0.839478427105647 	3.46944695195361e-18 	0.598345203390824 	0.0784677105929558 	3.04220863977423 	0.0277070717327734 	0
7 	0.875713567679045 	-1.51788304147971e-18 	0.597013104860482 	0.077886651618694 	3.0505952034933 	0.0278818648619638 	0
7 	0.913267448566817 	2.81892564846231e-18 	0.595486599120188 	0.0767071431173238 	3.03857415382608 	0.0276335221207271 	0
7 	0.952187684194936 	7.80625564189563e-18 	0.593748281146691 	0.0749278031812266 	3.00663381318569 	0.0269531907933399 	0
7 	0.992523575442367 	6.93889390390723e-18 	0.591781163595564 	0.0725437315575287 	2.95537312071493 	0.0258240090209579 	0
7 	1.03432616636481 	1.04083408558608e-17 	0.589570360280766 	0.0695578266912049 	2.88412889272357 	0.0242380552838107 	0
7 	1.07764830252366 	1.38777878078145e-17 	0.587105283602294 	0.0659850097001829 	2.78901665296395 	0.0222180427714254 	0
7 	1.12254469093089 	1.04083408558608e-17 	0.584379663641745 	0.0618943898666225 	2.66786675558775 	0.0198245922112617 	0
7 	1.16839341375066 	6.93889390390723e-18 	0.581437755391362 	0.0574918123057655 	2.52706162913577 	0.0172098015445565 	0
7 	1.19207312461264 	8.70072243419617e-18 	0.579874759760926 	0.0551873528654261 	2.45130418807182 	0.0158380582859995 	0
7 	1.21732269111016 	7.83336069620777e-18 	0.578161340501367 	0.052767167980962 	2.37007447112361 	0.0144227032432745 	0
7 	1.2673332801874 	6.07153216591882e-18 	0.574700330394091 	0.0480852514861489 	2.21347615170966 	0.0117569800324201 	0
7 	1.31911511155706 	6.93889390390723e-18 	0.571046291662841 	0.0435315061668298 	2.06517711680746 	0.00935920498387944 	0
7 	1.37272810921165 	1.04083408558608e-17 	0.567411999130873 	0.0393260980273809 	1.93627368569186 	0.00738534144107589 	0
7 	1.41220272459524 	1.04083408558608e-17 	0.564916435458109 	0.036346487088946 	1.85395802838325 	0.00601073299807951 	0
7 	1.43617694926586 	6.93889390390723e-18 	0.563329827515895 	0.0345065163408051 	1.80757136788831 	0.00525824109671771 	0
7 	1.45930396367274 	3.46944695195361e-18 	0.561906758891446 	0.0328571779873022 	1.7696740889299 	0.00462031338887483 	0
7 	1.48161370685419 	-3.46944695195361e-18 	0.560560631867616 	0.0313072150754542 	1.73777016454678 	0.00402848793590834 	0
7 	1.50313505985141 	-3.46944695195361e-18 	0.559285461232322 	0.0298524889754144 	1.71178207297154 	0.00348294940741491 	0
7 	1.52389588309638 	0 	0.558079838325255 	0.028488549790432 	1.69165466369921 	0.00298397740171685 	0
7 	1.54392305247858 	3.46944695195361e-18 	0.556941966620311 	0.0272107813871605 	1.67735912744309 	0.00253066118812691 	0
7 	1.56324249413704 	6.93889390390723e-18 	0.555869519077511 	0.0260145306101055 	1.66889871150672 	0.00212132878057783 	0
7 	1.58187921802306 	6.93889390390723e-18 	0.554860007066499 	0.0248952259904605 	1.66631542818936 	0.00175390797858743 	0
7 	1.59985735027679 	3.46944695195361e-18 	0.553910878296321 	0.0238484786787848 	1.66969727110658 	0.00142619156369119 	0
7 	1.61720016445966 	0 	0.553019538165542 	0.0228701613181798 	1.67918569012733 	0.00113602522759549 	0
7 	1.63393011168312 	0 	0.552183375112275 	0.0219564658113863 	1.69498324673919 	0.000881442669456931 	0
7 	1.65006884967273 	3.46944695195361e-18 	0.551399786988505 	0.0211039427617457 	1.7173614669158 	0.000660764473874866 	0
7 	1.66563727080512 	6.93889390390723e-18 	0.550666202911246 	0.020309525659719 	1.74666893760638 	0.00047267203875277 	0
7 	1.68065552915415 	6.93889390390723e-18 	0.549980100571718 	0.0195705428734037 	1.7833396649081 	0.000316264721448026 	0
7 	1.69514306658136 	6.93889390390723e-18 	0.549339019811678 	0.0188847203128432 	1.82790162934492 	0.000191105930059846 	0
7 	1.70911863790442 	6.93889390390723e-18 	0.548740572979761 	0.0182501761174136 	1.88098533745689 	9.72615872400652e-05 	0
7 	1.72260033517611 	1.04083408558608e-17 	0.548182452535344 	0.0176654072970163 	1.94333198155319 	3.53321116811328e-05 	0
7 	1.73560561110537 	1.38777878078145e-17 	0.547662436391984 	0.0171292673447463 	2.01580058177545 	6.47669753460163e-06 	0
7 	1.74815130165068 	1.38777878078145e-17 	0.547178391446883 	0.0166409331389907 	2.09937320158534 	1.24262445632659e-05 	0
7 	1.76025364781503 	1.38777878078145e-17 	0.546728275670355 	0.0161998589106619 	2.19515701769892 	5.54789071056213e-05 	0
7 	1.77192831667065 	1.04083408558608e-17 	0.546310139057789 	0.0158057147792134 	2.30438172867371 	0.000138470109878649 	0
7 	1.78319042164084 	6.93889390390723e-18 	0.545922123682257 	0.0154583075215995 	2.42839057393586 	0.000264707445088926 	0
7 	1.79405454206499 	6.93889390390723e-18 	0.545562463029961 	0.0151574819885609 	2.56862321473863 	0.000437860761332824 	0
7 	1.80453474207227 	6.93889390390723e-18 	0.545229480750447 	0.0149030031307203 	2.72658903958326 	0.000661799762595479 	0
7 	1.81464458878828 	3.46944695195361e-18 	0.544921588904663 	0.0146944211182715 	2.90383024374126 	0.000940376256832353 	0
7 	1.8243971698984 	-3.46944695195361e-18 	0.544637285748192 	0.014530925453846 	3.10187539552479 	0.00127715609006316 	0
7 	1.83380511059041 	-6.93889390390723e-18 	0.544375153053735 	0.01441119785933 	3.32218612675408 	0.00167511618449958 	0
7 	1.84288058989839 	-6.93889390390723e-18 	0.54413385296683 	0.0143332772757407 	3.56610187598706 	0.00213633326291284 	0
7 	1.85163535646909 	-6.93889390390723e-18 	0.543912124407645 	0.0142944525096932 	3.83478986644239 	0.002661700091204 	0
7 	1.86008074377113 	-3.46944695195361e-18 	0.543708779077674 	0.0142911978714302 	4.12920915897995 	0.00325070938854582 	0
7 	1.8682276847667 	0 	0.543522697191492 	0.0143191639689012 	4.45009812853369 	0.00390134268587787 	0
7 	1.87608672606481 	0 	0.543352823111538 	0.0143732297863236 	4.79799373367694 	0.00461009094144355 	0
7 	1.88366804157438 	0 	0.543198161096934 	0.0144476142783457 	5.173288554265 	0.00537211753963516 	0
7 	1.89098144567491 	-3.46944695195361e-18 	0.543057771369255 	0.0145360375800738 	5.57632829218262 	0.00618155612261641 	0
7 	1.89803640592158 	-6.93889390390723e-18 	0.542930766643894 	0.0146319153195274 	6.00754912473282 	0.00703191976938547 	0
7 	1.90484205530155 	-6.93889390390723e-18 	0.542816309184506 	0.0147285657212391 	6.46765189246186 	0.00791658761427162 	0
7 	1.91140720405698 	-1.04083408558608e-17 	0.54271360833066 	0.0148194086767814 	6.95780931007527 	0.00882933144547036 	0
7 	1.91774035109035 	-1.38777878078145e-17 	0.542621918350728 	0.0148981383340753 	7.47990357490143 	0.00976484756449699 	0
7 	1.9238496949667 	-1.04083408558608e-17 	0.542540536404831 	0.0149588550278056 	8.03679495775441 	0.0107192664135871 	0
7 	1.92974314452705 	-3.46944695195361e-18 	0.542468800378501 	0.0149961473405279 	8.63262710037221 	0.0116906220728929 	0
7 	1.93542832912681 	0 	0.54240608636598 	0.0150051196860582 	9.27318180900802 	0.0126792738551936 	0
7 	1.9409126085123 	0 	0.542351805630611 	0.0149813642916819 	9.96630543378413 	0.0136882813605606 	0
7 	1.94620308234835 	-3.46944695195361e-18 	0.542305400932304 	0.0149208783885349 	10.7224412662923 	0.0147237408476571 	0
7 	1.95130659940914 	-3.46944695195361e-18 	0.542266342175576 	0.0148199275835002 	11.5553192876822 	0.0157950922983175 	0
7 	1.95622976644424 	0 	0.542234121372354 	0.014674854638463 	12.4828788723399 	0.0169153992863283 	0
7 	1.96097895673142 	0 	0.5422082469055 	0.0144818290289909 	13.5285365252858 	0.0181015749531417 	0
7 	1.96556031832711 	3.46944695195361e-18 	0.542188237141302 	0.0142365270606513 	14.7229568953272 	0.0193744808730646 	0
7 	1.96997978202541 	6.93889390390723e-18 	0.542173613442956 	0.0139337233316968 	16.1065802928923 	0.0207586970525426 	0
7 	1.97424306903576 	6.93889390390723e-18 	0.542163892520008 	0.0135667631334424 	17.7332860288351 	0.0222815164010989 	0
7 	1.9783556983893 	6.93889390390723e-18 	0.542158578095709 	0.013126874066774 	19.6757749941619 	0.0239702073533582 	0
7 	1.98232299408358 	1.04083408558608e-17 	0.542157151985053 	0.0126022669197001 	22.0336172130861 	0.0258455278804469 	0
7 	1.9861500919747 	1.38777878078145e-17 	0.542159064773972 	0.0119769921843053 	24.9455180614005 	0.0279073565756941 	0
7 	1.9898419464259 	1.38777878078145e-17 	0.542163726530092 	0.0112296151231592 	28.6084879754974 	0.030104173039011 	0
7 	1.99340333672127 	1.38777878078145e-17 	0.542170497979554 	0.0103321070331144 	33.3089220032459 	0.0322709497822425 	0
7 	1.99683887325273 	1.04083408558608e-17 	0.542178680954668 	0.00925033004283221 	39.4761131686376 	0.0340120047796217 	0
7 	2.00015300348845 	6.93889390390723e-18 	0.5421875049413 	0.0079499974598656 	47.7842057112634 	0.0345192885071192 	0
7 	2.00335001773022 	6.93889390390723e-18 	0.542196121801773 	0.00641696034699652 	59.3781878678454 	0.0324516467327303 	0
7 	2.00643405466757 	1.04083408558608e-17 	0.54220368086833 	0.00470391413974563 	76.4664590033658 	0.0264357989092524 	0
7 	2.00940910673543 	1.38777878078145e-17 	0.54220959073547 	0.00299117455653725 	104.062176441522 	0.0169363321776621 	0
7 	2.01227902528252 	1.38777878078145e-17 	0.54221386135153 	0.00156690642747016 	155.373124206525 	0.00765931577711858 	0
7 	2.01504752555717 	1.04083408558608e-17 	0.542217137924573 	0.000640052698427515 	270.505439455151 	0.00222774296314269 	0
7 	2.01771819151684 	6.93889390390723e-18 	0.542220320712832 	0.000186504828907141 	605.836388559818 	0.000377813666919273 	0
7 	2.02029448046774 	6.93889390390723e-18 	0.542223985511722 	3.19779602681874e-05 	2195.98975910879 	3.19094537738088e-05 	0
7 	2.02277972754047 	6.93889390390723e-18 	0.542227353398086 	2.35685723631771e-06 	8930.82106554709 	1.07015891430217e-06 	2.01356014191611e-38
