# vtk DataFile Version 2.0
wallFaceSet
ASCII
DATASET POLYDATA
POINTS 242 float
1.77817 0.013092 -0.1 1.85757 0.00292608 -0.1 1.85757 0.00292608 0.1 1.77817 0.013092
0.1 1.93757 -7.27053e-09 -0.1 1.93757 -7.27053e-09 0.1 2.01764 0 -0.1
2.01764 0 0.1 2.09772 0 -0.1 2.09772 0 0.1 2.17779
0 -0.1 2.17779 0 0.1 2.25787 0 -0.1 2.25787 0
0.1 2.33795 0 -0.1 2.33795 0 0.1 2.41802 0 -0.1
2.41802 0 0.1 2.4981 -1.11022e-16 -0.1 2.4981 -1.11022e-16 0.1 2.57817
0 -0.1 2.57817 0 0.1 2.65825 0 -0.1 2.65825 0
0.1 2.73833 0 -0.1 2.73833 0 0.1 2.8184 0 -0.1
2.8184 0 0.1 2.89848 2.22045e-16 -0.1 2.89848 2.22045e-16 0.1 2.97855
0 -0.1 2.97855 0 0.1 3.05863 0 -0.1 3.05863 0
0.1 3.13871 0 -0.1 3.13871 0 0.1 3.21878 0 -0.1
3.21878 0 0.1 3.29886 0 -0.1 3.29886 0 0.1 3.37893
0 -0.1 3.37893 0 0.1 3.45901 0 -0.1 3.45901 0
0.1 3.53909 0 -0.1 3.53909 0 0.1 3.61916 0 -0.1
3.61916 0 0.1 3.69924 -1.11022e-16 -0.1 3.69924 -1.11022e-16 0.1 3.77932
0 -0.1 3.77932 0 0.1 3.85939 0 -0.1 3.85939 0
0.1 3.93947 0 -0.1 3.93947 0 0.1 4.01954 0 -0.1
4.01954 0 0.1 4.09962 2.22045e-16 -0.1 4.09962 2.22045e-16 0.1 4.1797
0 -0.1 4.1797 0 0.1 4.25977 0 -0.1 4.25977 0
0.1 4.33985 0 -0.1 4.33985 0 0.1 4.41992 0 -0.1
4.41992 0 0.1 4.5 0 -0.1 4.5 0 0.1 4.58008
0 -0.1 4.58008 0 0.1 4.66015 0 -0.1 4.66015 0
0.1 4.74023 0 -0.1 4.74023 0 0.1 4.8203 0 -0.1
4.8203 0 0.1 4.90038 0 -0.1 4.90038 0 0.1 4.98046
0 -0.1 4.98046 0 0.1 5.06053 0 -0.1 5.06053 0
0.1 5.14061 0 -0.1 5.14061 0 0.1 5.22069 0 -0.1
5.22069 0 0.1 5.30076 0 -0.1 5.30076 0 0.1 5.38084
0 -0.1 5.38084 0 0.1 5.46091 0 -0.1 5.46091 0
0.1 5.54099 0 -0.1 5.54099 0 0.1 5.62107 0 -0.1
5.62107 0 0.1 5.70114 0 -0.1 5.70114 0 0.1 5.78122
0 -0.1 5.78122 0 0.1 5.86129 0 -0.1 5.86129 0
0.1 5.94137 0 -0.1 5.94137 0 0.1 6.02145 0 -0.1
6.02145 0 0.1 6.10152 0 -0.1 6.10152 0 0.1 6.1816
0 -0.1 6.1816 0 0.1 6.26167 0 -0.1 6.26167 0
0.1 6.34175 0 -0.1 6.34175 0 0.1 6.42183 0 -0.1
6.42183 0 0.1 6.5019 0 -0.1 6.5019 0 0.1 6.58198
0 -0.1 6.58198 0 0.1 6.66205 0 -0.1 6.66205 0
0.1 6.74213 0 -0.1 6.74213 0 0.1 6.82221 0 -0.1
6.82221 0 0.1 6.90228 0 -0.1 6.90228 0 0.1 6.98236
0 -0.1 6.98236 0 0.1 7.06243 -7.27053e-09 -0.1 7.06243 -7.27053e-09
0.1 7.14243 0.00292608 -0.1 7.14243 0.00292608 0.1 7.22183 0.013092 -0.1
7.22183 0.013092 0.1 7.30004 0.0301624 -0.1 7.30004 0.0301624 0.1 7.37659
0.0535941 -0.1 7.37659 0.0535941 0.1 7.45115 0.0827571 -0.1 7.45115 0.0827571
0.1 7.52352 0.116998 -0.1 7.52352 0.116998 0.1 7.59362 0.155685 -0.1
7.59362 0.155685 0.1 7.66158 0.198013 -0.1 7.66158 0.198013 0.1 7.72783
0.242991 -0.1 7.72783 0.242991 0.1 7.79279 0.28982 -0.1 7.79279 0.28982
0.1 7.85685 0.337858 -0.1 7.85685 0.337858 0.1 7.92041 0.386566 -0.1
7.92041 0.386566 0.1 7.98378 0.435521 -0.1 7.98378 0.435521 0.1 8.04695
0.484726 -0.1 8.04695 0.484726 0.1 8.10981 0.534329 -0.1 8.10981 0.534329
0.1 8.17225 0.584466 -0.1 8.17225 0.584466 0.1 8.23415 0.635264 -0.1
8.23415 0.635264 0.1 8.29541 0.68683 -0.1 8.29541 0.68683 0.1 8.35618
0.738979 -0.1 8.35618 0.738979 0.1 8.41722 0.790815 -0.1 8.41722 0.790815
0.1 8.4794 0.841267 -0.1 8.4794 0.841267 0.1 8.5437 0.888977 -0.1
8.5437 0.888977 0.1 8.61132 0.931814 -0.1 8.61132 0.931814 0.1 8.68355
0.966214 -0.1 8.68355 0.966214 0.1 8.7605 0.988 -0.1 8.7605 0.988
0.1 8.83989 0.998027 -0.1 8.83989 0.998027 0.1 8.91992 1 -0.1
8.91992 1 0.1 9 1 -0.1 9 1 0.1 0
1 -0.1 0.0800761 1 -0.1 0.0800761 1 0.1 0 1
0.1 0.160106 0.998027 -0.1 0.160106 0.998027 0.1 0.239496 0.988 -0.1
0.239496 0.988 0.1 0.316451 0.966214 -0.1 0.316451 0.966214 0.1 0.388678
0.931814 -0.1 0.388678 0.931814 0.1 0.456295 0.888977 -0.1 0.456295 0.888977
0.1 0.520598 0.841267 -0.1 0.520598 0.841267 0.1 0.582779 0.790815 -0.1
0.582779 0.790815 0.1 0.643816 0.738979 -0.1 0.643816 0.738979 0.1 0.704586
0.68683 -0.1 0.704586 0.68683 0.1 0.765846 0.635264 -0.1 0.765846 0.635264
0.1 0.827748 0.584466 -0.1 0.827748 0.584466 0.1 0.890185 0.534329 -0.1
0.890185 0.534329 0.1 0.953048 0.484726 -0.1 0.953048 0.484726 0.1 1.01622
0.435521 -0.1 1.01622 0.435521 0.1 1.07959 0.386566 -0.1 1.07959 0.386566
0.1 1.14315 0.337858 -0.1 1.14315 0.337858 0.1 1.20721 0.28982 -0.1
1.20721 0.28982 0.1 1.27217 0.242991 -0.1 1.27217 0.242991 0.1 1.33842
0.198013 -0.1 1.33842 0.198013 0.1 1.40638 0.155685 -0.1 1.40638 0.155685
0.1 1.47648 0.116998 -0.1 1.47648 0.116998 0.1 1.54885 0.0827571 -0.1
1.54885 0.0827571 0.1 1.62341 0.0535941 -0.1 1.62341 0.0535941 0.1 1.69996
0.0301624 -0.1 1.69996 0.0301624 0.1 
POLYGONS 120 600
4 0 1 2 3 4 1 4 5 2 4
4 6 7 5 4 6 8 9 7 4
8 10 11 9 4 10 12 13 11 4
12 14 15 13 4 14 16 17 15 4
16 18 19 17 4 18 20 21 19 4
20 22 23 21 4 22 24 25 23 4
24 26 27 25 4 26 28 29 27 4
28 30 31 29 4 30 32 33 31 4
32 34 35 33 4 34 36 37 35 4
36 38 39 37 4 38 40 41 39 4
40 42 43 41 4 42 44 45 43 4
44 46 47 45 4 46 48 49 47 4
48 50 51 49 4 50 52 53 51 4
52 54 55 53 4 54 56 57 55 4
56 58 59 57 4 58 60 61 59 4
60 62 63 61 4 62 64 65 63 4
64 66 67 65 4 66 68 69 67 4
68 70 71 69 4 70 72 73 71 4
72 74 75 73 4 74 76 77 75 4
76 78 79 77 4 78 80 81 79 4
80 82 83 81 4 82 84 85 83 4
84 86 87 85 4 86 88 89 87 4
88 90 91 89 4 90 92 93 91 4
92 94 95 93 4 94 96 97 95 4
96 98 99 97 4 98 100 101 99 4
100 102 103 101 4 102 104 105 103 4
104 106 107 105 4 106 108 109 107 4
108 110 111 109 4 110 112 113 111 4
112 114 115 113 4 114 116 117 115 4
116 118 119 117 4 118 120 121 119 4
120 122 123 121 4 122 124 125 123 4
124 126 127 125 4 126 128 129 127 4
128 130 131 129 4 130 132 133 131 4
132 134 135 133 4 134 136 137 135 4
136 138 139 137 4 138 140 141 139 4
140 142 143 141 4 142 144 145 143 4
144 146 147 145 4 146 148 149 147 4
148 150 151 149 4 150 152 153 151 4
152 154 155 153 4 154 156 157 155 4
156 158 159 157 4 158 160 161 159 4
160 162 163 161 4 162 164 165 163 4
164 166 167 165 4 166 168 169 167 4
168 170 171 169 4 170 172 173 171 4
172 174 175 173 4 174 176 177 175 4
176 178 179 177 4 178 180 181 179 4
180 182 183 181 4 182 184 185 183 4
184 186 187 185 4 186 188 189 187 4
190 191 192 193 4 191 194 195 192 4
194 196 197 195 4 196 198 199 197 4
198 200 201 199 4 200 202 203 201 4
202 204 205 203 4 204 206 207 205 4
206 208 209 207 4 208 210 211 209 4
210 212 213 211 4 212 214 215 213 4
214 216 217 215 4 216 218 219 217 4
218 220 221 219 4 220 222 223 221 4
222 224 225 223 4 224 226 227 225 4
226 228 229 227 4 228 230 231 229 4
230 232 233 231 4 232 234 235 233 4
234 236 237 235 4 236 238 239 237 4
238 240 241 239 4 240 0 3 241 
CELL_DATA 120
FIELD attributes 1
faceID 1 120 int
30976 30977 30978 30979 30980 30981 30982 30983 30984 30985 30986
30987 30988 30989 30990 30991 30992 30993 30994 30995 30996
30997 30998 30999 31000 31001 31002 31003 31004 31005 31006
31007 31008 31009 31010 31011 31012 31013 31014 31015 31016
31017 31018 31019 31020 31021 31022 31023 31024 31025 31026
31027 31028 31029 31030 31031 31032 31033 31034 31035 31036
31037 31038 31039 31040 31041 31042 31043 31044 31045 31046
31047 31048 31049 31050 31051 31052 31053 31054 31055 31056
31057 31058 31059 31060 31061 31062 31063 31064 31065 31066
31067 31068 31069 30950 30951 30952 30953 30954 30955 30956
30957 30958 30959 30960 30961 30962 30963 30964 30965 30966
30967 30968 30969 30970 30971 30972 30973 30974 30975 
