5 	0.00391112967796254 	-3.46944695195361e-18 	-0.0251816068393868 	-0.000131546167038383 	1.9990905770068e-16
5 	0.0118766651674912 	-6.93889390390723e-18 	-0.068413160183525 	-0.000457958731483597 	-4.23369684780792e-16
5 	0.0201340015485759 	-6.93889390390723e-18 	-0.0994854891447767 	-0.000949901212552654 	-1.04472163364466e-16
5 	0.0286938283423949 	-6.93889390390723e-18 	-0.116877782784054 	-0.00153708528891723 	9.0808752151533e-21
5 	0.0375672266585909 	-1.38777878078145e-17 	-0.123185526996249 	-0.0021256914087104 	1.1037524289173e-20
5 	0.0467656835403032 	-2.42861286636753e-17 	-0.123673893036617 	-0.00269888499910688 	-6.31367027817239e-21
5 	0.0563011068347007 	-3.46944695195361e-17 	-0.121788263219105 	-0.00327259084011075 	-7.82897294651071e-22
5 	0.0661858406082649 	-3.46944695195361e-17 	-0.118907879786956 	-0.00385559907601809 	4.0719106401107e-17
5 	0.0764326811267816 	-3.12250225675825e-17 	-0.115521829461552 	-0.00445050117567885 	9.22809314859232e-17
5 	0.0870548934207259 	-3.12250225675825e-17 	-0.111815887670763 	-0.00505907486340966 	-6.2022770433674e-17
5 	0.0980662284574839 	-3.12250225675825e-17 	-0.107865866590411 	-0.00568325445131417 	-3.47711998097657e-17
5 	0.109480940942647 	-3.12250225675825e-17 	-0.103702177445999 	-0.00632487057795281 	-3.20725641378944e-22
5 	0.121313807773416 	-3.12250225675825e-17 	-0.0993339225003969 	-0.00698553796790967 	-3.0919795581337e-22
5 	0.13358014716801 	-3.81639164714898e-17 	-0.0947589162997367 	-0.0076666805620566 	-1.2791027498712e-21
5 	0.146295838495838 	-3.81639164714898e-17 	-0.0899682214727384 	-0.00836957135992696 	-2.69126804337281e-21
5 	0.159477342834115 	-3.46944695195361e-17 	-0.0849483181754706 	-0.00909535705229599 	-1.11024963328882e-21
5 	0.173141724277517 	-2.77555756156289e-17 	-0.0796821598797559 	-0.00984507043700585 	2.17226254160958e-21
5 	0.18730667202848 	-1.73472347597681e-17 	-0.0741496627972801 	-0.0106196347552631 	2.78409789554303e-21
5 	0.201990523296728 	-2.08166817117217e-17 	-0.0683278852491049 	-0.0114198618069672 	3.05337669563927e-22
5 	0.217212287037675 	-2.77555756156289e-17 	-0.0621910240716345 	-0.0122464448106007 	-7.67683110639735e-22
5 	0.232991668560441 	-3.46944695195361e-17 	-0.0557102941314678 	-0.0130999466277165 	-2.8791563672728e-22
5 	0.249349095037321 	-4.16333634234434e-17 	-0.0488537267659567 	-0.0139807837154911 	-1.19381964021601e-22
5 	0.266305741947753 	-4.5102810375397e-17 	-0.0415859074780056 	-0.0148892059767701 	1.75460279461222e-22
5 	0.283883560490998 	-4.85722573273506e-17 	-0.0338676652825993 	-0.0158252725140027 	1.21925696255556e-21
5 	0.30210530600303 	-4.85722573273506e-17 	-0.0256557223322618 	-0.0167888230352442 	6.83016211505967e-22
4.99999999999999 	0.320994567414413 	-5.20417042793042e-17 	-0.0169023111935085 	-0.0177794447133699 	-2.86041658650245e-22
4.99999999999999 	0.340575797787321 	-6.24500451351651e-17 	-0.00755476774426138 	-0.0187964386633617 	-1.02517263650597e-21
4.99999999999999 	0.350726380773491 	-6.85215773010839e-17 	-0.00263357245291748 	-0.0193206992131521 	-1.54199198714072e-21
5 	0.361059777574914 	-6.50521303491303e-17 	0.0025341344816693 	-0.019848076518223 	-5.45298197825068e-22
5 	0.381921238654768 	-6.24500451351651e-17 	0.0131512545485926 	-0.0209048153054507 	9.60346419117809e-22
5 	0.403737460312803 	-6.24500451351651e-17 	0.0246450780498589 	-0.0219930609783534 	7.57099548142608e-23
5 	0.426352782500347 	-6.24500451351651e-17 	0.0370003435644007 	-0.0231010222376399 	1.37298312116245e-22
5 	0.449796471605112 	-5.55111512312578e-17 	0.050300780084939 	-0.0242256151027525 	1.08092854852039e-21
5 	0.474098865585394 	-5.20417042793042e-17 	0.0646374279398163 	-0.0253630727700468 	-2.04162077140724e-17
5 	0.499291413181954 	-6.24500451351651e-17 	0.0801088128111711 	-0.0265097199297072 	-4.10042561640353e-17
5 	0.525406714562858 	-6.93889390390723e-17 	0.0968212929744121 	-0.0276625061033623 	4.3921876890844e-17
5 	0.552478563453479 	-6.59194920871187e-17 	0.114919307437397 	-0.0288101556368307 	1.89198424712458e-17
5 	0.580541990805747 	-6.24500451351651e-17 	0.134692796778486 	-0.0299242478142601 	3.4551363655317e-23
5 	0.609633310062684 	-6.93889390390723e-17 	0.156641477927922 	-0.030975255678926 	3.53072606485779e-21
5 	0.639790164076284 	-8.32667268468867e-17 	0.181230979527325 	-0.0319268483585377 	-2.82812079007256e-22
5 	0.671051573738892 	-8.67361737988404e-17 	0.208593098557026 	-0.0327552095962042 	3.55424931867883e-21
5 	0.703457988390393 	-8.67361737988404e-17 	0.238593723655543 	-0.0334516265744444 	8.51958534555749e-21
5 	0.737051338065788 	-7.63278329429795e-17 	0.271007261282655 	-0.0340058762528698 	-8.25757651138332e-22
5 	0.771875087650011 	-6.24500451351651e-17 	0.305616570942341 	-0.0344001025717732 	1.01886719296617e-21
5 	0.807974293009291 	-6.59194920871187e-17 	0.342222652990176 	-0.034611993194496 	8.51192268014907e-21
4.99999999999999 	0.845395659170797 	-7.28583859910259e-17 	0.380599929973408 	-0.0346202966946056 	-5.86316747393048e-21
4.99999999999999 	0.884187600624921 	-8.32667268468867e-17 	0.42044509667415 	-0.0344096402740922 	-3.50715730931828e-21
4.99999999999999 	0.924400303827172 	-9.36750677027476e-17 	0.461350061064787 	-0.0339736161164108 	8.15088332738776e-21
4.99999999999999 	0.966085791979409 	-1.04083408558608e-16 	0.502806717429875 	-0.0333159504221398 	1.12905701665975e-20
4.99999999999999 	1.009297992173 	-1.04083408558608e-16 	0.544236274106724 	-0.0324501599421673 	-1.26085898089802e-20
4.99999999999999 	1.05409280497942 	-9.36750677027476e-17 	0.585030739411057 	-0.0313983376154263 	-6.30002134201926e-21
5 	1.10052817657679 	-8.67361737988404e-17 	0.624595469745811 	-0.0301896543814945 	-2.0220190522221e-20
5 	1.14866417350412 	-8.84708972748172e-17 	0.662386623193419 	-0.0288592029414055 	-1.80880094559295e-21
4.99999999999999 	1.19856306013805 	-9.62771529167128e-17 	0.697959156499666 	-0.027446364275439 	-1.53180390892461e-20
4.99999999999999 	1.25028937899049 	-1.02348685082632e-16 	0.731042473718492 	-0.0259910542077 	2.67581057404686e-23
4.99999999999999 	1.30391003392871 	-1.04083408558608e-16 	0.761591893323658 	-0.0245282939721445 	1.7372990341799e-20
4.99999999999999 	1.3594943764233 	-1.00613961606655e-16 	0.789757260050461 	-0.0230840139539559 	-2.50818475102786e-21
4.99999999999999 	1.41711429493286 	-9.93129189996722e-17 	0.815795398415803 	-0.0216735942171968 	1.48118951468602e-21
4.99999999999999 	1.47684430753811 	-9.6710833785707e-17 	0.839982655648559 	-0.0203031495565847 	1.36515752632462e-20
4.99999999999999 	1.53876165794225 	-8.90672084696842e-17 	0.862568100224404 	-0.0189729549295753 	-1.45512970930691e-20
4.99999999999999 	1.60294641495791 	-8.73324849937074e-17 	0.883726075339967 	-0.0176838082174097 	1.46953435040239e-20
4.99999999999999 	1.66948157560584 	-9.0205620750794e-17 	0.90350784316063 	-0.0164354789939317 	-7.47687206236549e-22
4.99999999999999 	1.73845317195409 	-9.36750677027476e-17 	0.921984136042009 	-0.015213381516621 	2.29260614758096e-20
4.99999999999999 	1.80995038183128 	-9.71445146547012e-17 	0.939222936328674 	-0.0140186920679014 	6.6293336688568e-22
4.99999999999999 	1.88406564355184 	-9.71445146547012e-17 	0.95527459175836 	-0.0128308322892529 	1.14682871759094e-22
4.99999999999999 	1.96089477479579 	-1.00613961606655e-16 	0.969889092783023 	-0.0116835571964588 	-2.39002719242591e-23
4.99999999999999 	2.02025965173184 	-1.04083408558608e-16 	0.980113868045693 	-0.0108082031064089 	-2.81282835599491e-23
4.99999999999999 	2.06006301192217 	-1.04083408558608e-16 	0.986742958752463 	-0.0102199162297544 	0
4.99999999999999 	2.09845978584128 	-1.04083408558608e-16 	0.992479834344901 	-0.00968416622358097 	0
4.99999999999999 	2.13549967996945 	-1.07552855510562e-16 	0.997622051873322 	-0.00917818881578471 	0
4.99999999999999 	2.17123064424048 	-1.11022302462516e-16 	1.00221281773394 	-0.00870035003188241 	0
4.99999999999999 	2.20569893411515 	-1.11022302462516e-16 	1.00628979222187 	-0.00824880918037185 	0
4.99999999999999 	2.23894917046122 	-1.11022302462516e-16 	1.0098856613528 	-0.0078218418977603 	0
4.99999999999999 	2.27102439731725 	-1.14491749414469e-16 	1.01302855764988 	-0.00741787143457955 	0
4.99999999999999 	2.30196613761521 	-1.17961196366423e-16 	1.01574239439865 	-0.00703543497091199 	0
4.99999999999999 	2.33181444693391 	-1.17961196366423e-16 	1.01804714379061 	-0.0066731676198458 	0
4.99999999999999 	2.3606079653529 	-1.21430643318376e-16 	1.01995907477424 	-0.00632979276071629 	0
4.99999999999999 	2.3883839674739 	-1.2490009027033e-16 	1.02149096135413 	-0.00600411360765186 	0
4.99999999999999 	2.41517841067461 	-1.28369537222284e-16 	1.02265227020287 	-0.00569500575600263 	0
4.99999999999999 	2.44102598165722 	-1.2490009027033e-16 	1.02344933608705 	-0.00540141064131392 	0
4.99999999999999 	2.46596014135207 	-1.21430643318376e-16 	1.02388553398553 	-0.00512232975635041 	0
4.99999999999999 	2.49001316823443 	-1.28369537222284e-16 	1.02396145731943 	-0.00485681952758233 	0
4.99999999999999 	2.51321620011054 	-1.28369537222284e-16 	1.02367511197021 	-0.00460398679172227 	0
4.99999999999999 	2.535599274427 	-1.2490009027033e-16 	1.02302213533904 	-0.00436298482436061 	0
4.99999999999999 	2.55719136715571 	-1.2490009027033e-16 	1.02199604822878 	-0.00413300987505849 	0
4.99999999999999 	2.57802043030465 	-1.21430643318376e-16 	1.02058854450021 	-0.00391329816450951 	0
4.99999999999999 	2.59811342810315 	-1.14491749414469e-16 	1.01878981910621 	-0.00370312330303824 	0
4.99999999999999 	2.61749637190832 	-1.11022302462516e-16 	1.01658892934764 	-0.00350179409818245 	0
4.99999999999999 	2.63619435387806 	-1.14491749414469e-16 	1.01397417750928 	-0.00330865273416226 	0
4.99999999999999 	2.65423157945406 	-1.17961196366423e-16 	1.01093349633723 	-0.00312307332841969 	0
4.99999999999999 	2.67163139869691 	-1.17961196366423e-16 	1.00745481336996 	-0.00294446089923227 	0
4.99999999999999 	2.68841633651388 	-1.21430643318376e-16 	1.003526367295 	-0.00277225081044287 	0
4.99999999999999 	2.7046081218185 	-1.2490009027033e-16 	0.9991369503625 	-0.00260590878869643 	0
4.99999999999999 	2.72022771565972 	-1.2490009027033e-16 	0.994276055862183 	-0.00244493162704558 	0
4.99999999999999 	2.73529533835694 	-1.2490009027033e-16 	0.988933918249123 	-0.00228884868744596 	0
4.99999999999999 	2.74983049567625 	-1.2490009027033e-16 	0.98310144425035 	-0.00213722428556805 	0
4.99999999999999 	2.76385200408156 	-1.2490009027033e-16 	0.976770044163293 	-0.00198966097720647 	0
4.99999999999999 	2.77737801509343 	-1.2490009027033e-16 	0.969931381455109 	-0.00184580366452706 	0
4.99999999999999 	2.79042603878708 	-1.2490009027033e-16 	0.962577064031923 	-0.00170534434937727 	0
4.99999999999999 	2.80301296646003 	-1.28369537222284e-16 	0.954698301330949 	-0.00156802738815205 	0
4.99999999999999 	2.81515509249872 	-1.31838984174237e-16 	0.946285547787917 	-0.00143365482653624 	0
4.99999999999999 	2.82686813547237 	-1.28369537222284e-16 	0.937328146167967 	-0.00130208894649151 	0
4.99999999999999 	2.83816725848142 	-1.2490009027033e-16 	0.927813975217096 	-0.00117324826876184 	0
4.99999999999999 	2.84906708878691 	-1.2490009027033e-16 	0.917729094117921 	-0.00104712878195808 	0
4.99999999999999 	2.85958173674616 	-1.28369537222284e-16 	0.907054679084455 	-0.000923923095672205 	0
4.99999999999999 	2.86972481407933 	-1.31838984174237e-16 	0.895739704342338 	-0.000803355636927876 	0
4.99999999999999 	2.87950945149043 	-1.28369537222284e-16 	0.883679568105219 	-0.000685029008638256 	0
4.99999999999999 	2.88894831566566 	-1.2490009027033e-16 	0.870780056054309 	-0.0005686292763289 	0
4.99999999999999 	2.89805362567106 	-1.2490009027033e-16 	0.857006906716348 	-0.000454794754644235 	0
4.99999999999999 	2.90683716877067 	-1.2490009027033e-16 	0.84235387893482 	-0.000344435607008812 	0
4.99999999999999 	2.91531031568569 	-1.2490009027033e-16 	0.826818558521526 	-0.000238625996247361 	0
4.99999999999999 	2.92348403531448 	-1.2490009027033e-16 	0.810389955176694 	-0.000138550266233106 	0
4.99999999999999 	2.93136890893229 	-1.21430643318376e-16 	0.793042413858846 	-4.54343601083089e-05 	0
4.99999999999999 	2.93897514388925 	-1.2490009027033e-16 	0.774731670403572 	3.9516042192428e-05 	0
4.99999999999999 	2.94631258682425 	-1.31838984174237e-16 	0.755390415122794 	0.000115169228432011 	0
4.99999999999999 	2.95339073641193 	-1.31838984174237e-16 	0.734921963212419 	0.000180509931894752 	0
4.99999999999999 	2.96021875565915 	-1.31838984174237e-16 	0.713191241870248 	0.000234672683085955 	0
4.99999999999999 	2.96680548376697 	-1.31838984174237e-16 	0.690012464683662 	0.000276968935786558 	0
4.99999999999999 	2.97315944757337 	-1.31838984174237e-16 	0.665132637757638 	0.000306912604580447 	0
4.99999999999999 	2.97928887259171 	-1.31838984174237e-16 	0.638209742351127 	0.00032424928905066 	0
4.99999999999999 	2.98520169365902 	-1.31838984174237e-16 	0.608784413240853 	0.000328988744046732 	0
4.99999999999999 	2.99090556520806 	-1.31838984174237e-16 	0.576243958763979 	0.000321432160929172 	-4.76191324035848e-16
4.99999999999999 	2.99640787117632 	-1.28369537222284e-16 	0.539780791083711 	0.000302220652381793 	-7.69854814561226e-15
4.99999999999999 	3.00171573456492 	-1.2490009027033e-16 	0.498331667208139 	0.000272530599081792 	8.96194324507435e-15
4.99999999999999 	3.00683602665962 	-1.2490009027033e-16 	0.450425798902696 	0.000234365718829365 	5.4517172964624e-16
4.99999999999999 	3.01177537592612 	-1.2490009027033e-16 	0.394253594212759 	0.000189896012768059 	0
4.99999999999999 	3.01654017659084 	-1.14491749414469e-16 	0.328877443009606 	0.00014198811232713 	0
4.99999999999999 	3.02113659691863 	-1.04083408558608e-16 	0.25625545384212 	9.44406052395533e-05 	0
4.99999999999999 	3.02557058719783 	-1.04083408558608e-16 	0.180975457082124 	5.23823516565873e-05 	0
4.99999999999999 	3.02984788744323 	-1.04083408558608e-16 	0.1068477945452 	2.09341127670494e-05 	0
