/*--------------------------------*- C++ -*----------------------------------*\
  =========                 |
  \\      /  F ield         | OpenFOAM: The Open Source CFD Toolbox
   \\    /   O peration     | Website:  https://openfoam.org
    \\  /    A nd           | Version:  7
     \\/     M anipulation  |
\*---------------------------------------------------------------------------*/
FoamFile
{
    version     2.0;
    format      ascii;
    class       volScalarField;
    location    "0";
    object      Cz;
}
// * * * * * * * * * * * * * * * * * * * * * * * * * * * * * * * * * * * * * //

dimensions      [0 1 0 0 0 0 0];

internalField   nonuniform List<scalar> 
15600
(
-5.71993069776789e-18
9.63601997408321e-20
-3.90589923409125e-18
0
1.80843023897702e-18
0
0
9.47250109715604e-20
3.81187239475267e-18
7.42059184690866e-18
3.49389857254087e-18
-3.4523438778349e-18
9.47614436250626e-20
-1.54258138373091e-18
5.84154264857216e-18
2.86314257203794e-18
0
5.45839138663734e-18
-1.06003647478696e-17
0
0
-4.74915804114364e-18
0
0
-2.16195555095045e-18
-9.56747880326177e-20
-2.05491319951386e-16
-2.10981733844186e-16
0
-6.01074482847564e-18
0
-2.32350432661411e-16
-2.34954795621026e-16
0
-2.0030170924234e-18
0
0
0
2.32073927811612e-16
2.29463302446178e-16
0
-2.00301709242328e-18
0
0
-3.90966065834441e-18
-2.00301709242332e-18
-2.47519823391989e-16
-2.42070686706112e-16
-4.00603418484665e-18
-2.00301709242323e-18
-4.00603418484662e-18
-7.91569484319123e-18
-2.35983588469971e-16
-2.33792821489093e-16
0
5.91267775076789e-18
2.00301709242322e-18
1.90664356592137e-18
0
2.00301709242314e-18
-2.00301709242337e-18
0
0
-4.00603418484642e-18
0
0
0
-4.00603418484675e-18
1.90664356592128e-18
4.00603418484624e-18
-2.00301709242346e-18
-1.90664356592133e-18
2.33980571377537e-16
4.73004065844812e-16
2.35303901694487e-16
-2.00301709242332e-18
3.90966065834436e-18
2.00301709242327e-18
0
2.30167284245693e-16
2.35090923315967e-16
0
4.00603418484651e-18
0
0
-4.00603418484644e-18
0
0
9.65004558873788e-20
2.01671519888143e-18
-2.03634806512159e-18
-9.67826305227162e-20
0
-2.14481296331806e-18
0
-2.35660140304709e-18
-1.94528607381324e-19
-2.30096649834617e-18
-2.37493435167644e-18
-4.90076916060106e-18
-7.67745126888672e-18
-9.75884924777416e-20
0
0
0
7.61749388685427e-18
-6.26937976505527e-18
-3.11843560553616e-18
-1.58110058501934e-18
-1.0679840561187e-17
5.42436064609626e-18
9.81207760827218e-20
0
2.01087340492058e-18
-1.91272925604979e-18
-5.80922543395337e-18
1.99918520753512e-18
0
-5.91206293417764e-18
0
0
-1.83933130103653e-18
-1.83780160131253e-18
0
-2.02888713632577e-18
5.72687295879941e-18
-2.03640905550052e-18
1.91091367641456e-19
-1.09449983046594e-17
1.93424227386053e-18
0
-1.80991040074846e-18
-1.74164213172846e-18
4.4627795129725e-18
0
0
-2.66959523414958e-18
5.17253614509223e-18
1.9152064017161e-19
-4.87299145191166e-18
-2.55462365136217e-18
2.6736805816053e-18
-2.21906912177522e-18
0
2.08548284603254e-18
-2.21835916134447e-18
2.02458461283163e-16
1.98813831816495e-16
1.92343060382123e-19
2.06369350908159e-18
0
2.21655743298071e-16
2.22634710900814e-16
-1.92753636335608e-19
1.92753636335603e-19
0
2.0322972102105e-18
2.03229721021049e-18
-2.25073801653853e-16
-2.22863831544838e-16
1.92753636335608e-19
-1.92753636335607e-19
-1.92753636335611e-19
2.03229721021063e-18
-7.93643520450639e-18
0
2.29138396074273e-16
2.32570069668955e-16
0
0
-1.92753636335608e-19
1.92753636335605e-19
2.2507380165385e-16
2.22904663906676e-16
0
5.9041379942962e-18
0
2.03229721021053e-18
0
4.06459442042087e-18
0
4.25734805675649e-18
-2.03229721021064e-18
0
0
0
3.87184078408548e-18
1.83954357387502e-18
0
-3.87184078408534e-18
0
0
-2.27298852500405e-16
-4.51451357295508e-16
-2.26182081480235e-16
0
0
-1.92753636335614e-19
1.83954357387497e-18
-2.21587468142447e-16
-2.26933680389391e-16
1.92753636335604e-19
3.87184078408533e-18
0
0
-3.67908714774994e-18
-3.87184078408553e-18
-2.0319652199628e-18
2.03471964514157e-18
-2.04551770693248e-18
0
0
-6.18493699287957e-18
0
1.93446005523086e-19
1.93543544002896e-19
0
-2.21938210795558e-18
2.67822657936005e-18
-1.93855340720531e-19
1.93909812271876e-19
1.93954155493633e-19
2.78063955619518e-18
2.67000195417332e-18
5.52335555949524e-18
0
8.92724617945138e-18
0
6.47682794841756e-18
2.07383700271308e-18
-3.48710613060884e-18
-7.75359216826878e-18
3.65491468547289e-18
0
0
2.03036787350622e-18
-1.93166867048531e-19
-2.0307419948655e-18
0
4.06459442041687e-18
5.51720532090367e-18
5.70931030098825e-18
0
1.92336795235797e-19
-5.31628270995389e-18
0
1.91295634748908e-19
-1.07645792551105e-17
-3.64775660979718e-18
-3.55298999699619e-18
-8.50360804554355e-18
-1.37002131355611e-18
1.49517718860668e-18
-1.81698317465581e-18
0
2.66290642173357e-18
2.57459081014604e-18
-1.01685450012759e-17
2.22920356323388e-18
-7.43278098095374e-18
-2.08742976922376e-18
2.40069228436748e-18
0
1.91852023337015e-19
0
3.90945059434649e-18
-2.09780258690446e-18
-1.92246977235308e-19
-7.90145838383871e-18
3.80320102953058e-18
3.76711372414894e-18
3.55401719396088e-18
0
-1.96756875083421e-18
0
3.74238362309346e-18
1.92753878574971e-19
1.96756875083428e-18
0
0
1.92753878574971e-19
-3.93513750166845e-18
3.93513750166842e-18
0
3.54962974451829e-18
1.9275387857497e-19
1.92753878574969e-19
-1.92753878574964e-19
0
0
1.77481487225923e-18
0
0
1.92753878574969e-19
1.77481487225934e-18
0
5.70995237392768e-18
0
0
-5.70995237392768e-18
-3.93513750166879e-18
0
0
0
0
0
-1.77481487225937e-18
0
0
1.77481487225924e-18
5.70995237392765e-18
-3.93513750166862e-18
3.74238362309344e-18
5.70995237392767e-18
-3.54962974451867e-18
0
1.92753878574975e-19
0
1.77481487225924e-18
1.77481487225924e-18
0
0
1.77481487225932e-18
-3.74238362309351e-18
-1.92753878574975e-19
0
3.74238362309345e-18
0
0
1.98032852085652e-18
1.99855830492369e-18
0
0
0
0
4.4110769492675e-18
-2.26823845438064e-18
-8.75644094413765e-18
-2.4031235356077e-18
0
2.54412112941898e-18
7.45713385948207e-18
2.68862411445845e-18
-5.34401047412047e-18
2.66334421648564e-18
1.12381608844864e-17
0
0
-3.31715087618914e-18
-6.69300295898527e-18
-1.94516719780194e-19
-1.5340983138388e-18
5.09280558805764e-18
-4.14186140984363e-18
7.31302646137322e-18
-3.73765499141474e-18
0
-1.77313939981245e-18
-3.9347645273103e-18
0
0
7.23418327014803e-18
1.71073177434958e-18
0
1.92000277421112e-19
1.90844963644787e-18
3.43285244154467e-18
0
1.90980936158949e-19
3.43284050153624e-18
1.3753008083794e-18
2.81948518788983e-18
4.13425267125619e-18
1.91217352262282e-19
0
-1.91367445794139e-19
5.15731498148282e-18
-4.81103427812269e-18
-4.86075815415836e-18
6.7989931361115e-18
1.91622482428157e-19
2.13057723719142e-18
0
-4.19350085426673e-18
0
-1.88567060323324e-18
1.92149314308552e-19
-3.59755871176407e-18
0
0
-5.36575414053373e-18
-5.52874974295968e-18
-5.32885056340407e-18
0
0
-1.92754129768343e-19
1.92754129768343e-19
5.52262925958279e-18
1.92754129768339e-19
-1.92754129768339e-19
-5.52262925958274e-18
1.92754129768345e-19
-5.52262925958282e-18
-5.52262925958279e-18
1.92754129768338e-19
0
-1.92754129768341e-19
5.52262925958281e-18
0
0
1.90512779645029e-18
-2.78072450396725e-16
-2.81424353039111e-16
-7.42775705603322e-18
0
-1.90512779645039e-18
5.52262925958279e-18
0
5.52262925958282e-18
5.52262925958256e-18
-7.23500292626529e-18
0
0
-3.61750146313244e-18
0
-7.23500292626492e-18
0
2.8701982698967e-16
2.79519225242661e-16
1.92754129768338e-19
3.61750146313246e-18
0
-7.42775705603323e-18
-7.42775705603318e-18
-1.92754129768342e-19
1.92754129768344e-19
5.32987512981449e-18
5.32987512981452e-18
-1.90512779645041e-18
5.5226292595828e-18
0
0
5.52262925958276e-18
5.52262925958282e-18
0
0
5.52262925958278e-18
0
-1.92881343874758e-19
0
0
-5.68656091439803e-18
-3.59788813651663e-18
0
0
4.26872912499558e-18
-2.00111629192723e-18
-8.25904331487765e-18
2.32468522588982e-18
2.39224625123065e-18
0
2.14098982375813e-18
1.93994881350127e-19
-3.88088204387409e-19
-5.33107388685988e-18
2.66259480436258e-18
5.53455827819487e-18
0
6.21665428264637e-18
0
0
0
0
-1.06871828011802e-17
-1.52293948652957e-18
-7.22530297064441e-18
1.93167376819952e-19
-3.61441860485381e-18
3.42436188142569e-18
0
3.40065911178911e-18
0
1.65054462517423e-18
1.04665900508067e-17
-3.49059417559421e-18
5.15989285935214e-18
3.31094606230036e-18
0
4.63059520732473e-18
6.25199042471778e-18
1.09536023316107e-17
-2.90287215252003e-18
5.56117675461481e-18
0
7.70168205646083e-18
0
4.7890725554406e-18
-6.95971197629167e-18
0
2.37729800250542e-18
-8.8630468817859e-18
-4.10984609500893e-18
-1.79947831921673e-18
-2.12179713548338e-18
0
-7.46827428712619e-18
5.70494159323733e-18
-1.7353797291145e-18
1.89674623235738e-18
-3.55350871309707e-18
-1.85627934530801e-18
-5.34784605257426e-18
-1.65182448809508e-18
0
0
1.84489351427814e-18
7.18681966686288e-18
-3.49703263830657e-18
5.34192615258448e-18
1.6521391240285e-18
0
6.99406527661318e-18
0
0
-1.92754390249754e-19
1.84489351427815e-18
3.49703263830656e-18
0
0
0
6.99406527661281e-18
2.77008852826638e-16
2.77766562401437e-16
-1.92754390249748e-19
5.34192615258471e-18
1.84489351427816e-18
7.18681966686293e-18
0
7.18681966686291e-18
0
1.92754390249753e-19
0
-6.99406527661315e-18
0
-1.04910979149197e-17
0
0
-2.77008852826628e-16
-2.83301242944268e-16
0
0
-1.84489351427815e-18
0
0
-6.99406527661322e-18
-1.6521391240285e-18
0
1.92754390249757e-19
0
-1.92754390249749e-19
1.8448935142782e-18
0
0
1.84489351427815e-18
1.92754390249749e-19
0
-1.04910979149199e-17
1.92787987297305e-19
5.3484332332445e-18
-7.04116929159615e-18
-7.3017496314761e-18
-3.60221859199795e-18
1.93255717350833e-19
1.96709070599546e-18
-3.83201600130166e-18
0
1.93022626059541e-18
-1.93716888491186e-19
4.30424789669177e-18
6.94234200979499e-18
0
4.89164190072158e-18
4.64047991150186e-18
-2.78298699737789e-18
8.01324412494408e-18
0
0
-2.78113967281198e-18
-4.35517471445695e-18
1.94494066960138e-19
4.49516191734841e-18
6.42948839772707e-18
0
6.81624537720561e-18
0
0
1.64826571206399e-18
0
0
0
0
-3.3804374716362e-18
-3.18496896115188e-18
0
0
-3.19499121363947e-18
1.78796952385998e-18
3.35218697340012e-18
-6.00816991702539e-18
-1.31615186801e-18
3.10335773070841e-18
0
-2.68123293011139e-18
1.91217344174551e-19
1.91297958612167e-19
-2.19694986606573e-18
0
2.62027122374439e-18
0
0
6.51701884812968e-18
-1.98194248491001e-18
-3.84121082221365e-18
-2.05342264644774e-18
1.91947846657892e-19
0
-1.71097509191658e-18
-5.21490900145556e-18
1.83673225484195e-18
0
6.8059815536118e-18
-3.38468094769252e-18
1.92721647517713e-19
6.56888773164082e-18
3.38082119600346e-18
0
-5.16760912418816e-18
0
-1.92754660365916e-19
1.92754660365909e-19
1.92754660365914e-19
-6.76164239200687e-18
0
-1.59403326781878e-18
1.92754660365911e-19
1.92754660365914e-19
-3.38082119600344e-18
1.92754660365916e-19
1.92754660365914e-19
-1.92754660365911e-19
0
3.38082119600356e-18
0
0
0
0
1.92754660365915e-19
1.92754660365915e-19
0
-3.38082119600331e-18
1.9275466036591e-19
-5.36036378455407e-18
0
0
0
-1.78678792818465e-18
4.97485446382205e-18
0
-1.78678792818466e-18
3.3808211960034e-18
-3.57357585636933e-18
1.92754660365912e-19
3.3808211960034e-18
3.57357585636929e-18
1.92754660365914e-19
0
-3.3808211960033e-18
0
0
0
1.92754660365909e-19
-1.78678792818467e-18
0
0
0
-1.78678792818458e-18
0
0
-6.57709005487037e-18
-3.40354599635704e-18
0
0
7.08400513463997e-18
-1.93350299936568e-19
-1.94846219700651e-18
0
0
5.95634116086928e-18
-6.33429033880768e-18
-2.04488981203699e-18
1.93907329231032e-19
-1.93951466027885e-19
4.28128738157003e-18
2.30960395310651e-18
-4.77741775506562e-18
-1.24255825285146e-15
-1.25283947145835e-15
5.75219784239796e-18
1.78865464696704e-18
-1.45645734070912e-18
-3.20914155094277e-18
0
3.35573731882574e-18
0
5.1801894089574e-18
-4.96686184889154e-18
-4.96390248179704e-18
1.92925446540603e-19
1.78662083832487e-18
0
0
1.53780187118351e-18
-3.26553503608803e-18
-1.72660880777843e-18
1.72702569775026e-18
3.08193544089867e-18
-1.73124839025904e-18
-3.23951335010051e-18
-1.90981201499233e-19
0
1.40406666630015e-18
-1.91026765456948e-19
2.58538945175464e-18
-2.67215169870078e-18
2.38735575782899e-18
2.30317983729066e-18
4.6453947940137e-18
-4.12381884524507e-18
-2.28565544514197e-18
-6.48206788546243e-18
1.91622211536419e-19
4.20646003420731e-18
0
1.91851786999007e-19
-1.91947815716205e-19
-3.5776621770768e-18
1.9214948269964e-19
-3.23044543969324e-18
-6.73066900403369e-18
-8.20666214299201e-18
0
1.53991176215392e-18
0
0
-3.46147163548248e-18
-6.53743339001181e-18
1.92754940476735e-19
-1.92754940476745e-19
0
0
0
0
-4.80669757227007e-18
0
-1.73073581774115e-18
0
1.73073581774134e-18
0
1.92754940476735e-19
6.53743339001118e-18
0
0
6.53743339001181e-18
0
0
0
6.53743339001193e-18
-3.26871669500572e-18
-1.73073581774131e-18
0
4.99945251274709e-18
-1.92754940476737e-19
0
3.26871669500581e-18
3.26871669500578e-18
0
0
0
6.53743339001192e-18
-4.99945251274688e-18
-1.7307358177413e-18
0
1.73073581774135e-18
-3.26871669500575e-18
6.73018833048819e-18
-1.73073581774125e-18
1.9275494047674e-19
0
-1.73073581774131e-18
-3.26871669500584e-18
1.9275494047674e-19
4.99945251274708e-18
0
1.7307358177412e-18
0
-1.92754940476746e-19
-1.73073581774125e-18
0
0
-5.03245336896974e-18
-6.64393974074386e-18
-1.93162660770263e-19
-1.80862593275826e-18
-6.79652098637523e-18
-2.07991065066817e-18
3.67761983141179e-18
5.58125384644258e-18
2.24015500340862e-18
2.10561380861017e-18
2.16603558607489e-18
2.22716917459195e-18
0
-2.35195270839634e-18
4.45464432839394e-18
2.49765635643462e-18
1.17316477135157e-15
1.24348821194109e-15
5.56046912909454e-18
0
-5.61726622032118e-18
4.55465154106831e-18
-3.1836387217369e-18
-3.24305439325486e-18
-4.81416423041837e-18
-3.27578081280914e-18
1.9349879767349e-19
-1.93168214242305e-19
6.53181133313574e-18
1.92767884941207e-19
0
9.63817044151006e-20
-3.16021457505864e-18
0
-6.11345242822781e-18
-1.67290042381733e-18
0
-1.48523625380768e-18
1.91091574669989e-19
-1.42530113241836e-15
-1.39078822548601e-15
-1.90961751999829e-19
-5.58655368549481e-18
1.03539836433869e-17
2.58353178670498e-18
2.1108616311093e-18
2.22105155908764e-18
0
2.46374950520987e-18
-2.21109234005316e-18
1.76906106288136e-18
0
0
1.59496354891647e-18
7.31164495077453e-18
-7.29652634138397e-18
1.92049556842008e-19
3.37692068249118e-18
1.75055728344886e-18
6.69962386139447e-18
1.50932848457978e-18
2.35177857952789e-16
2.39153707915764e-16
1.676361346097e-18
1.67666462084767e-18
4.64448340063126e-18
-1.67666462084773e-18
-1.67666462084761e-18
6.32114802147922e-18
1.9275523095584e-19
1.48390938989189e-18
0
1.48390938989193e-18
-6.51390325243442e-18
3.16057401073962e-18
-1.67666462084761e-18
-3.16057401073948e-18
1.71016732441777e-16
1.72647569496827e-16
-1.67666462084768e-18
-6.32114802147909e-18
0
0
3.1605740107397e-18
1.67666462084756e-18
-1.67666462084771e-18
0
1.67666462084772e-18
2.96781877978348e-18
0
0
0
-1.92755230955838e-19
0
4.64448340063107e-18
-1.67666462084773e-18
0
1.9275523095584e-19
0
0
-1.48390938989172e-18
-2.96781877978366e-18
-1.92755230955842e-19
0
3.16057401073933e-18
1.92755230955842e-19
-6.12839279052282e-18
0
3.16057401073929e-18
3.1605740107397e-18
0
0
-3.16057401073942e-18
0
-3.16057401073956e-18
-1.92755230955838e-19
0
-6.3211480214791e-18
0
0
3.18173105784265e-18
6.23074353730629e-18
1.93162937673422e-19
-1.93256350054548e-19
1.93350568314396e-19
3.45986928300112e-18
0
3.6581064739329e-18
-3.57395787708434e-18
2.03768941072283e-18
5.89998927041492e-18
-1.96090021325806e-18
0
-4.35618363398478e-18
-2.1479484834766e-18
-2.22141512404755e-18
2.10839013383969e-18
2.39276380092072e-18
5.18118521755449e-18
-1.94425785474579e-19
-2.70803798902568e-18
1.39155620301568e-15
1.41708050897832e-15
-1.46999039085143e-18
-4.45583227077989e-18
2.97284512266896e-18
-3.15527848122217e-18
1.67345047681039e-18
1.67538664759609e-18
-1.92768177512644e-19
0
4.48801043409754e-18
-3.24864739243218e-18
0
0
1.42868728567198e-18
-8.9862250010519e-18
1.91295532875089e-19
0
1.39770882103482e-15
1.31457319593359e-15
-2.61053472796728e-18
1.91026940751377e-19
4.99861709771713e-18
1.91217330922965e-19
7.04251951484256e-18
0
-6.21319858619396e-18
-3.82184002184956e-18
2.13916448380218e-18
1.91565616734304e-19
1.91622014220947e-19
3.74791748414581e-18
-7.46856754021528e-18
-1.91851655521906e-19
-1.81267132792836e-18
1.7673712829861e-18
0
-3.39131142846153e-18
-1.66911838376863e-18
1.54419335223762e-16
-8.43679269121235e-17
-2.28578393310806e-16
2.86298463039868e-18
-2.86349761521122e-18
-4.48800195500851e-18
1.92755532191084e-19
0
0
0
-1.53142497699198e-16
-1.21300791122174e-18
1.58015585585299e-16
-1.8172598719878e-18
6.11250629480498e-18
-4.29524642281682e-18
-4.4880019550084e-18
-1.73958003134433e-16
-1.69132703479634e-16
0
-3.24900867959354e-18
-3.24900867959355e-18
0
-1.2389932754146e-18
-2.86349761521129e-18
3.24900867959375e-18
0
1.62450433979687e-18
0
-1.92755532191082e-19
6.11250629480465e-18
0
1.62450433979672e-18
0
1.62450433979678e-18
4.6807574871992e-18
-3.24900867959353e-18
-9.36151497439856e-18
-1.2389932754146e-18
0
-5.91975076261389e-18
-7.54425510241021e-18
-3.0562531474025e-18
1.62450433979685e-18
6.11250629480475e-18
3.28532249641243e-16
3.15614750648319e-16
1.81725987198787e-18
0
-1.54381490974619e-16
-1.56391081245501e-16
-5.91975076261363e-18
1.6245043397968e-18
-9.36151497439851e-18
3.24900867959354e-18
6.11250629480518e-18
1.81725987198781e-18
-6.11250629480502e-18
-3.05577190765777e-18
0
0
4.36899449024873e-18
0
-1.69680102133616e-18
0
8.48757141846753e-16
8.33841729285997e-16
0
-1.72355856572415e-18
-1.93787891132588e-19
1.64053596567691e-18
1.93905221425126e-19
-1.93949183246513e-19
2.2009393158234e-18
2.07138015748883e-18
-4.4784498344233e-18
0
-9.81176318827269e-18
5.00277264651897e-18
0
1.94487664299939e-19
-1.31836474346361e-15
-1.3919223652141e-15
1.61193388029999e-18
1.62667343936231e-18
1.43382081213148e-18
0
0
0
1.62435466182084e-18
8.97600391000536e-18
-9.63823180292294e-20
0
1.92583451765046e-19
-3.14057629936136e-18
0
3.14939953061886e-18
3.14566290138012e-18
0
1.90981496346251e-19
-3.81886890135489e-19
2.70790520993457e-18
2.80118390262331e-18
-7.33538388045579e-18
2.22436131134556e-18
-1.12773664065226e-17
-1.91367129924319e-19
-4.37728409728689e-18
3.87028429937905e-18
-5.82629633010717e-18
-2.01506919335867e-18
-1.76886304697735e-18
1.52322769591306e-18
1.03564165709261e-17
8.44068790125906e-18
0
-3.03934906370581e-18
3.15620872671217e-18
1.64269432340391e-18
4.65910180661836e-18
-1.61301463211818e-16
-1.46914388396012e-16
0
0
5.91123811346952e-18
0
-3.14837490131978e-18
-5.91123811346954e-18
2.95561905673473e-18
-1.92755844585166e-19
1.50286867135629e-16
-7.46830073570472e-18
-1.4931229317338e-16
2.95561905673458e-18
0
0
0
5.71848226888401e-18
0
0
2.76286321214947e-18
0
-5.52572642429889e-18
-5.91123811346918e-18
0
-3.14837490131988e-18
-1.92755844585167e-19
-5.91123811346972e-18
8.67410132561868e-18
2.9556190567346e-18
1.92755844585165e-19
0
3.14837490131975e-18
0
0
2.95561905673461e-18
0
5.91123811346979e-18
0
-3.34113074590497e-18
-1.92755844585162e-19
0
3.14837490131979e-18
0
-5.91123811346926e-18
-3.06677728229302e-16
-3.10024365245326e-16
-5.71848226888441e-18
0
1.47909515612662e-16
3.08851529168378e-16
1.60400444684041e-16
0
-5.91123811346977e-18
1.92755844585168e-19
-1.5934648015042e-16
-1.66295651916625e-16
0
2.95516453483955e-18
2.95930526258705e-18
0
1.59819113161491e-18
-3.04298009079843e-18
0
-7.99099801761006e-18
-7.9776396793843e-16
-8.27146279145699e-16
1.80526292337063e-18
1.46866447364673e-18
0
5.69506109474221e-18
2.01766200567401e-18
9.78048842594906e-18
0
1.99751806442285e-18
0
-2.1410617759726e-18
2.22477809647535e-18
0
0
-2.90636262916946e-18
-2.60549919755385e-18
0
5.8566864124001e-18
-1.94178762128162e-19
-5.72618957536385e-18
0
2.56273855001284e-18
0
-5.91063509348937e-18
5.91123811347107e-18
0
-1.92742807467754e-19
0
-1.92338156968689e-19
-1.92000729043481e-19
-1.91609886806891e-19
0
2.82725976422874e-18
5.35820494536311e-18
-2.51172566127814e-18
0
-1.9102712874271e-19
2.42584278725874e-18
2.1448106535844e-18
2.25551464392154e-18
0
-4.23480306684702e-18
0
1.91519881229852e-19
0
-1.8975336539756e-18
1.65395179574238e-18
1.60313922460052e-18
7.92410087739602e-16
7.96350099789883e-16
0
-1.42975884475488e-18
0
0
-1.92440035329571e-19
-2.87701220227584e-18
-1.92629668785498e-19
1.92723146187974e-19
0
-8.76838055813365e-18
3.05129763174864e-18
0
0
0
0
0
-5.71708292638497e-18
-2.85854146319238e-18
0
0
1.92756168556165e-19
0
0
0
5.71708292638497e-18
0
0
2.66578529463622e-18
1.92756168556163e-19
0
-1.92756168556166e-19
-3.0512976317488e-18
5.71708292638504e-18
0
8.76838055813357e-18
0
0
0
0
1.92756168556167e-19
0
-1.9275616855617e-19
1.92756168556166e-19
-8.38286822102132e-18
1.9275616855617e-19
-2.85854146319264e-18
0
0
-1.92756168556168e-19
5.71708292638475e-18
0
-5.71708292638524e-18
0
-8.76838055813451e-18
-1.59241695134254e-16
-1.55035252160966e-16
5.71708292638493e-18
-2.85854146319264e-18
0
1.50473314576128e-16
1.57772304823731e-16
2.66578529463649e-18
-5.71622544583977e-18
1.92883612612233e-19
0
0
1.93163831279831e-19
1.93257055330073e-19
-8.96617657027218e-18
0
0
1.93633270028178e-19
0
7.00435685301686e-18
1.90000922193258e-18
-1.75879963468396e-18
-1.93947521005727e-19
-4.12082339793486e-18
-1.92626658577599e-18
-3.78990852154647e-18
-8.45244382928652e-18
0
4.47031702378763e-18
7.19299285935834e-18
2.62157602018004e-18
-2.7065980782698e-18
0
0
-2.66491513961208e-18
-1.93877702063234e-19
0
0
-3.0489769858263e-18
5.7165007320535e-18
-1.92756168556164e-19
-2.76490414669463e-18
-8.10099351920971e-18
0
-1.92338356696815e-19
-5.70744923463217e-18
-5.33927990711273e-18
1.91295473181482e-19
3.82183478356796e-19
-2.682081600839e-18
0
2.5305320243754e-18
0
-2.53690773363675e-18
-2.0680720350219e-18
5.78002946174969e-18
0
7.81186330523239e-18
-5.7817626707114e-18
-3.68503542428067e-18
0
-1.6451854830384e-18
8.35908584893986e-18
-8.30637588325179e-18
-7.89593079273233e-16
-7.50638921718967e-16
2.82842024106134e-18
-1.92149807240563e-19
-2.70014454610558e-18
-2.84496382467397e-18
1.92440274903663e-19
5.37286911671007e-18
0
1.92723480055293e-19
-2.7648946953008e-18
0
-5.52978939060162e-18
-5.33703288606313e-18
-1.927565045382e-19
-5.52978939060134e-18
-2.76489469530082e-18
0
-2.95765119983886e-18
-2.95765119983913e-18
2.76489469530077e-18
-2.95765119983887e-18
-7.147167444824e-16
-7.15642356965628e-16
1.92756504538198e-19
-5.33703288606314e-18
0
0
-5.33703288606361e-18
0
0
-7.09186955091796e-16
-7.17729201916507e-16
-1.92756504538194e-19
0
5.33703288606342e-18
-5.33703288606312e-18
5.52978939060209e-18
1.92756504538191e-19
0
-5.33703288606317e-18
-2.7648946953007e-18
-1.92756504538202e-19
0
-5.33703288606314e-18
-5.52978939060159e-18
7.11566336777988e-16
7.1816798744791e-16
0
0
0
-5.52978939060182e-18
-5.5297893906011e-18
2.76489469530057e-18
-5.7225458951398e-18
0
-5.33703288606312e-18
0
2.7648946953008e-18
0
-2.57213819076262e-18
-2.57213819076259e-18
0
0
0
1.9288398650501e-19
-2.59025726097952e-18
0
0
-1.93257307970627e-19
2.75896629717614e-18
0
-4.75176363712739e-18
7.88424693190475e-18
-8.11958328245864e-18
-1.78916293538837e-18
1.64542375180351e-18
-3.58617795414974e-18
5.43494319618601e-18
-1.99385056558472e-18
0
2.11496570109654e-18
0
0
0
-2.6380108761613e-18
-1.94482239543929e-19
0
-1.94469739991497e-19
0
-8.0988047177945e-18
0
5.51842118303196e-18
2.56546093124362e-18
-1.92927418197871e-19
0
0
-9.63833263987309e-20
-4.96301637477412e-18
-5.34368523401715e-18
0
2.47529505042757e-18
0
2.6699519891302e-18
-2.64234618444807e-18
-1.90981823889526e-19
0
-4.70207879637385e-18
-4.33603814710859e-18
6.80566343097986e-18
-2.18526342353785e-18
-1.91297709395906e-19
-2.0433211718863e-18
0
-1.9268815356656e-18
-8.99692029447141e-18
3.46249141614582e-18
1.77822690293121e-18
-1.53841021375928e-18
2.98260941267848e-18
1.63788057735172e-18
-4.40158743922466e-18
0
0
-1.92248115793781e-19
-1.92344845005451e-19
0
-1.92535562098213e-19
0
-2.8668361413233e-18
5.34911504593362e-18
2.67455752296668e-18
0
5.34911504593337e-18
0
7.83091571591803e-18
-5.34911504593382e-18
0
2.67455752296668e-18
-5.34911504593361e-18
0
2.67455752296669e-18
6.94518224387059e-16
6.90792800503637e-16
0
2.67455752296668e-18
1.92756852982024e-19
0
-4.96360133996956e-18
5.34911504593336e-18
0
6.89554623047056e-16
6.88296184917429e-16
2.67455752296669e-18
2.67455752296668e-18
-5.15635819295157e-18
5.15635819295108e-18
0
2.67455752296669e-18
0
0
0
0
0
2.67455752296667e-18
0
-6.84012751148139e-16
-6.91015226128611e-16
5.34911504593336e-18
0
0
0
0
-5.34911504593328e-18
0
1.92756852982027e-19
2.67455752296669e-18
2.67455752296666e-18
0
2.67455752296668e-18
0
2.67455752296668e-18
1.92756852982026e-19
5.34911504593304e-18
-1.92790542408109e-19
1.92884374270573e-19
0
5.4345167313961e-18
-5.31216356846862e-18
0
-3.04837461299644e-18
2.92229618923529e-18
0
3.08610554777752e-18
0
3.27105838481125e-18
5.14820136084586e-18
-3.27138026009044e-18
1.93945736993101e-19
1.93987294964602e-19
5.76176113222048e-18
0
0
2.18865417540739e-18
2.27216269157732e-18
-2.55728133862289e-18
4.5119178607035e-18
7.00521888602528e-18
2.40213401228741e-18
1.25227526713121e-15
1.27843029616581e-15
2.8704690442405e-18
2.47528418262692e-18
5.53002073720141e-18
5.34441841093379e-18
5.34857231867521e-18
2.48180066998195e-18
-4.98207894789734e-18
0
-1.92584623650417e-19
0
2.580063288364e-18
2.20323468761317e-18
0
4.91843228236449e-18
2.31577204081399e-18
-6.94363613281597e-18
2.36547964225437e-18
-1.9102743649835e-19
2.1940557732709e-18
1.92263705490086e-18
0
0
-1.91843516492143e-18
-1.91476622346815e-19
0
5.11461153697564e-18
-1.33847409608336e-18
-1.91688203411528e-19
0
-5.96272613506351e-18
0
-3.84099269574341e-19
5.51938412837729e-18
-5.60341236812667e-18
2.66165172642093e-18
-1.92440781007877e-19
5.20792694814767e-18
-2.39776187382232e-18
0
-2.58741300054261e-18
-5.56034042979652e-18
2.58741300054229e-18
0
7.76223900162753e-18
-2.58741300054238e-18
6.65061754848566e-16
6.73685985067998e-16
0
0
0
7.56948178727173e-18
2.58741300054249e-18
2.78017021489805e-18
-1.92757214355758e-19
-1.92757214355755e-19
2.78017021489835e-18
0
-2.58741300054229e-18
0
0
-1.92757214355753e-19
0
0
0
0
-1.92757214355754e-19
0
-2.58741300054261e-18
2.78017021489836e-18
0
6.62474341848078e-16
6.66730415303874e-16
-1.92757214355751e-19
-5.36758321544029e-18
-2.58741300054229e-18
0
0
0
-5.17482600108502e-18
1.92757214355761e-19
0
2.78017021489837e-18
1.92757214355756e-19
-4.98206878672928e-18
4.98206878672907e-18
2.58741300054252e-18
6.62281584633685e-16
6.66297086364222e-16
-2.58741300054261e-18
-2.97292742925387e-18
4.78931157237358e-18
-6.69851066420903e-16
-6.59159798454068e-16
1.92790917347739e-19
0
2.60449013936738e-18
0
-2.66264986657532e-18
0
-2.56781586282645e-18
3.01935289611759e-18
0
7.35903932502557e-16
7.20345469766157e-16
-3.16158764106747e-18
0
0
-5.06778056083763e-18
-1.9398629333836e-19
1.921304451798e-18
0
1.94157816072855e-19
1.00034456278455e-17
4.00664818886416e-18
1.94415280259299e-19
4.34980657800529e-18
-4.69695551800582e-18
-4.82654352629679e-18
-1.18951156519905e-15
-1.23746301440325e-15
1.93877224467807e-19
-1.93500258512765e-19
-2.58140769844331e-18
0
1.92770175195293e-19
-7.56948178727006e-18
0
2.6958055501468e-18
0
0
0
2.11845496489746e-18
2.30540437770865e-18
-2.27918192905661e-18
0
6.31914231019571e-18
-4.38364567763949e-18
-2.39711532641319e-18
0
-3.89872213594835e-18
-3.56880081696453e-18
0
-3.52206441304406e-18
0
0
3.0418369281924e-18
-1.91621330921044e-19
-3.05347034011428e-18
0
0
0
5.27037893774179e-18
1.92150032041909e-19
-1.92248397295728e-19
-1.92345253180444e-19
-7.43427634468432e-18
1.92536185828211e-19
-1.926310104394e-19
-6.41491086793401e-16
-6.54148038478185e-16
0
0
0
0
2.31059072628797e-18
-6.41207679120889e-16
-6.42496499683599e-16
-5.0066966308674e-18
0
1.92757589145513e-19
0
7.31728735715528e-18
0
0
0
0
-2.5033483154336e-18
0
0
0
-5.00669663086661e-18
-7.31728735715472e-18
7.31728735715537e-18
0
1.92757589145506e-19
-2.50334831543326e-18
2.69610590457904e-18
0
0
-1.92757589145502e-19
-6.46599890930054e-16
-6.52523837659764e-16
-5.19945422001233e-18
0
6.43711027436355e-16
6.40954771428475e-16
-2.69610590457908e-18
-2.50334831543347e-18
2.69610590457925e-18
0
-2.5033483154336e-18
0
-5.00669663086657e-18
-5.00669663086684e-18
-2.50334831543358e-18
5.00669663086717e-18
-6.44096542614622e-16
-6.45180861669041e-16
1.92757589145505e-19
-2.5033483154336e-18
0
6.41593194299147e-16
1.29074969669577e-15
6.45275855410664e-16
0
0
2.54300809475382e-18
0
0
-1.93351676109071e-19
2.53947670692905e-18
-5.61039197956276e-18
-6.81369576599033e-16
-7.32092398350318e-16
-1.93784304440556e-19
3.14543843392719e-18
-1.32722886216601e-18
0
-1.80795266769463e-18
-3.71920789869004e-18
8.7697612022131e-16
8.63150128336422e-16
-1.85409736083952e-18
-4.25153153711196e-18
-4.03091392154191e-18
-1.94476217587242e-19
0
0
0
-7.3047903809497e-18
0
7.29871533466805e-18
0
0
0
0
0
0
4.64689004303978e-18
-2.22330885506449e-18
-2.41473721288966e-18
-2.2282810022901e-18
-1.91295383026615e-19
-2.00658820603886e-18
-2.34360408019632e-18
0
-2.02093020020061e-18
6.20989367302493e-18
-2.05286692314415e-18
-3.76582334616342e-18
1.52921959080182e-18
-8.68448932121151e-18
-1.91426005371608e-19
-1.74758331002323e-18
0
3.31645829440822e-18
1.9162120225046e-19
-5.9032336633163e-18
-2.67588408696529e-18
-1.91851113731881e-19
0
-2.44947895758133e-18
-4.97151679365703e-18
-2.53174184863923e-18
1.92345468667644e-19
0
-7.12036948191856e-18
0
6.23481644702061e-16
6.177696062286e-16
-2.22949666420345e-18
0
0
0
2.61501261991564e-18
0
0
2.42225464205968e-18
6.2377131067038e-16
6.23010253293574e-16
0
4.84450928411896e-18
0
1.92757977856155e-19
0
4.84450928411899e-18
0
1.92757977856155e-19
4.84450928411937e-18
0
0
0
0
1.92757977856153e-19
0
0
4.8445092841196e-18
2.22949666420322e-18
0
-7.07400594832225e-18
0
-2.42225464205956e-18
2.22949666420351e-18
0
-6.16890062699934e-16
-6.18223439174906e-16
0
-7.07400594832229e-18
0
1.9275797785615e-19
-4.84450928411902e-18
0
-1.92757977856156e-19
0
0
0
0
4.844509284119e-18
-4.84450928411897e-18
0
4.84450928411897e-18
-2.22949666420322e-18
-6.21541814006202e-16
-6.27471639096826e-16