/*--------------------------------*- C++ -*----------------------------------*\
  =========                 |
  \\      /  F ield         | OpenFOAM: The Open Source CFD Toolbox
   \\    /   O peration     | Website:  https://openfoam.org
    \\  /    A nd           | Version:  7
     \\/     M anipulation  |
\*---------------------------------------------------------------------------*/
FoamFile
{
    version     2.0;
    format      ascii;
    class       volScalarField;
    location    "0";
    object      k_LES;
}
// * * * * * * * * * * * * * * * * * * * * * * * * * * * * * * * * * * * * * //

dimensions      [0 2 -2 0 0 0 0];

internalField   nonuniform List<scalar>
15600
(
0.00191256
0.00241404
0.00164695
0.00152434
0.00052705
0.00125422
0.00038265
0.00086956
0.00172344
0.00323032
0.00180426
0.00324110
0.00072716
0.00153159
0.00268728
0.00172495
0.00065887
0.00106418
0.00223108
0.00159787
0.00183531
0.00191066
0.00248161
0.00183671
0.00204541
0.00192323
0.00255468
0.00277611
0.00349785
0.00336754
0.00442820
0.00585062
0.00353347
0.00318229
0.00334665
0.00343313
0.00353571
0.00359926
0.00361290
0.00366987
0.00356913
0.00349906
0.00350233
0.00338231
0.00335901
0.00325140
0.00315559
0.00313095
0.00306252
0.00296033
0.00289539
0.00277094
0.00273004
0.00262405
0.00256882
0.00251100
0.00243714
0.00236068
0.00234793
0.00223532
0.00214592
0.00204664
0.00193532
0.00186950
0.00180866
0.00176402
0.00168550
0.00162287
0.00157289
0.00154121
0.00152684
0.00143358
0.00140614
0.00133735
0.00132130
0.00123611
0.00123671
0.00118084
0.00115690
0.00110674
0.00107913
0.00105064
0.00101628
0.00097859
0.00095297
0.00091198
0.00092802
0.00110820
0.00245184
0.00124966
0.00090353
0.00122341
0.00069407
0.00082338
0.00023177
-0.00000511
-0.00005063
0.00070328
0.00000258
0.00004513
-0.00012062
0.00005173
-0.00019306
-0.00011823
0.00002259
0.00003460
-0.00022171
-0.00002098
0.00008349
-0.00037237
0.00011174
-0.00014394
-0.00082777
0.00005413
0.00002200
0.00054676
0.00037201
0.00053386
0.00135182
0.00168632
0.00549608
0.00632310
0.00508907
0.00420999
0.00252616
0.00351091
0.00289073
0.00440208
0.00624681
0.00839978
0.00760733
0.00912831
0.00586569
0.00724722
0.00890282
0.00726923
0.00658283
0.00683497
0.00724743
0.00744628
0.00786189
0.00787283
0.00804437
0.00766071
0.00762688
0.00806361
0.00944038
0.01029510
0.01059015
0.01145385
0.01246228
0.01388024
0.01269198
0.01293401
0.01378345
0.01422855
0.01452480
0.01488518
0.01502663
0.01511346
0.01501167
0.01487188
0.01480382
0.01462074
0.01442918
0.01414091
0.01394307
0.01385197
0.01362401
0.01333265
0.01306483
0.01258062
0.01228688
0.01205841
0.01182781
0.01159183
0.01141411
0.01122148
0.01101837
0.01073221
0.01039089
0.00999144
0.00964088
0.00933962
0.00902249
0.00878947
0.00856066
0.00830820
0.00808583
0.00790751
0.00769815
0.00745868
0.00728837
0.00709330
0.00689375
0.00666212
0.00647603
0.00627274
0.00610993
0.00592187
0.00575727
0.00558607
0.00539348
0.00517484
0.00499104
0.00482423
0.00465716
0.00491384
0.00637972
0.00654584
0.00655477
0.00653958
0.00625971
0.00639798
0.00491107
0.00414591
0.00362405
0.00477222
0.00393159
0.00280909
0.00195349
0.00287643
0.00164069
0.00136299
0.00209161
0.00191797
0.00084276
0.00088754
0.00174294
0.00067645
0.00195325
0.00107049
0.00056525
0.00085213
0.00248569
0.00309882
0.00326761
0.00271532
0.00432932
0.00486063
0.01117020
0.01259096
0.01145197
0.00912471
0.00628989
0.00710238
0.00703832
0.01033967
0.01265496
0.01334399
0.01390848
0.01455830
0.01345702
0.01279593
0.01358409
0.01275689
0.01278865
0.01330500
0.01271614
0.01253199
0.01290422
0.01267578
0.01290292
0.01284268
0.01313315
0.01385041
0.01476325
0.01552945
0.01637069
0.01719235
0.01835064
0.01953575
0.02008735
0.02138619
0.02268295
0.02345581
0.02410184
0.02461918
0.02497282
0.02514017
0.02509317
0.02503446
0.02497317
0.02480300
0.02459084
0.02420558
0.02402444
0.02394024
0.02367359
0.02321659
0.02284266
0.02227804
0.02174590
0.02143652
0.02109186
0.02076562
0.02051993
0.02024922
0.01999071
0.01957396
0.01907614
0.01854802
0.01795077
0.01749950
0.01702734
0.01666203
0.01631361
0.01592955
0.01559673
0.01527037
0.01493147
0.01456703
0.01425063
0.01394916
0.01359882
0.01324076
0.01289916
0.01257017
0.01228287
0.01193850
0.01163763
0.01133569
0.01098098
0.01058862
0.01023589
0.00988874
0.00952840
0.00952581
0.01066852
0.01146473
0.01193262
0.01228076
0.01253789
0.01267867
0.01201074
0.01171234
0.01172543
0.01229853
0.01171391
0.01115868
0.01052902
0.00882893
0.00856430
0.00764644
0.00825520
0.00876192
0.00716225
0.00623018
0.00736810
0.00492333
0.00792613
0.00566240
0.00462686
0.00432124
0.00856929
0.00805872
0.00917108
0.00803606
0.00940335
0.01010768
0.01754425
0.01950632
0.01934825
0.01562503
0.01178106
0.01089463
0.01177285
0.01538949
0.01713060
0.01818652
0.01825545
0.01835243
0.01866237
0.01837357
0.01783265
0.01739083
0.01770005
0.01752308
0.01718446
0.01710242
0.01703720
0.01708303
0.01713239
0.01715298
0.01741482
0.01812144
0.01888954
0.01962563
0.02041043
0.02139649
0.02245105
0.02370933
0.02507900
0.02685435
0.02846545
0.02944301
0.03033323
0.03100876
0.03154567
0.03179988
0.03179036
0.03181783
0.03176014
0.03162172
0.03148379
0.03113477
0.03098032
0.03089973
0.03062947
0.03010050
0.02968186
0.02907989
0.02854933
0.02819269
0.02776442
0.02740747
0.02715351
0.02686030
0.02651916
0.02605310
0.02548835
0.02488477
0.02419168
0.02365173
0.02312441
0.02269494
0.02233011
0.02186469
0.02145323
0.02109290
0.02071912
0.02026513
0.01988408
0.01949847
0.01907732
0.01862903
0.01821901
0.01782795
0.01748457
0.01707480
0.01670301
0.01632328
0.01587954
0.01538584
0.01495452
0.01449689
0.01400808
0.01377959
0.01451355
0.01555511
0.01635478
0.01699083
0.01753969
0.01780551
0.01785924
0.01784313
0.01816695
0.01842357
0.01819112
0.01827140
0.01769585
0.01704380
0.01695454
0.01586573
0.01507861
0.01593476
0.01408466
0.01365228
0.01504871
0.01358083
0.01483277
0.01281945
0.01221036
0.01225425
0.01619129
0.01567108
0.01623264
0.01533924
0.01577071
0.01623071
0.02339923
0.02526321
0.02603490
0.02269634
0.01837625
0.01426129
0.01570352
0.01881346
0.02057431
0.02180509
0.02218222
0.02227861
0.02195881
0.02175949
0.02140386
0.02096247
0.02085443
0.02064453
0.02053355
0.02048483
0.02024423
0.02006910
0.01993533
0.02023490
0.02043913
0.02097311
0.02177150
0.02252279
0.02333484
0.02429075
0.02532827
0.02678126
0.02859598
0.03063495
0.03239128
0.03352843
0.03460635
0.03536006
0.03602406
0.03638440
0.03637244
0.03645787
0.03641107
0.03631227
0.03622072
0.03594120
0.03581240
0.03573729
0.03545573
0.03491326
0.03444883
0.03390348
0.03333995
0.03295585
0.03245903
0.03211870
0.03184324
0.03152697
0.03110657
0.03059920
0.03001554
0.02938652
0.02864845
0.02805809
0.02753374
0.02708892
0.02668120
0.02618998
0.02574024
0.02534631
0.02495651
0.02449903
0.02406163
0.02363046
0.02315335
0.02266379
0.02221814
0.02180937
0.02141921
0.02101323
0.02061156
0.02019483
0.01971632
0.01921648
0.01875439
0.01825015
0.01770735
0.01733705
0.01772977
0.01867052
0.01951169
0.02029839
0.02096204
0.02141004
0.02181126
0.02211915
0.02248467
0.02320607
0.02326071
0.02323884
0.02294700
0.02266438
0.02260751
0.02216616
0.02130361
0.02122633
0.02146822
0.02035105
0.02038865
0.02120172
0.02135810
0.02127706
0.02109835
0.02157791
0.02282778
0.02377819
0.02253949
0.02210296
0.02190193
0.02223166
0.02870142
0.03026688
0.03096395
0.02920821
0.02451351
0.01798229
0.01832512
0.02156988
0.02328619
0.02480018
0.02495151
0.02509137
0.02462155
0.02428846
0.02407803
0.02348639
0.02343603
0.02316636
0.02297883
0.02278799
0.02254529
0.02221404
0.02211818
0.02234081
0.02257994
0.02307068
0.02382370
0.02465791
0.02551285
0.02644665
0.02756602
0.02918238
0.03125072
0.03343533
0.03527565
0.03650522
0.03771378
0.03855333
0.03927840
0.03966774
0.03968672
0.03978620
0.03975074
0.03972565
0.03963779
0.03940674
0.03932085
0.03922467
0.03896111
0.03845132
0.03794107
0.03741205
0.03683916
0.03642933
0.03588599
0.03557728
0.03528450
0.03493203
0.03443793
0.03389418
0.03330042
0.03265150
0.03190834
0.03127113
0.03074006
0.03029879
0.02986458
0.02936871
0.02889167
0.02848472
0.02806490
0.02761075
0.02714836
0.02670618
0.02618922
0.02567467
0.02520300
0.02477113
0.02437866
0.02397335
0.02354432
0.02311313
0.02264281
0.02215069
0.02167691
0.02117932
0.02062774
0.02017647
0.02032662
0.02105181
0.02183681
0.02263580
0.02330624
0.02392575
0.02453790
0.02510897
0.02575780
0.02607476
0.02658418
0.02679052
0.02700063
0.02671274
0.02650806
0.02620482
0.02627758
0.02564351
0.02574084
0.02592372
0.02537502
0.02651536
0.02605555
0.02719054
0.02749470
0.02783484
0.02812366
0.02830325
0.02727004
0.02699982
0.02724560
0.02756811
0.03320596
0.03445094
0.03510427
0.03438064
0.03057779
0.02295311
0.02101002
0.02391742
0.02588746
0.02717161
0.02747452
0.02714443
0.02659987
0.02630206
0.02590126
0.02551818
0.02536395
0.02504290
0.02483788
0.02457145
0.02423682
0.02384748
0.02377066
0.02395964
0.02422265
0.02472967
0.02545826
0.02637244
0.02726604
0.02819624
0.02940408
0.03115937
0.03339449
0.03564981
0.03750579
0.03882536
0.04012037
0.04101681
0.04178701
0.04215214
0.04221395
0.04231710
0.04227974
0.04232587
0.04222115
0.04205062
0.04197809
0.04186694
0.04164736
0.04118282
0.04064014
0.04009536
0.03951927
0.03906381
0.03849356
0.03819153
0.03788420
0.03751223
0.03695900
0.03637492
0.03578724
0.03511194
0.03438962
0.03370120
0.03318727
0.03274380
0.03227877
0.03177577
0.03128040
0.03086053
0.03042929
0.02996607
0.02948448
0.02903531
0.02851958
0.02798254
0.02749464
0.02703430
0.02663019
0.02621913
0.02578755
0.02534348
0.02487201
0.02438987
0.02393508
0.02344855
0.02291473
0.02243865
0.02241342
0.02293314
0.02361562
0.02434198
0.02499323
0.02564685
0.02632820
0.02696182
0.02764268
0.02816963
0.02864346
0.02899962
0.02928018
0.02946886
0.02938097
0.02922808
0.02927015
0.02933895
0.02911410
0.02928513
0.02958474
0.02935109
0.02942062
0.03097211
0.03112807
0.03166707
0.03148960
0.03086816
0.02998934
0.03001109
0.03090587
0.03188779
0.03626829
0.03751615
0.03857694
0.03834127
0.03627074
0.02867961
0.02475307
0.02650203
0.02846284
0.02923823
0.02951230
0.02892352
0.02850393
0.02791320
0.02749421
0.02715856
0.02691399
0.02656447
0.02632992
0.02598701
0.02559075
0.02515566
0.02511228
0.02529161
0.02557654
0.02603129
0.02682597
0.02781250
0.02874309
0.02970633
0.03098636
0.03285987
0.03519160
0.03747529
0.03931819
0.04073013
0.04207832
0.04301751
0.04378846
0.04412949
0.04421062
0.04430903
0.04427742
0.04438849
0.04425051
0.04413777
0.04406696
0.04394503
0.04379045
0.04336094
0.04278652
0.04220180
0.04162581
0.04113225
0.04054213
0.04021882
0.03990388
0.03951696
0.03894364
0.03832775
0.03774472
0.03704736
0.03634719
0.03560892
0.03510334
0.03466703
0.03417416
0.03364484
0.03313821
0.03271203
0.03226249
0.03179971
0.03130872
0.03084733
0.03033484
0.02978923
0.02929762
0.02881096
0.02838028
0.02796460
0.02754323
0.02707597
0.02660132
0.02612307
0.02569170
0.02523077
0.02471109
0.02423433
0.02409583
0.02444115
0.02499928
0.02563995
0.02625381
0.02692749
0.02764271
0.02830198
0.02898511
0.02955384
0.03013965
0.03054576
0.03091441
0.03113029
0.03106108
0.03136772
0.03109443
0.03146353
0.03158349
0.03114365
0.03255313
0.03164782
0.03277847
0.03305732
0.03304813
0.03328399
0.03336910
0.03270175
0.03148392
0.03153031
0.03290155
0.03470028
0.03753264
0.03902413
0.04041833
0.04116319
0.04099354
0.03454214
0.02881063
0.02940022
0.03087316
0.03134726
0.03135660
0.03073708
0.03014171
0.02934144
0.02889158
0.02851398
0.02824197
0.02787120
0.02754889
0.02715043
0.02674312
0.02628940
0.02622753
0.02640339
0.02669333
0.02718284
0.02801756
0.02907870
0.03005386
0.03106796
0.03241354
0.03435916
0.03675486
0.03904481
0.04086299
0.04235406
0.04373588
0.04470509
0.04544515
0.04576836
0.04583312
0.04595945
0.04590727
0.04607722
0.04592093
0.04583021
0.04576458
0.04564060
0.04554795
0.04514723
0.04453498
0.04389448
0.04331894
0.04281122
0.04220573
0.04184796
0.04151299
0.04111211
0.04055441
0.03993155
0.03932627
0.03861656
0.03793279
0.03715696
0.03665795
0.03623165
0.03570503
0.03512888
0.03461504
0.03417807
0.03372580
0.03325838
0.03277092
0.03229020
0.03178259
0.03124013
0.03074696
0.03024143
0.02979451
0.02936338
0.02895378
0.02846475
0.02797837
0.02749575
0.02708574
0.02665255
0.02614665
0.02567696
0.02546656
0.02565999
0.02610152
0.02664892
0.02721746
0.02786918
0.02858470
0.02931425
0.02995929
0.03056928
0.03110096
0.03162509
0.03208696
0.03242518
0.03241415
0.03261685
0.03286124
0.03275415
0.03318370
0.03330485
0.03360913
0.03391427
0.03486333
0.03422219
0.03460458
0.03497603
0.03486104
0.03395359
0.03256237
0.03221088
0.03336587
0.03557134
0.03770061
0.03941584
0.04099646
0.04274655
0.04415870
0.04018559
0.03332164
0.03250881
0.03343252
0.03347057
0.03315541
0.03247870
0.03162949
0.03075905
0.03023141
0.02979907
0.02947837
0.02900439
0.02865366
0.02822530
0.02778646
0.02730396
0.02723518
0.02743225
0.02771973
0.02824712
0.02913055
0.03023523
0.03126642
0.03234692
0.03375680
0.03573444
0.03816635
0.04044629
0.04225413
0.04380134
0.04518351
0.04617351
0.04685310
0.04716467
0.04718898
0.04736802
0.04729280
0.04750528
0.04736338
0.04725991
0.04718586
0.04707167
0.04701647
0.04663439
0.04599469
0.04530225
0.04471816
0.04421251
0.04359478
0.04319509
0.04284156
0.04241692
0.04188450
0.04127769
0.04063828
0.03991845
0.03924860
0.03845253
0.03794842
0.03752627
0.03695877
0.03635315
0.03581868
0.03536930
0.03490998
0.03444377
0.03396142
0.03346587
0.03295189
0.03243149
0.03193203
0.03141965
0.03095227
0.03051390
0.03009945
0.02959933
0.02909868
0.02862272
0.02821584
0.02780281
0.02731180
0.02685052
0.02659195
0.02666779
0.02700295
0.02745229
0.02798492
0.02860789
0.02930880
0.02997772
0.03064779
0.03134400
0.03195049
0.03243756
0.03282901
0.03331877
0.03364560
0.03366652
0.03398572
0.03425588
0.03425675
0.03463918
0.03466522
0.03599317
0.03645758
0.03578654
0.03591654
0.03647520
0.03597000
0.03474641
0.03335239
0.03255332
0.03321874
0.03548949
0.03716726
0.03908023
0.04091004
0.04319878
0.04606224
0.04521559
0.03847394
0.03602250
0.03620068
0.03575425
0.03506993
0.03425091
0.03317456
0.03218738
0.03150479
0.03102612
0.03059580
0.03010447
0.02969587
0.02919527
0.02876906
0.02828349
0.02819966
0.02840074
0.02870098
0.02927070
0.03020328
0.03134071
0.03241253
0.03358392
0.03504618
0.03704212
0.03947732
0.04173560
0.04354424
0.04511766
0.04646837
0.04746907
0.04808832
0.04837455
0.04838368
0.04859766
0.04852007
0.04875731
0.04864921
0.04851535
0.04842712
0.04831186
0.04827360
0.04790359
0.04724181
0.04651544
0.04590249
0.04541097
0.04479745
0.04434151
0.04397521
0.04352486
0.04299902
0.04241998
0.04174055
0.04101241
0.04035425
0.03956346
0.03903355
0.03859901
0.03800154
0.03739633
0.03682364
0.03636148
0.03589591
0.03542141
0.03494507
0.03443899
0.03392235
0.03342768
0.03291551
0.03240068
0.03192828
0.03147363
0.03104622
0.03054773
0.03003536
0.02956605
0.02915311
0.02875042
0.02827049
0.02782752
0.02753105
0.02751988
0.02775434
0.02812300
0.02862452
0.02920624
0.02987629
0.03053541
0.03121229
0.03185047
0.03250966
0.03309580
0.03363663
0.03391595
0.03437416
0.03469538
0.03468174
0.03523485
0.03527673
0.03572296
0.03617713
0.03695904
0.03682838
0.03684245
0.03747249
0.03762801
0.03657080
0.03546319
0.03398790
0.03291729
0.03304322
0.03488615
0.03621263
0.03816400
0.04024911
0.04294086
0.04690273
0.04896424
0.04380506
0.03992704
0.03929148
0.03832889
0.03715312
0.03607036
0.03480204
0.03365545
0.03289753
0.03227113
0.03176928
0.03125291
0.03071731
0.03017916
0.02974453
0.02926141
0.02916416
0.02935921
0.02966500
0.03029057
0.03125621
0.03243030
0.03351740
0.03480862
0.03629112
0.03832232
0.04071844
0.04295427
0.04475485
0.04635212
0.04763761
0.04863754
0.04920044
0.04947150
0.04951010
0.04970454
0.04964885
0.04988531
0.04983245
0.04966900
0.04954442
0.04941949
0.04939035
0.04901712
0.04833479
0.04759804
0.04693358
0.04646739
0.04587298
0.04535564
0.04498757
0.04449726
0.04395232
0.04338888
0.04267872
0.04193664
0.04128279
0.04052710
0.03995527
0.03949713
0.03888510
0.03829579
0.03768913
0.03719690
0.03673026
0.03625346
0.03577696
0.03525621
0.03474946
0.03426579
0.03374219
0.03322819
0.03275429
0.03228272
0.03184193
0.03134843
0.03083679
0.03037122
0.02994964
0.02954865
0.02907554
0.02865441
0.02833401
0.02825778
0.02839975
0.02870945
0.02918047
0.02971636
0.03032310
0.03096001
0.03161277
0.03227061
0.03290738
0.03350667
0.03408567
0.03449738
0.03485441
0.03513294
0.03547331
0.03557422
0.03617583
0.03629493
0.03709563
0.03706449
0.03735540
0.03812660
0.03819965
0.03806197
0.03723408
0.03612670
0.03458257
0.03330117
0.03295098
0.03418261
0.03518642
0.03699794
0.03912539
0.04217726
0.04681061
0.05146000
0.04897670
0.04416701
0.04266406
0.04110366
0.03952119
0.03804409
0.03656802
0.03527789
0.03436880
0.03359802
0.03298020
0.03244258
0.03177003
0.03119527
0.03076582
0.03027376
0.03016029
0.03035134
0.03065865
0.03132151
0.03231126
0.03351876
0.03461822
0.03603028
0.03752120
0.03958591
0.04192316
0.04413076
0.04590658
0.04753461
0.04875268
0.04972136
0.05022014
0.05050675
0.05059064
0.05075540
0.05072741
0.05092307
0.05093687
0.05074871
0.05056875
0.05042690
0.05040750
0.05001845
0.04931020
0.04858047
0.04787026
0.04741991
0.04684473
0.04628424
0.04591608
0.04537955
0.04479431
0.04422476
0.04349309
0.04273466
0.04207154
0.04136868
0.04077166
0.04026615
0.03965123
0.03906767
0.03845559
0.03791952
0.03745045
0.03697529
0.03648937
0.03595353
0.03545188
0.03497188
0.03444813
0.03393368
0.03345476
0.03297637
0.03251524
0.03203546
0.03152942
0.03106701
0.03063052
0.03022353
0.02977039
0.02936101
0.02903500
0.02891261
0.02898110
0.02923617
0.02966230
0.03015138
0.03071983
0.03130955
0.03193382
0.03258883
0.03322682
0.03386154
0.03445148
0.03492764
0.03529703
0.03561079
0.03603154
0.03610319
0.03652896
0.03694284
0.03747973
0.03723412
0.03791386
0.03872888
0.03892174
0.03826239
0.03769218
0.03650760
0.03508097
0.03369544
0.03298024
0.03359881
0.03432424
0.03584637
0.03785036
0.04099682
0.04605966
0.05267927
0.05369749
0.04873121
0.04636303
0.04417363
0.04206512
0.04027847
0.03848531
0.03702254
0.03595169
0.03505591
0.03430048
0.03372601
0.03291832
0.03228397
0.03183026
0.03134055
0.03121324
0.03142033
0.03170461
0.03237125
0.03339116
0.03461612
0.03575764
0.03724657
0.03875854
0.04083711
0.04311673
0.04527888
0.04701871
0.04868571
0.04985469
0.05075786
0.05120929
0.05150708
0.05161687
0.05177522
0.05179216
0.05191745
0.05196550
0.05177095
0.05151772
0.05135725
0.05135009
0.05092822
0.05020624
0.04947221
0.04874763
0.04829609
0.04773018
0.04714385
0.04677337
0.04620293
0.04556532
0.04495741
0.04421305
0.04344902
0.04278140
0.04211002
0.04151421
0.04094817
0.04034723
0.03973590
0.03914461
0.03857398
0.03809261
0.03760291
0.03710102
0.03655172
0.03604396
0.03557115
0.03505429
0.03454349
0.03405481
0.03357860
0.03309600
0.03263716
0.03213372
0.03166772
0.03121042
0.03078786
0.03037251
0.02997037
0.02965344
0.02949827
0.02952330
0.02971923
0.03008578
0.03053796
0.03105753
0.03161298
0.03220185
0.03283316
0.03347728
0.03412683
0.03471295
0.03521683
0.03559109
0.03607815
0.03631844
0.03672771
0.03702878
0.03747505
0.03743300
0.03828159
0.03868104
0.03869118
0.03936288
0.03861912
0.03800340
0.03684999
0.03545211
0.03407670
0.03313560
0.03323637
0.03368118
0.03482753
0.03658662
0.03960608
0.04481408
0.05273560
0.05745493
0.05350096
0.05031575
0.04754202
0.04490536
0.04269404
0.04059829
0.03897208
0.03768648
0.03665146
0.03573615
0.03511832
0.03417229
0.03345376
0.03295628
0.03248080
0.03233972
0.03257514
0.03281752
0.03347269
0.03453274
0.03573832
0.03694377
0.03847591
0.04000848
0.04205887
0.04429915
0.04641306
0.04811744
0.04982679
0.05097015
0.05179413
0.05222546
0.05250597
0.05260965
0.05278511
0.05286316
0.05291143
0.05295817
0.05275320
0.05243268
0.05225388
0.05223079
0.05176591
0.05106200
0.05029620
0.04956961
0.04911697
0.04854389
0.04795723
0.04756597
0.04696681
0.04627813
0.04561712
0.04487301
0.04411226
0.04344289
0.04277436
0.04218662
0.04158468
0.04099722
0.04034027
0.03977448
0.03918841
0.03867531
0.03814651
0.03763371
0.03706838
0.03655545
0.03609342
0.03558489
0.03508397
0.03458529
0.03410984
0.03361578
0.03317326
0.03266966
0.03219212
0.03171032
0.03126641
0.03088717
0.03050109
0.03019547
0.03002512
0.03002716
0.03016512
0.03046620
0.03088433
0.03136262
0.03189629
0.03244629
0.03304711
0.03365709
0.03431517
0.03490554
0.03540681
0.03590219
0.03628069
0.03663553
0.03692969
0.03747851
0.03763508
0.03821974
0.03899144
0.03908999
0.03901691
0.03910332
0.03898244
0.03818047
0.03712675
0.03575996
0.03441198
0.03335471
0.03306823
0.03324468
0.03400802
0.03542264
0.03816831
0.04324156
0.05190820
0.05998554
0.05821804
0.05446471
0.05116932
0.04803331
0.04536464
0.04292165
0.04109736
0.03959189
0.03840331
0.03732882
0.03664971
0.03555607
0.03472306
0.03418196
0.03371486
0.03354736
0.03380853
0.03400766
0.03465002
0.03574062
0.03691344
0.03816282
0.03971375
0.04125446
0.04326693
0.04548064
0.04753740
0.04924184
0.05096385
0.05210034
0.05286253
0.05326371
0.05353512
0.05361552
0.05380764
0.05396092
0.05393086
0.05396240
0.05370088
0.05334925
0.05315810
0.05308051
0.05256294
0.05188137
0.05109026
0.05033774
0.04988694
0.04929729
0.04873686
0.04829938
0.04767075
0.04695861
0.04625097
0.04550769
0.04475189
0.04408695
0.04340239
0.04279328
0.04219175
0.04159973
0.04091167
0.04035308
0.03977261
0.03921024
0.03864219
0.03811216
0.03753360
0.03701243
0.03655590
0.03606486
0.03557279
0.03506698
0.03458048
0.03409052
0.03365472
0.03315786
0.03266888
0.03215818
0.03169897
0.03133176
0.03097148
0.03067174
0.03050127
0.03048132
0.03057210
0.03081710
0.03119981
0.03163126
0.03213729
0.03265849
0.03323163
0.03384182
0.03446066
0.03508672
0.03561995
0.03606485
0.03647540
0.03683185
0.03724736
0.03751190
0.03798254
0.03858681
0.03880029
0.03906805
0.03936318
0.03907247
0.03912081
0.03825985
0.03721869
0.03598255
0.03468365
0.03358207
0.03303383
0.03297503
0.03339787
0.03445501
0.03679574
0.04152725
0.05039210
0.06126076
0.06265547
0.05880843
0.05505589
0.05142871
0.04829589
0.04547316
0.04344497
0.04167487
0.04032053
0.03910560
0.03832505
0.03710913
0.03612886
0.03553600
0.03505890
0.03485827
0.03513090
0.03527489
0.03590549
0.03699906
0.03815662
0.03943993
0.04095645
0.04250014
0.04448280
0.04665536
0.04865945
0.05039816
0.05211175
0.05324165
0.05397177
0.05431792
0.05459113
0.05466954
0.05487204
0.05507241
0.05499893
0.05497882
0.05464736
0.05426903
0.05407191
0.05391592
0.05334623
0.05263722
0.05186359
0.05108240
0.05062092
0.05002858
0.04947726
0.04899544
0.04833497
0.04760817
0.04687938
0.04613753
0.04539049
0.04472808
0.04402048
0.04335638
0.04276711
0.04216128
0.04147129
0.04089564
0.04032840
0.03971327
0.03911521
0.03855333
0.03797378
0.03743612
0.03697555
0.03651179
0.03601709
0.03550640
0.03500029
0.03451789
0.03409481
0.03360745
0.03310596
0.03257704
0.03211390
0.03172856
0.03139672
0.03109335
0.03092603
0.03088439
0.03094702
0.03114131
0.03147983
0.03186692
0.03234595
0.03285106
0.03339057
0.03399470
0.03459594
0.03518648
0.03573659
0.03619546
0.03658056
0.03698221
0.03737371
0.03763234
0.03819580
0.03838668
0.03844027
0.03903442
0.03970948
0.03909180
0.03901918
0.03827796
0.03730834
0.03610883
0.03489303
0.03379240
0.03307612
0.03281619
0.03294117
0.03366777
0.03556885
0.03980077
0.04839662
0.06108050
0.06641309
0.06323846
0.05916248
0.05510306
0.05149919
0.04827367
0.04598927
0.04399254
0.04242299
0.04108472
0.04014883
0.03884195
0.03771000
0.03702720
0.03652263
0.03629417
0.03653262
0.03662473
0.03723591
0.03832335
0.03946686
0.04078614
0.04221113
0.04378071
0.04571869
0.04783187
0.04982789
0.05159589
0.05328462
0.05439425
0.05515712
0.05539692
0.05565723
0.05576780
0.05597134
0.05616622
0.05608879
0.05601145
0.05563071
0.05519395
0.05497480
0.05473695
0.05412838
0.05333719
0.05262380
0.05184122
0.05133485
0.05075669
0.05017936
0.04966491
0.04896785
0.04822878
0.04751312
0.04676399
0.04604081
0.04537042
0.04464147
0.04390137
0.04331656
0.04269295
0.04202179
0.04142607
0.04085507
0.04020266
0.03956571
0.03897436
0.03839483
0.03784809
0.03737024
0.03691873
0.03642412
0.03590986
0.03538543
0.03490967
0.03450117
0.03402369
0.03351039
0.03298247
0.03251521
0.03210135
0.03178515
0.03147899
0.03130695
0.03124648
0.03129230
0.03144184
0.03173453
0.03208807
0.03253484
0.03302292
0.03354361
0.03412593
0.03470341
0.03526972
0.03581382
0.03627364
0.03667701
0.03706030
0.03738033
0.03782160
0.03819843
0.03838386
0.03888661
0.03889769
0.03936198
0.03928005
0.03886839
0.03823875
0.03730939
0.03619246
0.03503515
0.03396198
0.03315200
0.03272807
0.03262056
0.03303958
0.03452595
0.03814688
0.04613659
0.05976003
0.06912140
0.06763078
0.06345569
0.05904795
0.05495579
0.05132122
0.04874804
0.04655287
0.04470387
0.04324767
0.04212773
0.04074305
0.03945819
0.03866378
0.03809941
0.03784245
0.03800525
0.03807581
0.03864679
0.03973229
0.04084750
0.04218767
0.04351558
0.04512781
0.04699777
0.04907638
0.05105620
0.05282830
0.05449917
0.05560068
0.05640006
0.05651042
0.05676090
0.05688967
0.05709183
0.05726010
0.05720290
0.05705399
0.05663023
0.05614834
0.05585270
0.05555279
0.05492270
0.05403239
0.05339515
0.05262592
0.05205277
0.05146654
0.05087022
0.05030061
0.04958489
0.04886228
0.04816336
0.04738776
0.04668219
0.04599314
0.04524090
0.04445192
0.04385386
0.04321262
0.04255601
0.04194917
0.04135156
0.04068418
0.04000258
0.03939782
0.03880280
0.03824357
0.03775374
0.03728940
0.03679745
0.03627926
0.03575169
0.03528251
0.03487274
0.03440988
0.03389825
0.03337614
0.03290552
0.03246543
0.03214299
0.03183917
0.03165925
0.03157112
0.03159993
0.03171822
0.03197672
0.03230974
0.03271813
0.03318120
0.03367973
0.03424604
0.03479611
0.03533688
0.03584245
0.03630668
0.03673774
0.03708776
0.03748883
0.03781241
0.03824678
0.03865567
0.03927570
0.03907518
0.03901087
0.03914814
0.03881078
0.03810611
0.03722180
0.03619795
0.03511858
0.03408305
0.03322826
0.03267390
0.03238752
0.03254916
0.03367255
0.03663776
0.04379709
0.05749604
0.07055282
0.07175731
0.06785080
0.06323160
0.05868829
0.05464512
0.05172002
0.04935788
0.04717309
0.04557489
0.04427828
0.04279965
0.04136086
0.04044403
0.03980486
0.03949108
0.03956380
0.03964285
0.04016942
0.04120636
0.04229273
0.04363739
0.04489821
0.04655100
0.04836953
0.05043934
0.05233602
0.05409183
0.05575874
0.05685768
0.05762763
0.05768092
0.05790494
0.05805022
0.05821626
0.05837749
0.05833695
0.05811978
0.05763573
0.05714205
0.05672757
0.05636144
0.05573727
0.05476911
0.05417369
0.05343128
0.05280416
0.05217738
0.05153267
0.05092294
0.05021632
0.04951186
0.04882249
0.04800166
0.04732400
0.04659920
0.04579919
0.04501136
0.04437405
0.04372516
0.04308571
0.04246355
0.04183589
0.04114986
0.04043975
0.03982628
0.03920238
0.03862324
0.03813472
0.03764495
0.03714329
0.03662484
0.03610407
0.03564526
0.03522040
0.03476782
0.03427034
0.03376487
0.03328624
0.03283184
0.03247369
0.03217778
0.03198661
0.03187748
0.03188279
0.03198395
0.03221444
0.03253470
0.03290759
0.03333924
0.03382169
0.03435543
0.03488672
0.03538250
0.03586271
0.03630465
0.03671605
0.03707841
0.03742728
0.03788501
0.03818424
0.03859424
0.03893374
0.03907261
0.03877661
0.03891742
0.03863419
0.03796662
0.03713598
0.03615283
0.03514525
0.03415427
0.03328401
0.03263456
0.03221038
0.03217070
0.03297259
0.03533215
0.04153948
0.05462089
0.07047933
0.07531007
0.07222241
0.06756262
0.06267017
0.05823405
0.05491639
0.05235667
0.04986161
0.04806356
0.04660995
0.04503413
0.04345156
0.04236812
0.04166616
0.04124739
0.04125327
0.04132297
0.04182160
0.04274280
0.04378939
0.04515336
0.04638702
0.04803212
0.04984219
0.05188745
0.05366783
0.05543826
0.05705341
0.05811030
0.05887642
0.05889812
0.05906198
0.05925612
0.05935281
0.05950692
0.05946142
0.05921032
0.05863361
0.05814020
0.05762861
0.05720333
0.05658332
0.05558634
0.05496230
0.05426724
0.05357600
0.05290203
0.05219042
0.05156896
0.05087023
0.05016870
0.04948234
0.04862502
0.04797401
0.04721121
0.04635209
0.04557881
0.04489904
0.04424121
0.04362671
0.04297866
0.04230958
0.04159433
0.04087738
0.04024595
0.03960211
0.03900302
0.03850790
0.03799591
0.03748296
0.03696640
0.03646078
0.03600146
0.03555858
0.03509751
0.03462546
0.03414609
0.03366698
0.03320758
0.03280337
0.03250423
0.03229919
0.03217921
0.03216157
0.03224675
0.03245260
0.03276074
0.03310453
0.03350694
0.03397074
0.03446791
0.03496373
0.03542001
0.03585208
0.03626788
0.03666222
0.03704192
0.03737301
0.03774791
0.03803282
0.03830720
0.03842662
0.03880455
0.03886249
0.03876465
0.03841815
0.03775414
0.03696055
0.03607066
0.03511936
0.03417901
0.03331081
0.03259053
0.03207538
0.03187777
0.03238950
0.03425075
0.03943778
0.05140368
0.06895449
0.07791211
0.07645505
0.07193973
0.06685922
0.06210152
0.05834800
0.05555073
0.05275972
0.05070847
0.04913516
0.04747565
0.04572804
0.04444212
0.04368978
0.04311752
0.04305379
0.04312214
0.04359269
0.04438388
0.04539570
0.04674801
0.04798017
0.04963293
0.05140835
0.05340171
0.05511440
0.05685899
0.05839208
0.05934983
0.06017520
0.06014871
0.06026669
0.06050592
0.06052657
0.06066691
0.06058793
0.06030640
0.05963480
0.05914957
0.05861705
0.05812586
0.05746713
0.05648022
0.05578957
0.05512897
0.05436976
0.05364056
0.05289617
0.05225460
0.05154578
0.05082489
0.05012280
0.04927257
0.04862471
0.04781941
0.04693623
0.04617554
0.04545429
0.04477579
0.04416695
0.04349051
0.04277926
0.04204252
0.04130962
0.04065322
0.04000458
0.03939271
0.03887559
0.03835761
0.03784177
0.03732377
0.03682509
0.03634888
0.03589254
0.03541508
0.03497102
0.03451079
0.03403707
0.03358231
0.03315202
0.03283200
0.03261811
0.03248276
0.03244394
0.03250849
0.03269363
0.03297983
0.03330281
0.03369213
0.03412673
0.03458180
0.03502947
0.03543904
0.03582882
0.03620601
0.03658998
0.03697178
0.03730014
0.03761494
0.03799026
0.03821960
0.03831778
0.03867314
0.03878394
0.03854453
0.03815820
0.03753922
0.03679282
0.03593306
0.03505024
0.03416017
0.03330797
0.03253457
0.03195955
0.03164263
0.03191435
0.03334920
0.03755124
0.04812202
0.06620622
0.07922656
0.08030219
0.07629094
0.07123275
0.06622803
0.06204164
0.05893283
0.05591020
0.05352884
0.05181360
0.05009027
0.04817180
0.04668766
0.04588065
0.04512063