/*--------------------------------*- C++ -*----------------------------------*\
  =========                 |
  \\      /  F ield         | OpenFOAM: The Open Source CFD Toolbox
   \\    /   O peration     | Website:  https://openfoam.org
    \\  /    A nd           | Version:  7
     \\/     M anipulation  |
\*---------------------------------------------------------------------------*/
FoamFile
{
    version     2.0;
    format      ascii;
    class       volSymmTensorField;
    location    "0";
    object      tauij_LES;
}
// * * * * * * * * * * * * * * * * * * * * * * * * * * * * * * * * * * * * * //

dimensions      [0 2 -2 0 0 0 0];

internalField   nonuniform List<symmTensor>
15600
(
(0.00251101 -0.00001022 0.00000000 0.00000044 0.00000000 0.00131368)
(0.00328577 -0.00002297 0.00000000 0.00000274 0.00000000 0.00153957)
(0.00235265 -0.00001506 0.00000000 -0.00000400 0.00000000 0.00094526)
(0.00162493 -0.00003330 0.00000000 0.00000045 0.00000000 0.00142331)
(0.00047465 -0.00014673 0.00000000 0.00006512 0.00000000 0.00051433)
(0.00114767 0.00005906 0.00000000 -0.00005131 0.00000000 0.00141207)
(0.00030883 -0.00017440 0.00000000 0.00011768 0.00000000 0.00033879)
(0.00034523 -0.00041109 0.00000000 0.00036005 0.00000000 0.00103384)
(0.00117760 -0.00027802 0.00000000 0.00005521 0.00000000 0.00221408)
(0.00186539 -0.00104711 0.00000000 0.00062930 0.00000000 0.00396596)
(0.00116098 -0.00086369 0.00000000 0.00060240 0.00000000 0.00184514)
(0.00201523 -0.00120081 0.00000000 0.00075575 0.00000000 0.00371122)
(0.00068237 -0.00036395 0.00000000 0.00020804 0.00000000 0.00056390)
(0.00110928 -0.00075622 0.00000000 0.00050187 0.00000000 0.00145201)
(0.00190703 -0.00117357 0.00000000 0.00073659 0.00000000 0.00273093)
(0.00122117 -0.00040134 0.00000000 0.00014593 0.00000000 0.00208280)
(0.00053525 -0.00035474 0.00000000 0.00022348 0.00000000 0.00055902)
(0.00082602 -0.00050077 0.00000000 0.00030220 0.00000000 0.00100014)
(0.00182506 -0.00104969 0.00000000 0.00060869 0.00000000 0.00202841)
(0.00129641 -0.00074364 0.00000000 0.00043247 0.00000000 0.00146687)
(0.00151683 -0.00084504 0.00000000 0.00047660 0.00000000 0.00167718)
(0.00146899 -0.00078709 0.00000000 0.00043041 0.00000000 0.00192192)
(0.00176315 -0.00077405 0.00000000 0.00037159 0.00000000 0.00282847)
(0.00129982 -0.00065525 0.00000000 0.00032993 0.00000000 0.00204367)
(0.00140655 -0.00055012 0.00000000 0.00023123 0.00000000 0.00245304)
(0.00168310 -0.00072306 0.00000000 0.00032437 0.00000000 0.00183897)
(0.00217927 -0.00053216 0.00000000 0.00017152 0.00000000 0.00275857)
(0.00244948 -0.00055998 0.00000000 0.00016812 0.00000000 0.00293462)
(0.00256026 -0.00043237 0.00000000 0.00015596 0.00000000 0.00427948)
(0.00279353 -0.00073841 0.00000000 0.00020776 0.00000000 0.00373377)
(0.00358382 -0.00102895 0.00000000 0.00032487 0.00000000 0.00494771)
(0.00488673 -0.00028325 0.00000000 0.00008482 0.00000000 0.00672967)
(0.00328705 0.00000816 0.00000000 0.00000008 0.00000000 0.00377981)
(0.00298961 0.00000819 0.00000000 -0.00000825 0.00000000 0.00338323)
(0.00309129 0.00000767 0.00000000 -0.00000814 0.00000000 0.00361016)
(0.00315264 0.00000764 0.00000000 -0.00000947 0.00000000 0.00372308)
(0.00319474 0.00000618 0.00000000 -0.00000848 0.00000000 0.00388516)
(0.00320510 0.00000477 0.00000000 -0.00000727 0.00000000 0.00400070)
(0.00318091 0.00000397 0.00000000 -0.00000766 0.00000000 0.00405255)
(0.00322505 0.00000324 0.00000000 -0.00000509 0.00000000 0.00411978)
(0.00312832 0.00000187 0.00000000 -0.00000894 0.00000000 0.00401887)
(0.00306986 0.00000213 0.00000000 -0.00000950 0.00000000 0.00393777)
(0.00309932 -0.00000024 0.00000000 -0.00000664 0.00000000 0.00391198)
(0.00302237 0.00000145 0.00000000 -0.00001014 0.00000000 0.00375239)
(0.00297868 0.00000008 0.00000000 -0.00000692 0.00000000 0.00374626)
(0.00284919 -0.00000087 0.00000000 -0.00000631 0.00000000 0.00365991)
(0.00276836 -0.00000019 0.00000000 -0.00000859 0.00000000 0.00355140)
(0.00276753 -0.00000199 0.00000000 -0.00000731 0.00000000 0.00350168)
(0.00275812 -0.00000215 0.00000000 -0.00000680 0.00000000 0.00337371)
(0.00266635 -0.00000108 0.00000000 -0.00000762 0.00000000 0.00326192)
(0.00261503 -0.00000249 0.00000000 -0.00000608 0.00000000 0.00318184)
(0.00246807 -0.00000200 0.00000000 -0.00000615 0.00000000 0.00307996)
(0.00243952 -0.00000471 0.00000000 -0.00000334 0.00000000 0.00302390)
(0.00236029 -0.00000286 0.00000000 -0.00000547 0.00000000 0.00289328)
(0.00231524 -0.00000351 0.00000000 -0.00000468 0.00000000 0.00282709)
(0.00226506 -0.00000384 0.00000000 -0.00000426 0.00000000 0.00276120)
(0.00218364 -0.00000370 0.00000000 -0.00000472 0.00000000 0.00269535)
(0.00212695 -0.00000259 0.00000000 -0.00000565 0.00000000 0.00260006)
(0.00212666 -0.00000415 0.00000000 -0.00000382 0.00000000 0.00257302)
(0.00201108 -0.00000320 0.00000000 -0.00000457 0.00000000 0.00246415)
(0.00191736 -0.00000249 0.00000000 -0.00000469 0.00000000 0.00237918)
(0.00182495 -0.00000358 0.00000000 -0.00000337 0.00000000 0.00227169)
(0.00173262 -0.00000249 0.00000000 -0.00000413 0.00000000 0.00214215)
(0.00168019 -0.00000295 0.00000000 -0.00000366 0.00000000 0.00206246)
(0.00164026 -0.00000343 0.00000000 -0.00000301 0.00000000 0.00198007)
(0.00162199 -0.00000371 0.00000000 -0.00000272 0.00000000 0.00190878)
(0.00154713 -0.00000267 0.00000000 -0.00000288 0.00000000 0.00182675)
(0.00150426 -0.00000186 0.00000000 -0.00000296 0.00000000 0.00174444)
(0.00145187 -0.00000192 0.00000000 -0.00000293 0.00000000 0.00169685)
(0.00142423 -0.00000167 0.00000000 -0.00000294 0.00000000 0.00166112)
(0.00140885 -0.00000384 0.00000000 -0.00000144 0.00000000 0.00164628)
(0.00130916 -0.00000198 0.00000000 -0.00000250 0.00000000 0.00156050)
(0.00129032 -0.00000228 0.00000000 -0.00000224 0.00000000 0.00152419)
(0.00122821 -0.00000104 0.00000000 -0.00000276 0.00000000 0.00144926)
(0.00122169 -0.00000222 0.00000000 -0.00000197 0.00000000 0.00142286)
(0.00113346 -0.00000059 0.00000000 -0.00000263 0.00000000 0.00134139)
(0.00114914 -0.00000222 0.00000000 -0.00000157 0.00000000 0.00132585)
(0.00108420 -0.00000152 0.00000000 -0.00000187 0.00000000 0.00127935)
(0.00105757 -0.00000151 0.00000000 -0.00000170 0.00000000 0.00125792)
(0.00099710 -0.00000093 0.00000000 -0.00000205 0.00000000 0.00121842)
(0.00097077 -0.00000125 0.00000000 -0.00000166 0.00000000 0.00118914)
(0.00093151 -0.00000110 0.00000000 -0.00000164 0.00000000 0.00117141)
(0.00088954 -0.00000129 0.00000000 -0.00000141 0.00000000 0.00114442)
(0.00083979 -0.00000118 0.00000000 -0.00000137 0.00000000 0.00111876)
(0.00079856 -0.00000135 0.00000000 -0.00000117 0.00000000 0.00110856)
(0.00073636 -0.00000053 0.00000000 -0.00000152 0.00000000 0.00108913)
(0.00072681 -0.00000180 0.00000000 -0.00000042 0.00000000 0.00112965)
(0.00080394 -0.00000215 0.00000000 0.00000026 0.00000000 0.00141219)
(0.00122802 0.00002261 0.00000000 0.00001808 0.00000000 0.00365758)
(0.00090149 0.00006887 0.00000000 0.00000455 0.00000000 0.00159327)
(0.00057851 0.00004519 0.00000000 0.00000404 0.00000000 0.00122451)
(0.00052515 0.00017206 0.00000000 0.00005529 0.00000000 0.00186638)
(0.00021896 0.00004293 0.00000000 0.00001202 0.00000000 0.00115716)
(0.00024523 0.00004249 0.00000000 0.00000922 0.00000000 0.00139231)
(0.00008035 -0.00003455 0.00000000 -0.00003048 0.00000000 0.00041368)
(-0.00005623 0.00001734 0.00000000 0.00001766 0.00000000 0.00002834)
(-0.00006190 -0.00001813 0.00000000 -0.00000610 0.00000000 -0.00003326)
(0.00023908 0.00011284 0.00000000 0.00005255 0.00000000 0.00111493)
(-0.00000938 0.00000574 0.00000000 0.00000649 0.00000000 0.00000805)
(0.00003267 0.00001951 0.00000000 0.00001143 0.00000000 0.00004617)
(-0.00006433 -0.00003616 0.00000000 -0.00001993 0.00000000 -0.00015698)
(0.00004059 0.00001777 0.00000000 0.00000866 0.00000000 0.00005421)
(-0.00012301 -0.00004861 0.00000000 -0.00002003 0.00000000 -0.00024308)
(-0.00007535 -0.00005415 0.00000000 -0.00003467 0.00000000 -0.00012643)
(-0.00012979 -0.00005155 0.00000000 -0.00001942 0.00000000 0.00019440)
(0.00000225 0.00000684 0.00000000 0.00000665 0.00000000 0.00006031)
(-0.00011538 -0.00005860 0.00000000 -0.00003028 0.00000000 -0.00029776)
(-0.00003288 -0.00002673 0.00000000 -0.00001978 0.00000000 0.00001070)
(-0.00001384 0.00000622 0.00000000 0.00000938 0.00000000 0.00017145)
(-0.00016906 -0.00010786 0.00000000 -0.00006748 0.00000000 -0.00050821)
(-0.00002298 0.00002450 0.00000000 0.00002695 0.00000000 0.00021952)
(-0.00024322 -0.00008784 0.00000000 -0.00002851 0.00000000 -0.00001614)
(-0.00063623 -0.00028755 0.00000000 -0.00013984 0.00000000 -0.00087946)
(0.00011381 -0.00003427 0.00000000 -0.00003846 0.00000000 0.00003291)
(-0.00044305 -0.00000724 0.00000000 0.00008070 0.00000000 0.00040636)
(0.00088239 0.00008501 0.00000000 0.00000514 0.00000000 0.00020599)
(0.00009451 0.00017025 0.00000000 0.00004891 0.00000000 0.00060060)
(0.00061172 -0.00002574 0.00000000 -0.00000159 0.00000000 0.00045758)
(0.00172239 -0.00000639 0.00000000 0.00000059 0.00000000 0.00098066)
(0.00220413 -0.00000904 0.00000000 0.00000119 0.00000000 0.00116732)
(0.00770808 -0.00010611 0.00000000 0.00002976 0.00000000 0.00325432)
(0.00892780 -0.00014071 0.00000000 0.00004111 0.00000000 0.00367728)
(0.00740042 -0.00012239 0.00000000 0.00002258 0.00000000 0.00275513)
(0.00508301 -0.00035553 0.00000000 0.00008079 0.00000000 0.00325619)
(0.00301845 -0.00056822 0.00000000 0.00016335 0.00000000 0.00187052)
(0.00323141 -0.00035601 0.00000000 0.00011443 0.00000000 0.00367599)
(0.00266576 -0.00084174 0.00000000 0.00041855 0.00000000 0.00269716)
(0.00315123 -0.00213876 0.00000000 0.00147320 0.00000000 0.00417973)
(0.00474143 -0.00192754 0.00000000 0.00098122 0.00000000 0.00677096)
(0.00602112 -0.00304477 0.00000000 0.00180696 0.00000000 0.00897148)
(0.00553119 -0.00361184 0.00000000 0.00249757 0.00000000 0.00718589)
(0.00654559 -0.00368054 0.00000000 0.00231928 0.00000000 0.00939175)
(0.00551400 -0.00254556 0.00000000 0.00141447 0.00000000 0.00480291)
(0.00568559 -0.00359360 0.00000000 0.00238985 0.00000000 0.00641901)
(0.00684489 -0.00393730 0.00000000 0.00247628 0.00000000 0.00848446)
(0.00593700 -0.00252866 0.00000000 0.00125039 0.00000000 0.00735107)
(0.00607021 -0.00347174 0.00000000 0.00212931 0.00000000 0.00496613)
(0.00604257 -0.00354497 0.00000000 0.00217058 0.00000000 0.00545680)
(0.00608040 -0.00341363 0.00000000 0.00204474 0.00000000 0.00636973)
(0.00632278 -0.00348608 0.00000000 0.00207086 0.00000000 0.00649892)
(0.00676200 -0.00363526 0.00000000 0.00211138 0.00000000 0.00685040)
(0.00657855 -0.00329610 0.00000000 0.00182137 0.00000000 0.00734574)
(0.00648457 -0.00280527 0.00000000 0.00143624 0.00000000 0.00816792)
(0.00634671 -0.00273718 0.00000000 0.00136300 0.00000000 0.00761170)
(0.00637823 -0.00242010 0.00000000 0.00111418 0.00000000 0.00776134)
(0.00733371 -0.00243904 0.00000000 0.00104071 0.00000000 0.00775280)
(0.00831239 -0.00223635 0.00000000 0.00089412 0.00000000 0.00967424)
(0.00916916 -0.00214871 0.00000000 0.00083888 0.00000000 0.01058216)
(0.00925364 -0.00181867 0.00000000 0.00071260 0.00000000 0.01121406)
(0.01030307 -0.00181443 0.00000000 0.00068677 0.00000000 0.01191785)
(0.01088085 -0.00158538 0.00000000 0.00069338 0.00000000 0.01335034)
(0.01156266 -0.00057270 0.00000000 0.00060865 0.00000000 0.01558917)
(0.01131019 -0.00004936 0.00000000 0.00037105 0.00000000 0.01370273)
(0.01162302 -0.00004002 0.00000000 0.00034390 0.00000000 0.01390109)
(0.01227043 -0.00003407 0.00000000 0.00033998 0.00000000 0.01495650)
(0.01262847 -0.00003367 0.00000000 0.00034550 0.00000000 0.01548312)
(0.01272578 -0.00005443 0.00000000 0.00036234 0.00000000 0.01596148)
(0.01292821 -0.00007802 0.00000000 0.00035287 0.00000000 0.01648929)
(0.01293443 -0.00009709 0.00000000 0.00035357 0.00000000 0.01676527)
(0.01299527 -0.00008932 0.00000000 0.00035517 0.00000000 0.01687648)
(0.01295773 -0.00011667 0.00000000 0.00034624 0.00000000 0.01671936)
(0.01290270 -0.00012616 0.00000000 0.00034169 0.00000000 0.01649938)
(0.01302099 -0.00014435 0.00000000 0.00032984 0.00000000 0.01625680)
(0.01295635 -0.00013984 0.00000000 0.00032320 0.00000000 0.01596194)
(0.01269071 -0.00013913 0.00000000 0.00031518 0.00000000 0.01585247)
(0.01242981 -0.00015291 0.00000000 0.00029934 0.00000000 0.01555267)
(0.01238645 -0.00017219 0.00000000 0.00029727 0.00000000 0.01520243)
(0.01247544 -0.00018582 0.00000000 0.00028351 0.00000000 0.01494499)
(0.01247288 -0.00018495 0.00000000 0.00027158 0.00000000 0.01450356)
(0.01226485 -0.00018275 0.00000000 0.00026332 0.00000000 0.01413712)
(0.01204883 -0.00018930 0.00000000 0.00025748 0.00000000 0.01382335)
(0.01154506 -0.00018331 0.00000000 0.00024819 0.00000000 0.01336798)
(0.01134347 -0.00019368 0.00000000 0.00022754 0.00000000 0.01300274)
(0.01125861 -0.00019671 0.00000000 0.00022322 0.00000000 0.01263498)
(0.01108873 -0.00019891 0.00000000 0.00021728 0.00000000 0.01234962)
(0.01090488 -0.00019999 0.00000000 0.00020867 0.00000000 0.01207012)
(0.01073890 -0.00021036 0.00000000 0.00020207 0.00000000 0.01188726)
(0.01064675 -0.00021013 0.00000000 0.00019438 0.00000000 0.01160183)
(0.01048028 -0.00020637 0.00000000 0.00018806 0.00000000 0.01136840)
(0.01020233 -0.00020595 0.00000000 0.00018184 0.00000000 0.01108026)
(0.00985055 -0.00020071 0.00000000 0.00017436 0.00000000 0.01075687)
(0.00949290 -0.00020354 0.00000000 0.00016310 0.00000000 0.01032688)
(0.00923845 -0.00019902 0.00000000 0.00015081 0.00000000 0.00989251)
(0.00903433 -0.00019877 0.00000000 0.00014197 0.00000000 0.00950294)
(0.00879968 -0.00019562 0.00000000 0.00013483 0.00000000 0.00911047)
(0.00868629 -0.00019604 0.00000000 0.00012987 0.00000000 0.00876277)
(0.00849629 -0.00018868 0.00000000 0.00012342 0.00000000 0.00850162)
(0.00831759 -0.00018174 0.00000000 0.00012079 0.00000000 0.00817803)
(0.00810795 -0.00018048 0.00000000 0.00011701 0.00000000 0.00794670)
(0.00791653 -0.00017030 0.00000000 0.00011183 0.00000000 0.00778668)
(0.00767328 -0.00016907 0.00000000 0.00010444 0.00000000 0.00761857)
(0.00743975 -0.00017031 0.00000000 0.00010553 0.00000000 0.00737207)
(0.00730010 -0.00016830 0.00000000 0.00010004 0.00000000 0.00717660)
(0.00715517 -0.00016616 0.00000000 0.00009664 0.00000000 0.00693479)
(0.00698425 -0.00015914 0.00000000 0.00009184 0.00000000 0.00671141)
(0.00676849 -0.00015328 0.00000000 0.00008762 0.00000000 0.00646812)
(0.00659859 -0.00014705 0.00000000 0.00008231 0.00000000 0.00627117)
(0.00636873 -0.00014330 0.00000000 0.00008180 0.00000000 0.00609495)
(0.00616318 -0.00013617 0.00000000 0.00007784 0.00000000 0.00597884)
(0.00592835 -0.00013385 0.00000000 0.00007604 0.00000000 0.00583935)
(0.00573658 -0.00013199 0.00000000 0.00007432 0.00000000 0.00570365)
(0.00550279 -0.00012443 0.00000000 0.00007293 0.00000000 0.00559642)
(0.00524987 -0.00011913 0.00000000 0.00006968 0.00000000 0.00546742)
(0.00494455 -0.00011332 0.00000000 0.00006871 0.00000000 0.00533641)
(0.00464597 -0.00010707 0.00000000 0.00006508 0.00000000 0.00527103)
(0.00435037 -0.00010164 0.00000000 0.00006483 0.00000000 0.00523326)
(0.00401275 -0.00009202 0.00000000 0.00006425 0.00000000 0.00523731)
(0.00392915 -0.00008946 0.00000000 0.00007621 0.00000000 0.00582232)
(0.00404244 0.00010932 0.00000000 0.00014584 0.00000000 0.00857117)
(0.00449355 0.00037755 0.00000000 0.00014043 0.00000000 0.00845769)
(0.00419436 0.00044504 0.00000000 0.00012771 0.00000000 0.00878747)
(0.00380602 0.00064253 0.00000000 0.00019168 0.00000000 0.00908146)
(0.00349787 0.00086405 0.00000000 0.00029141 0.00000000 0.00873014)
(0.00321647 0.00076394 0.00000000 0.00024227 0.00000000 0.00933723)
(0.00259224 0.00072600 0.00000000 0.00023295 0.00000000 0.00699694)
(0.00233919 0.00095243 0.00000000 0.00041727 0.00000000 0.00553535)
(0.00200030 0.00099991 0.00000000 0.00050705 0.00000000 0.00474074)
(0.00220937 0.00097391 0.00000000 0.00045849 0.00000000 0.00687659)
(0.00213477 0.00109613 0.00000000 0.00057117 0.00000000 0.00515725)
(0.00158651 0.00085589 0.00000000 0.00046430 0.00000000 0.00356737)
(0.00108172 0.00061910 0.00000000 0.00035164 0.00000000 0.00247362)
(0.00163354 0.00089632 0.00000000 0.00049214 0.00000000 0.00362718)
(0.00105755 0.00038935 0.00000000 0.00014673 0.00000000 0.00207709)
(0.00084071 0.00022996 0.00000000 0.00003786 0.00000000 0.00184741)
(0.00069062 0.00029345 0.00000000 0.00013362 0.00000000 0.00335898)
(0.00078885 0.00047882 0.00000000 0.00029047 0.00000000 0.00275662)
(0.00042454 0.00031026 0.00000000 0.00021063 0.00000000 0.00105034)
(0.00035131 0.00012018 0.00000000 0.00003064 0.00000000 0.00139313)
(0.00047402 0.00031838 0.00000000 0.00020770 0.00000000 0.00280416)
(0.00025561 0.00023055 0.00000000 0.00017580 0.00000000 0.00092149)
(0.00070921 0.00045084 0.00000000 0.00027351 0.00000000 0.00292378)
(0.00023268 0.00014618 0.00000000 0.00010310 0.00000000 0.00180520)
(0.00046730 0.00009611 0.00000000 0.00000881 0.00000000 0.00065438)
(0.00068107 0.00005264 0.00000000 -0.00000892 0.00000000 0.00103210)
(0.00193287 0.00046664 0.00000000 0.00019785 0.00000000 0.00284066)
(0.00424032 0.00037780 0.00000000 0.00006141 0.00000000 0.00189590)
(0.00398043 0.00052247 0.00000000 0.00009029 0.00000000 0.00246450)
(0.00374650 0.00000442 0.00000000 0.00000365 0.00000000 0.00168048)
(0.00609982 -0.00003944 0.00000000 0.00001322 0.00000000 0.00254560)
(0.00682406 -0.00007612 0.00000000 0.00002032 0.00000000 0.00287687)
(0.01624068 -0.00031552 0.00000000 0.00009591 0.00000000 0.00600382)
(0.01829467 -0.00042393 0.00000000 0.00013955 0.00000000 0.00674771)
(0.01690551 -0.00042059 0.00000000 0.00011831 0.00000000 0.00588012)
(0.01207551 -0.00114950 0.00000000 0.00029537 0.00000000 0.00587853)
(0.00793537 -0.00142211 0.00000000 0.00044300 0.00000000 0.00420142)
(0.00626466 -0.00127703 0.00000000 0.00065925 0.00000000 0.00728085)
(0.00612737 -0.00218852 0.00000000 0.00127357 0.00000000 0.00667569)
(0.00817924 -0.00486766 0.00000000 0.00323007 0.00000000 0.00927003)
(0.00971569 -0.00455809 0.00000000 0.00276656 0.00000000 0.01282767)
(0.00983175 -0.00526348 0.00000000 0.00358206 0.00000000 0.01327416)
(0.01030991 -0.00635619 0.00000000 0.00452113 0.00000000 0.01298592)
(0.01070594 -0.00595491 0.00000000 0.00403585 0.00000000 0.01437480)
(0.01183670 -0.00614631 0.00000000 0.00384051 0.00000000 0.01123682)
(0.01022892 -0.00583030 0.00000000 0.00396729 0.00000000 0.01139566)
(0.01062373 -0.00583081 0.00000000 0.00389171 0.00000000 0.01265275)
(0.01091956 -0.00507799 0.00000000 0.00297836 0.00000000 0.01161586)
(0.01176607 -0.00578690 0.00000000 0.00348119 0.00000000 0.01033005)
(0.01203196 -0.00619980 0.00000000 0.00379147 0.00000000 0.01078658)
(0.01082670 -0.00564175 0.00000000 0.00349740 0.00000000 0.01110818)
(0.01072198 -0.00559132 0.00000000 0.00349427 0.00000000 0.01084773)
(0.01119941 -0.00549801 0.00000000 0.00332682 0.00000000 0.01128220)
(0.01090169 -0.00515102 0.00000000 0.00305009 0.00000000 0.01139978)
(0.01097672 -0.00469928 0.00000000 0.00273600 0.00000000 0.01209313)
(0.01113978 -0.00448010 0.00000000 0.00246832 0.00000000 0.01207726)
(0.01153369 -0.00417708 0.00000000 0.00220011 0.00000000 0.01253250)
(0.01235779 -0.00419612 0.00000000 0.00220536 0.00000000 0.01313766)
(0.01306425 -0.00377119 0.00000000 0.00202429 0.00000000 0.01443797)
(0.01365828 -0.00329483 0.00000000 0.00184450 0.00000000 0.01555613)
(0.01434577 -0.00280907 0.00000000 0.00167614 0.00000000 0.01671948)
(0.01510219 -0.00239417 0.00000000 0.00156854 0.00000000 0.01771397)
(0.01569212 -0.00197594 0.00000000 0.00160569 0.00000000 0.01940347)
(0.01607289 -0.00101193 0.00000000 0.00161232 0.00000000 0.02138629)
(0.01723678 -0.00033868 0.00000000 0.00136099 0.00000000 0.02157694)
(0.01849397 -0.00029589 0.00000000 0.00134782 0.00000000 0.02293058)
(0.01951187 -0.00028450 0.00000000 0.00136727 0.00000000 0.02448676)
(0.02015406 -0.00028417 0.00000000 0.00138559 0.00000000 0.02537198)
(0.02055503 -0.00032341 0.00000000 0.00142857 0.00000000 0.02622008)
(0.02088669 -0.00037417 0.00000000 0.00142027 0.00000000 0.02693140)
(0.02101495 -0.00041690 0.00000000 0.00142424 0.00000000 0.02750646)
(0.02114196 -0.00039029 0.00000000 0.00142723 0.00000000 0.02771115)
(0.02128220 -0.00043125 0.00000000 0.00140148 0.00000000 0.02750265)
(0.02141669 -0.00046785 0.00000000 0.00137655 0.00000000 0.02727567)
(0.02169274 -0.00049317 0.00000000 0.00134809 0.00000000 0.02690551)
(0.02168134 -0.00046376 0.00000000 0.00131021 0.00000000 0.02661445)
(0.02139270 -0.00046553 0.00000000 0.00128549 0.00000000 0.02650350)
(0.02116360 -0.00049689 0.00000000 0.00124732 0.00000000 0.02600024)
(0.02133644 -0.00053835 0.00000000 0.00122840 0.00000000 0.02548404)
(0.02161681 -0.00056886 0.00000000 0.00117727 0.00000000 0.02508639)
(0.02167583 -0.00055705 0.00000000 0.00113891 0.00000000 0.02453244)
(0.02139305 -0.00054925 0.00000000 0.00110594 0.00000000 0.02393419)
(0.02111302 -0.00055361 0.00000000 0.00107764 0.00000000 0.02349465)
(0.02060558 -0.00053946 0.00000000 0.00102657 0.00000000 0.02292393)
(0.02029053 -0.00057035 0.00000000 0.00098372 0.00000000 0.02221754)
(0.02026273 -0.00057168 0.00000000 0.00095234 0.00000000 0.02165799)
(0.02005614 -0.00057334 0.00000000 0.00093006 0.00000000 0.02119752)
(0.01983543 -0.00057895 0.00000000 0.00089724 0.00000000 0.02079858)
(0.01966641 -0.00060795 0.00000000 0.00087310 0.00000000 0.02050036)
(0.01959062 -0.00060944 0.00000000 0.00084566 0.00000000 0.02006217)
(0.01939266 -0.00059619 0.00000000 0.00081420 0.00000000 0.01977456)
(0.01901738 -0.00059164 0.00000000 0.00078657 0.00000000 0.01934397)
(0.01852637 -0.00058161 0.00000000 0.00075046 0.00000000 0.01887544)
(0.01808242 -0.00058717 0.00000000 0.00070661 0.00000000 0.01830700)
(0.01766907 -0.00057742 0.00000000 0.00066446 0.00000000 0.01756801)
(0.01743966 -0.00057774 0.00000000 0.00063118 0.00000000 0.01692816)
(0.01712388 -0.00057490 0.00000000 0.00060066 0.00000000 0.01633014)
(0.01698012 -0.00057895 0.00000000 0.00057544 0.00000000 0.01576850)
(0.01674054 -0.00056508 0.00000000 0.00055394 0.00000000 0.01533272)
(0.01648145 -0.00054969 0.00000000 0.00053009 0.00000000 0.01484757)
(0.01620084 -0.00054396 0.00000000 0.00050928 0.00000000 0.01448334)
(0.01585957 -0.00052411 0.00000000 0.00049932 0.00000000 0.01418184)
(0.01548507 -0.00052671 0.00000000 0.00048052 0.00000000 0.01389735)
(0.01513764 -0.00052258 0.00000000 0.00046457 0.00000000 0.01353184)
(0.01489343 -0.00052727 0.00000000 0.00044855 0.00000000 0.01315927)
(0.01468700 -0.00051912 0.00000000 0.00042754 0.00000000 0.01278377)
(0.01440356 -0.00050331 0.00000000 0.00041166 0.00000000 0.01238241)
(0.01409385 -0.00048750 0.00000000 0.00038999 0.00000000 0.01199767)
(0.01378347 -0.00047712 0.00000000 0.00037612 0.00000000 0.01163872)
(0.01341998 -0.00046744 0.00000000 0.00036820 0.00000000 0.01135217)
(0.01306794 -0.00045328 0.00000000 0.00035681 0.00000000 0.01114099)
(0.01264068 -0.00044529 0.00000000 0.00034561 0.00000000 0.01089071)
(0.01227829 -0.00044175 0.00000000 0.00033766 0.00000000 0.01065931)
(0.01186832 -0.00042221 0.00000000 0.00032920 0.00000000 0.01047386)
(0.01138685 -0.00040397 0.00000000 0.00031686 0.00000000 0.01025825)
(0.01081574 -0.00038970 0.00000000 0.00030761 0.00000000 0.01005388)
(0.01025309 -0.00037656 0.00000000 0.00029811 0.00000000 0.00992057)
(0.00964250 -0.00035895 0.00000000 0.00029188 0.00000000 0.00984310)
(0.00892342 -0.00033230 0.00000000 0.00028539 0.00000000 0.00984798)
(0.00836646 -0.00031049 0.00000000 0.00030799 0.00000000 0.01037717)
(0.00810041 -0.00002392 0.00000000 0.00041075 0.00000000 0.01282587)
(0.00835644 0.00037341 0.00000000 0.00040630 0.00000000 0.01416672)
(0.00826081 0.00071238 0.00000000 0.00041293 0.00000000 0.01519150)
(0.00814670 0.00111507 0.00000000 0.00048667 0.00000000 0.01592815)
(0.00813221 0.00156456 0.00000000 0.00061130 0.00000000 0.01633226)
(0.00765496 0.00167648 0.00000000 0.00063798 0.00000000 0.01706439)
(0.00730718 0.00198414 0.00000000 0.00074384 0.00000000 0.01597045)
(0.00731464 0.00238279 0.00000000 0.00095783 0.00000000 0.01515222)
(0.00716174 0.00285954 0.00000000 0.00130646 0.00000000 0.01498266)
(0.00673658 0.00268795 0.00000000 0.00124877 0.00000000 0.01661171)
(0.00670066 0.00300609 0.00000000 0.00149492 0.00000000 0.01523225)
(0.00671734 0.00343933 0.00000000 0.00186790 0.00000000 0.01373213)
(0.00615686 0.00311248 0.00000000 0.00166714 0.00000000 0.01323405)
(0.00515969 0.00254124 0.00000000 0.00135297 0.00000000 0.01114520)
(0.00554491 0.00250910 0.00000000 0.00120121 0.00000000 0.01038248)
(0.00477857 0.00209775 0.00000000 0.00096989 0.00000000 0.00954442)
(0.00434178 0.00189814 0.00000000 0.00088639 0.00000000 0.01128222)
(0.00441425 0.00232519 0.00000000 0.00127464 0.00000000 0.01183495)
(0.00414042 0.00245218 0.00000000 0.00146811 0.00000000 0.00871598)
(0.00347940 0.00165691 0.00000000 0.00082402 0.00000000 0.00815694)
(0.00330248 0.00171577 0.00000000 0.00093777 0.00000000 0.01049594)
(0.00269051 0.00172842 0.00000000 0.00110098 0.00000000 0.00605516)
(0.00412751 0.00200865 0.00000000 0.00101736 0.00000000 0.01070740)
(0.00316663 0.00143482 0.00000000 0.00070982 0.00000000 0.00744834)
(0.00393786 0.00107998 0.00000000 0.00028290 0.00000000 0.00503296)
(0.00338659 0.00125775 0.00000000 0.00054265 0.00000000 0.00471323)
(0.00840201 0.00207397 0.00000000 0.00058935 0.00000000 0.00814723)
(0.01011984 0.00103165 0.00000000 0.00018956 0.00000000 0.00580803)
(0.01217141 0.00122942 0.00000000 0.00015969 0.00000000 0.00601106)
(0.01181207 0.00015452 0.00000000 0.00002550 0.00000000 0.00423454)
(0.01385413 -0.00011845 0.00000000 0.00004706 0.00000000 0.00490550)
(0.01477787 -0.00022540 0.00000000 0.00006519 0.00000000 0.00537229)
(0.02624756 -0.00064612 0.00000000 0.00020196 0.00000000 0.00863898)
(0.02898949 -0.00086098 0.00000000 0.00029391 0.00000000 0.00972924)
(0.02889061 -0.00094326 0.00000000 0.00030151 0.00000000 0.00950438)
(0.02216497 -0.00225228 0.00000000 0.00061663 0.00000000 0.00846846)
(0.01557675 -0.00248769 0.00000000 0.00085595 0.00000000 0.00712941)
(0.00989288 -0.00229673 0.00000000 0.00132502 0.00000000 0.01057136)
(0.00940044 -0.00375616 0.00000000 0.00265674 0.00000000 0.01148851)
(0.01208121 -0.00633515 0.00000000 0.00456176 0.00000000 0.01413601)
(0.01288968 -0.00616282 0.00000000 0.00445157 0.00000000 0.01691995)
(0.01338798 -0.00705604 0.00000000 0.00530555 0.00000000 0.01767951)
(0.01356686 -0.00766220 0.00000000 0.00582190 0.00000000 0.01712214)
(0.01355106 -0.00742325 0.00000000 0.00557930 0.00000000 0.01757450)
(0.01569154 -0.00794382 0.00000000 0.00545874 0.00000000 0.01617446)
(0.01491847 -0.00797181 0.00000000 0.00568661 0.00000000 0.01614206)
(0.01421632 -0.00756219 0.00000000 0.00542405 0.00000000 0.01602492)
(0.01485063 -0.00711196 0.00000000 0.00476534 0.00000000 0.01516569)
(0.01565262 -0.00763575 0.00000000 0.00508032 0.00000000 0.01466717)
(0.01541217 -0.00740479 0.00000000 0.00492177 0.00000000 0.01471221)
(0.01482751 -0.00734595 0.00000000 0.00491763 0.00000000 0.01462378)
(0.01481585 -0.00751568 0.00000000 0.00508581 0.00000000 0.01430318)
(0.01484211 -0.00712505 0.00000000 0.00475735 0.00000000 0.01447493)
(0.01496702 -0.00680375 0.00000000 0.00445226 0.00000000 0.01474679)
(0.01474987 -0.00619443 0.00000000 0.00409810 0.00000000 0.01541681)
(0.01511525 -0.00590307 0.00000000 0.00375162 0.00000000 0.01543908)
(0.01527076 -0.00541316 0.00000000 0.00344938 0.00000000 0.01610949)
(0.01582610 -0.00518819 0.00000000 0.00339692 0.00000000 0.01701986)
(0.01631685 -0.00460055 0.00000000 0.00322365 0.00000000 0.01823858)
(0.01691195 -0.00409686 0.00000000 0.00309020 0.00000000 0.01924912)
(0.01754568 -0.00350696 0.00000000 0.00296004 0.00000000 0.02031515)
(0.01833182 -0.00296835 0.00000000 0.00285527 0.00000000 0.02160588)
(0.01870125 -0.00232528 0.00000000 0.00292621 0.00000000 0.02327464)
(0.01916824 -0.00144287 0.00000000 0.00300271 0.00000000 0.02524771)
(0.02077902 -0.00078355 0.00000000 0.00284174 0.00000000 0.02653724)
(0.02236156 -0.00074506 0.00000000 0.00290538 0.00000000 0.02844175)
(0.02363950 -0.00072013 0.00000000 0.00295734 0.00000000 0.03033406)
(0.02446093 -0.00072193 0.00000000 0.00298910 0.00000000 0.03143598)
(0.02514687 -0.00077615 0.00000000 0.00307774 0.00000000 0.03244185)
(0.02563154 -0.00083182 0.00000000 0.00306768 0.00000000 0.03331829)
(0.02587011 -0.00088309 0.00000000 0.00307431 0.00000000 0.03414692)
(0.02610359 -0.00083729 0.00000000 0.00307769 0.00000000 0.03441848)
(0.02636955 -0.00087005 0.00000000 0.00303450 0.00000000 0.03417668)
(0.02665398 -0.00093697 0.00000000 0.00297892 0.00000000 0.03400276)
(0.02700142 -0.00094653 0.00000000 0.00293786 0.00000000 0.03358100)
(0.02704600 -0.00087666 0.00000000 0.00286356 0.00000000 0.03333388)
(0.02688291 -0.00087935 0.00000000 0.00280743 0.00000000 0.03327725)
(0.02679501 -0.00091784 0.00000000 0.00273263 0.00000000 0.03274190)
(0.02713531 -0.00097596 0.00000000 0.00270018 0.00000000 0.03212516)
(0.02755443 -0.00101331 0.00000000 0.00259546 0.00000000 0.03164956)
(0.02764849 -0.00097385 0.00000000 0.00251919 0.00000000 0.03109127)
(0.02733728 -0.00095308 0.00000000 0.00245278 0.00000000 0.03041095)
(0.02707137 -0.00095063 0.00000000 0.00238924 0.00000000 0.02990310)
(0.02661253 -0.00092528 0.00000000 0.00230208 0.00000000 0.02924516)
(0.02640275 -0.00097159 0.00000000 0.00220241 0.00000000 0.02849350)
(0.02643245 -0.00096376 0.00000000 0.00214091 0.00000000 0.02781203)
(0.02621455 -0.00095452 0.00000000 0.00208678 0.00000000 0.02722750)
(0.02600166 -0.00096728 0.00000000 0.00202458 0.00000000 0.02678869)
(0.02588542 -0.00101535 0.00000000 0.00196593 0.00000000 0.02645567)
(0.02585816 -0.00101543 0.00000000 0.00190702 0.00000000 0.02595543)
(0.02560049 -0.00098385 0.00000000 0.00184674 0.00000000 0.02559107)
(0.02520829 -0.00097624 0.00000000 0.00178411 0.00000000 0.02511380)
(0.02469430 -0.00096127 0.00000000 0.00170698 0.00000000 0.02457541)
(0.02422650 -0.00096122 0.00000000 0.00162293 0.00000000 0.02392011)
(0.02377824 -0.00094829 0.00000000 0.00153432 0.00000000 0.02307080)
(0.02357064 -0.00094861 0.00000000 0.00146355 0.00000000 0.02226927)