# Wall shear stress    
# Time                 	patch                  	min                    	max                    
1.000000000000000e+04	bottomWall	(-1.069753228543901e-02 -4.705940162410136e-03 -3.874737280251700e-16)	(1.465543665425115e-03 2.276498421712368e-04 6.367937975304425e-16)
1.000000000000000e+04	topWall	(-4.181208981414370e-03 -1.228119614665326e-06 0.000000000000000e+00)	(-2.888083138118429e-03 6.615478222191170e-07 0.000000000000000e+00)
