0.999999999999999 	0.880775868191975 	1.04083408558608e-17 	-0.0230001147455098 	0.000198210312987627 	107.133080011884 	6.19417959666217e-06
0.999999999999999 	0.894941096829437 	1.04083408558608e-17 	-0.0231198958463822 	0.00140549145381946 	51.8018477257738 	4.922836688389e-05
0.999999999999999 	0.90955442230242 	-6.93889390390723e-18 	-0.0231773626411541 	0.00402394945310721 	26.1041508179895 	0.000141697967702572
0.999999999999999 	0.924630032536351 	-6.93889390390723e-18 	-0.023106370759707 	0.00629551035467572 	22.5144248364655 	0.000231318442717559
0.999999999999999 	0.940182565513481 	1.04083408558608e-17 	-0.0229797825750341 	0.00727561808608678 	19.374933079827 	0.000310630286819093
0.999999999999999 	0.956227123601831 	1.38777878078145e-17 	-0.0228460197776961 	0.00723941408559443 	15.5665480291114 	0.000401111530894836
0.999999999999999 	0.97277928834366 	2.08166817117217e-17 	-0.0227192231171925 	0.00671235520468033 	11.835582032576 	0.000521275387141496
0.999999999999999 	0.989855135718411 	1.04083408558608e-17 	-0.0226120437411528 	0.00610798314838561 	8.71518329038894 	0.000689999859066673
0.999999999999999 	1.00747125189554 	-1.38777878078145e-17 	-0.0225330121254041 	0.00563318085347215 	6.37673427365641 	0.000910577526557081
0.999999999999999 	1.02564474949325 	-3.12250225675825e-17 	-0.0224786560191145 	0.00533216673755779 	4.75674096305723 	0.00116586696360838
0.999999999999999 	1.04439328435952 	-3.81639164714898e-17 	-0.022435943276026 	0.00516827776894857 	3.68810705173676 	0.00144692199838089
0.999999999999999 	1.06373507289258 	-3.12250225675825e-17 	-0.022392122739812 	0.00508421868009229 	2.9948318866087 	0.00173610379834344
0.999999999999999 	1.08368890991839 	-2.77555756156289e-17 	-0.022337170521844 	0.00503347412450438 	2.53516173579185 	0.00201441538783121
0.999999999999999 	1.10427418714335 	-3.46944695195361e-17 	-0.0222617630333139 	0.00498924659281514 	2.2112940816415 	0.00227589409890314
0.999999999999999 	1.12551091220101 	-4.16333634234434e-17 	-0.0221606063114702 	0.00494043478813927 	1.9647001614481 	0.00252244401079954
0.999999999999999 	1.14741972831235 	-4.5102810375397e-17 	-0.0220334266989727 	0.00488459768642674 	1.7648471487966 	0.00276078896003029
0.999999999999999 	1.1700219345796 	-4.85722573273506e-17 	-0.0218814182179341 	0.00482266822130085 	1.59741705877255 	0.00299841129730241
0.999999999999999 	1.19333950693448 	-4.5102810375397e-17 	-0.0217055341668601 	0.0047559712454241 	1.45576855717847 	0.00323637924645402
0.999999999999999 	1.21739511976241 	-4.16333634234434e-17 	-0.0215063986900367 	0.0046850297354827 	1.33605366057208 	0.00346997321071777
0.999999999999999 	1.24221216822474 	-4.16333634234434e-17 	-0.0212840416295527 	0.00460935713959785 	1.23505764638628 	0.00369170836376041
0.999999999999999 	1.26781479130218 	-4.16333634234434e-17 	-0.0210379110989592 	0.00452766878948242 	1.14961456190498 	0.00389389308316016
0.999999999999999 	1.29422789558304 	-4.16333634234434e-17 	-0.0207672015538896 	0.0044381817671316 	1.07669468979593 	0.00407052126675525
0.999999999999999 	1.32147717982098 	-4.16333634234434e-17 	-0.0204711310713039 	0.00433884961729036 	1.01362198799872 	0.00421806486167758
0.999999999999999 	1.34958916028758 	-5.20417042793042e-17 	-0.0201493312009308 	0.00422751551206512 	0.958199016235681 	0.00433483608988564
0.999999999999999 	1.37859119694611 	-5.89805981832114e-17 	-0.0198023265990723 	0.00410193882601137 	0.908695402406709 	0.00441435720821001
0.999999999999998 	1.40851152047363 	-5.20417042793042e-17 	-0.019430785527434 	0.00395969819559414 	0.863736049755397 	0.00444595866982552
0.999999999999999 	1.43937926015957 	-4.16333634234434e-17 	-0.019034272853611 	0.00379825100867604 	0.822203473732191 	0.00443011023602293
0.999999999999999 	1.47122447270986 	-3.46944695195361e-17 	-0.0186117624351362 	0.00361514941664531 	0.783194955888755 	0.00437155393579329
0.999999999999999 	1.50407817198677 	-3.46944695195361e-17 	-0.0181626510916858 	0.00340822642807658 	0.745985988374519 	0.00427172983979597
0.999999999999999 	1.52234513135326 	-3.55618312575245e-17 	-0.0179090073089497 	0.00328728732895223 	0.726125315647311 	0.0042041822569625
0.999999999999999 	1.53954737489468 	-2.86229373536173e-17 	-0.0176638682365172 	0.00316471838531511 	0.708476096827934 	0.00412406116821367
0.999999999999999 	1.57291193480148 	-2.08166817117217e-17 	-0.0171820921049471 	0.00291898105206694 	0.675638719348565 	0.0039552315231218
0.999999999999999 	1.60896703281042 	-1.73472347597681e-17 	-0.0166481815872783 	0.00264128055215064 	0.643254386921748 	0.00375498645960321
0.999999999999999 	1.64616472706984 	3.46944695195361e-18 	-0.0160834278909419 	0.00235007610737368 	0.613278239599829 	0.0035460584346445
0.999999999999999 	1.6845413239966 	1.73472347597681e-17 	-0.0154879097394018 	0.00205263404031813 	0.585015863156261 	0.00332311090537369
0.999999999999999 	1.72413428971649 	6.93889390390723e-18 	-0.0148629836720408 	0.00175430173155509 	0.557026024644435 	0.00306012948159918
0.999999999999999 	1.76498228747899 	6.93889390390723e-18 	-0.0142102696539436 	0.0014591133990007 	0.527785060326926 	0.0027356016846282
0.999999999999999 	1.80712521630116 	2.77555756156289e-17 	-0.0135315882393684 	0.00117167887437609 	0.496149615237287 	0.0023464197343907
0.999999999999999 	1.85060425088227 	4.85722573273506e-17 	-0.0128287233489164 	0.000898562060266205 	0.461466556244951 	0.00192934238390883
0.999999999999999 	1.89546188283233 	5.89805981832114e-17 	-0.0121032556982192 	0.000648273156336193 	0.423370905139138 	0.00151051818352716
0.999999999999999 	1.94174196325911 	5.89805981832114e-17 	-0.0113568254727414 	0.000430723850012454 	0.381755547927018 	0.00110527718630429
0.999999999999999 	1.98948974675983 	5.55111512312578e-17 	-0.0105913823246627 	0.000256741003681249 	0.337998926158241 	0.000737259604626843
0.999999999999999 	2.03875193686545 	5.89805981832114e-17 	-0.00980909913200021 	0.000134631517166452 	0.296717520930208 	0.00043748683863652
0.999999999999999 	2.08957673298707 	6.93889390390723e-17 	-0.00901164316592513 	6.33440079068671e-05 	0.264034823341243 	0.000232225364187275
0.999999999999999 	2.14201387891577 	7.28583859910259e-17 	-0.00820043019288149 	3.00030062478423e-05 	0.242343584225489 	0.000121493207462465
0.999999999999999 	2.19611471292907 	6.93889390390723e-17 	-0.00737778248918176 	1.70951814589238e-05 	0.228735557669906 	7.41366451819731e-05
0.999999999999999 	2.25193221955915 	6.93889390390723e-17 	-0.00654653405303175 	1.17638824371314e-05 	0.21882974419551 	5.34828929458958e-05
0.999999999999999 	2.30952108307971 	6.93889390390723e-17 	-0.00570881239238173 	8.51060478678826e-06 	0.210014384881764 	4.03218512925649e-05
1 	2.36893774277075 	6.59194920871187e-17 	-0.00486582431032228 	6.22093887163137e-06 	0.20155169785882 	3.07289425367672e-05
1 	2.4302404500224 	5.89805981832114e-17 	-0.00401851687822987 	4.70350626931661e-06 	0.193453137591917 	2.42212351448684e-05
0.999999999999999 	2.49348932734119 	5.89805981832114e-17 	-0.00316780689311733 	3.59736293995214e-06 	0.185727489226546 	1.92927191926617e-05
0.999999999999999 	2.55874642932458 	5.89805981832114e-17 	-0.00231451046352542 	2.71822319410772e-06 	0.178293726952205 	1.51871170588332e-05
0.999999999999999 	2.62607580567171 	5.89805981832114e-17 	-0.00145934053544539 	2.1080789382436e-06 	0.171127144720981 	1.22827361434382e-05
0.999999999999999 	2.69554356630109 	5.89805981832114e-17 	-0.000603230551419777 	1.72408709007476e-06 	0.164237110190471 	1.04746794396906e-05
0.999999999999999 	2.7672179486481 	5.89805981832114e-17 	0.000253094892231989 	1.44950730253936e-06 	0.15759498850597 	9.17883440977239e-06
0.999999999999999 	2.84116938721823 	5.55111512312578e-17 	0.00110896421468674 	1.20405884564545e-06 	0.151179826788174 	7.94387841479363e-06
0.999999999999999 	2.91747058547449 	5.55111512312578e-17 	0.00196357745110486 	9.56074759890867e-07 	0.14499070887561 	6.57343122825615e-06
0.999999999999999 	2.9961965901403 	6.24500451351651e-17 	0.00281613135052672 	7.59204857263508e-07 	0.139012802577108 	5.450079417544e-06
0.999999999999999 	3.07742486800218 	6.93889390390723e-17 	0.00366591839231042 	6.62116340510358e-07 	0.133220788551018 	4.96531511404819e-06
0.999999999999999 	3.16123538529956 	6.93889390390723e-17 	0.00451229834783824 	5.87359357888621e-07 	0.127594629435989 	4.59670338120904e-06
0.999999999999999 	3.24771068979223 	5.89805981832114e-17 	0.00535472152375128 	4.99236419832502e-07 	0.122144260585667 	4.07911172636069e-06
0.999999999999999 	3.3369359955993 	4.5102810375397e-17 	0.00619236948051957 	4.0915845193984e-07 	0.116905003263924 	3.49155504890733e-06
0.999999999999999 	3.42899927090673 	3.81639164714898e-17 	0.00702450666523956 	3.2783179757347e-07 	0.11188382474992 	2.92354486170922e-06
0.999999999999999 	3.5239913286443 	4.5102810375397e-17 	0.00785001244602389 	2.78647470595074e-07 	0.107015383381798 	2.60273360420356e-06
0.999999999999999 	3.62200592023644 	4.85722573273506e-17 	0.00866910177148428 	2.76799592900911e-07 	0.102273568132739 	2.70916256434566e-06
0.999999999999999 	3.72313983253489 	5.3776427755281e-17 	0.0094806157286793 	2.77777453409313e-07 	0.0977168261919382 	2.84161351809238e-06
0.999999999999999 	3.82749298804563 	6.59194920871187e-17 	0.0102838199173341 	2.37756249392158e-07 	0.0933719584711104 	2.54134138016068e-06
0.999999999999999 	3.93516854856588 	6.76542155630955e-17 	0.0110786191933575 	1.93539489851445e-07 	0.0892733959300554 	2.1654073511002e-06
0.999999999999999 	4.04627302235185 	6.76542155630955e-17 	0.0118631439447659 	1.73970485234539e-07 	0.0854235528765002 	2.03345976978221e-06
0.999999999999999 	4.16091637494181 	7.11236625150491e-17 	0.012637995414442 	1.30354795475595e-07 	0.0817898887610292 	1.59056490933177e-06
0.999999999999999 	4.27921214376366 	7.28583859910259e-17 	0.0134012920568382 	1.20472728582162e-07 	0.0783927463119749 	1.53856586802936e-06
0.999999999999999 	4.40127755666103 	8.15320033709099e-17 	0.014153798138175 	1.37973759639229e-07 	0.0753105395641882 	1.83245222347579e-06
0.999999999999999 	4.52723365447654 	8.84708972748172e-17 	0.0148933188573833 	1.08506951450127e-07 	0.0726420988044537 	1.48981942187606e-06
0.999999999999999 	4.65720541783578 	8.84708972748172e-17 	0.0156201923978068 	5.46451344607845e-08 	0.0704014856147265 	7.72875998955922e-07
0.999999999999999 	4.79132189828101 	8.32667268468867e-17 	0.0163339513749712 	2.62262372076699e-08 	0.0685932199578974 	3.81526190709155e-07
0.999999999999999 	4.92971635390864 	8.32667268468867e-17 	0.0170319104639067 	2.62029987301195e-08 	0.0673087627168471 	3.89374068888302e-07
