0.999999999999999 	0.880775868191975 	1.04083408558608e-17 	-0.0231809579552361 	0.00534322585515341 	9.71729390247146e-19
0.999999999999999 	0.894941096829437 	1.04083408558608e-17 	0.0028333748036636 	0.0042398031008654 	2.36606017542733e-18
0.999999999999999 	0.90955442230242 	-6.93889390390723e-18 	0.113891984544926 	-0.012082201359469 	3.10383007528829e-19
0.999999999999999 	0.924630032536351 	-6.93889390390723e-18 	0.249901406325024 	-0.0314906164799674 	-8.80846154576263e-22
0.999999999999999 	0.940182565513481 	1.04083408558608e-17 	0.378753621041328 	-0.0473294053544598 	-1.56449337815666e-17
0.999999999999999 	0.956227123601831 	1.38777878078145e-17 	0.486870968155573 	-0.0584391257815989 	1.09168340290671e-17
0.999999999999999 	0.97277928834366 	2.08166817117217e-17 	0.570347964979873 	-0.06539053043137 	6.0158599839925e-17
0.999999999999999 	0.989855135718411 	1.04083408558608e-17 	0.631592566874615 	-0.0692991009126395 	-2.14163466994503e-17
0.999999999999999 	1.00747125189554 	-1.38777878078145e-17 	0.67563838917521 	-0.0712825933524754 	-2.48173138042423e-17
0.999999999999999 	1.02564474949325 	-3.12250225675825e-17 	0.707725618373025 	-0.0722003290109465 	-1.69351758431833e-19
0.999999999999999 	1.04439328435952 	-3.81639164714898e-17 	0.732105386758732 	-0.0725941799934266 	1.02518237640762e-20
0.999999999999999 	1.06373507289258 	-3.12250225675825e-17 	0.751746166495182 	-0.0727461716714852 	-1.26812789905539e-21
0.999999999999999 	1.08368890991839 	-2.77555756156289e-17 	0.768517513619934 	-0.0727677983132384 	-1.13446806010538e-20
0.999999999999999 	1.10427418714335 	-3.46944695195361e-17 	0.783479815912579 	-0.0726863325050314 	-5.30752611598177e-20
0.999999999999999 	1.12551091220101 	-4.16333634234434e-17 	0.797180886351321 	-0.0725009746397216 	2.61760092055801e-20
0.999999999999999 	1.14741972831235 	-4.5102810375397e-17 	0.809898670842549 	-0.0722096271725705 	8.56921072826048e-20
0.999999999999999 	1.1700219345796 	-4.85722573273506e-17 	0.821786954114214 	-0.0718199998106534 	6.91700304927887e-20
0.999999999999999 	1.19333950693448 	-4.5102810375397e-17 	0.832953856160654 	-0.0713486951790575 	-2.37111627593807e-20
0.999999999999999 	1.21739511976241 	-4.16333634234434e-17 	0.843500992949036 	-0.0708154849625248 	-6.98472253739663e-20
0.999999999999999 	1.24221216822474 	-4.16333634234434e-17 	0.853533539774828 	-0.0702388815824228 	9.8889655572048e-21
0.999999999999999 	1.26781479130218 	-4.16333634234434e-17 	0.86315554098913 	-0.0696334770248674 	3.57436183953592e-20
0.999999999999999 	1.29422789558304 	-4.16333634234434e-17 	0.872462036720358 	-0.0690092251859109 	-3.29738417111511e-20
0.999999999999999 	1.32147717982098 	-4.16333634234434e-17 	0.881533445895286 	-0.0683721107491331 	-3.09771760130874e-20
0.999999999999999 	1.34958916028758 	-5.20417042793042e-17 	0.89043289022164 	-0.0677255884071339 	2.30249259103871e-21
0.999999999999999 	1.37859119694611 	-5.89805981832114e-17 	0.899208880639534 	-0.0670722484264941 	1.81674001693255e-20
0.999999999999998 	1.40851152047363 	-5.20417042793042e-17 	0.907903756786103 	-0.0664144152293217 	4.4656351702486e-21
0.999999999999999 	1.43937926015957 	-4.16333634234434e-17 	0.91655419259497 	-0.065754421031556 	-1.06580529426692e-20
0.999999999999999 	1.47122447270986 	-3.46944695195361e-17 	0.925183801618551 	-0.065094231702807 	-1.0160590175107e-20
0.999999999999999 	1.50407817198677 	-3.46944695195361e-17 	0.933800883221238 	-0.0644346179742861 	1.1098502728311e-20
0.999999999999999 	1.52234513135326 	-3.55618312575245e-17 	0.938501910028761 	-0.0640746555582744 	2.01699664474854e-20
0.999999999999999 	1.53954737489468 	-2.86229373536173e-17 	0.942795808246224 	-0.063744998902798 	9.52955615006679e-21
0.999999999999999 	1.57291193480148 	-2.08166817117217e-17 	0.950963710360803 	-0.0631155062970586 	-1.05233404043122e-22
0.999999999999999 	1.60896703281042 	-1.73472347597681e-17 	0.959447227800187 	-0.0624529966634627 	9.82532399415412e-21
0.999999999999999 	1.64616472706984 	3.46944695195361e-18 	0.967774070261206 	-0.0617842945135033 	2.0916480592948e-20
0.999999999999999 	1.6845413239966 	1.73472347597681e-17 	0.975837951068178 	-0.0611053986860206 	1.10789338989365e-20
0.999999999999999 	1.72413428971649 	6.93889390390723e-18 	0.983526265656271 	-0.0604121066252367 	-2.19297967983537e-20
0.999999999999999 	1.76498228747899 	6.93889390390723e-18 	0.990736780246106 	-0.0597016889924778 	-3.34744318294492e-20
0.999999999999999 	1.80712521630116 	2.77555756156289e-17 	0.997374885519997 	-0.0589731357196459 	1.92470201475843e-20
0.999999999999999 	1.85060425088227 	4.85722573273506e-17 	1.00333676190402 	-0.0582262375659707 	3.84508940771915e-20
0.999999999999999 	1.89546188283233 	5.89805981832114e-17 	1.008493103276 	-0.0574598567621944 	-3.7741705931896e-20
0.999999999999999 	1.94174196325911 	5.89805981832114e-17 	1.01267590580097 	-0.0566686551332543 	-3.38146978472568e-20
0.999999999999999 	1.98948974675983 	5.55111512312578e-17 	1.01567545943111 	-0.0558452241977025 	-5.45339838353253e-21
0.999999999999999 	2.03875193686545 	5.89805981832114e-17 	1.01733344419733 	-0.0549887840599094 	2.45910586424101e-20
0.999999999999999 	2.08957673298707 	6.93889390390723e-17 	1.01773591530424 	-0.0541090191191682 	1.23535064102169e-20
0.999999999999999 	2.14201387891577 	7.28583859910259e-17 	1.0172702247374 	-0.0532182282433139 	6.38328349020617e-21
0.999999999999999 	2.19611471292907 	6.93889390390723e-17 	1.01639983579576 	-0.0523241904644251 	-2.55907479399749e-20
0.999999999999999 	2.25193221955915 	6.93889390390723e-17 	1.0154161015285 	-0.0514322264813105 	-3.32641862199931e-21
0.999999999999999 	2.30952108307971 	6.93889390390723e-17 	1.01442084619895 	-0.0505478193381011 	1.63271177654385e-20
1 	2.36893774277075 	6.59194920871187e-17 	1.01343502015138 	-0.0496741723192188 	1.23876494202281e-20
1 	2.4302404500224 	5.89805981832114e-17 	1.01245729253004 	-0.0488114676182185 	-1.31218521649117e-21
0.999999999999999 	2.49348932734119 	5.89805981832114e-17 	1.01148240611988 	-0.0479591777708115 	-8.63489148812298e-21
0.999999999999999 	2.55874642932458 	5.89805981832114e-17 	1.01051744512887 	-0.0471171141501293 	-3.29427920359436e-21
0.999999999999999 	2.62607580567171 	5.89805981832114e-17 	1.00957169488844 	-0.0462836769230016 	3.56202210087387e-22
0.999999999999999 	2.69554356630109 	5.89805981832114e-17 	1.00863435362676 	-0.0454575615135962 	1.41986740194e-21
0.999999999999999 	2.7672179486481 	5.89805981832114e-17 	1.00770402117263 	-0.0446387861235934 	-1.61511755225354e-21
0.999999999999999 	2.84116938721823 	5.55111512312578e-17 	1.00679588977998 	-0.0438264786884424 	-1.64091219198821e-21
0.999999999999999 	2.91747058547449 	5.55111512312578e-17 	1.00590572965935 	-0.04301849280174 	-1.06373456815625e-21
0.999999999999999 	2.9961965901403 	6.24500451351651e-17 	1.00501172342262 	-0.0422139941806417 	3.16907333951109e-21
0.999999999999999 	3.07742486800218 	6.93889390390723e-17 	1.00410643319202 	-0.0414120311313465 	1.28095238645362e-21
0.999999999999999 	3.16123538529956 	6.93889390390723e-17 	1.00322097886505 	-0.0406139008067859 	4.14709251007043e-22
0.999999999999999 	3.24771068979223 	5.89805981832114e-17 	1.00239391191783 	-0.0398178383971531 	-1.74948040459752e-22
0.999999999999999 	3.3369359955993 	4.5102810375397e-17 	1.00161325121913 	-0.0390230605921795 	1.44652352751602e-21
0.999999999999999 	3.42899927090673 	3.81639164714898e-17 	1.00081167833305 	-0.0382250801613713 	9.20945692238933e-21
0.999999999999999 	3.5239913286443 	4.5102810375397e-17 	0.999941014292613 	-0.0374258158487799 	-9.30777856920707e-21
0.999999999999999 	3.62200592023644 	4.85722573273506e-17 	0.999110186038545 	-0.0366265533714359 	-1.44667256436562e-21
0.999999999999999 	3.72313983253489 	5.3776427755281e-17 	0.998366505646018 	-0.035825313446422 	-4.07595612745045e-22
0.999999999999999 	3.82749298804563 	6.59194920871187e-17 	0.997699636403386 	-0.0350237250112798 	-1.90159893115304e-21
0.999999999999999 	3.93516854856588 	6.76542155630955e-17 	0.997081261734367 	-0.0342176307917948 	8.93033151918166e-22
0.999999999999999 	4.04627302235185 	6.76542155630955e-17 	0.996378669578328 	-0.0334052087777076 	1.16581402477106e-21
0.999999999999999 	4.16091637494181 	7.11236625150491e-17 	0.995631052445398 	-0.0325852959736942 	-1.54972990454216e-21
0.999999999999999 	4.27921214376366 	7.28583859910259e-17 	0.994924536373393 	-0.0317630374752945 	-2.9764328941662e-22
0.999999999999999 	4.40127755666103 	8.15320033709099e-17 	0.994360858903488 	-0.0309336788935943 	2.66981986155146e-21
0.999999999999999 	4.52723365447654 	8.84708972748172e-17 	0.993870723897911 	-0.0301054406691462 	-3.46917032921925e-21
0.999999999999999 	4.65720541783578 	8.84708972748172e-17 	0.993262265820544 	-0.0292581615934112 	-9.89958925871765e-22
0.999999999999999 	4.79132189828101 	8.32667268468867e-17 	0.992618811359352 	-0.0284091541402182 	-8.08326579615089e-23
0.999999999999999 	4.92971635390864 	8.32667268468867e-17 	0.992056882688576 	-0.0275492726882223 	-2.24771572931631e-22
