8.00000000000001 	0.451351320085767 	2.08166817117217e-17 	0.0130706588599443 	0.00983112911244809 	-4.97964555884516e-18
8.00000000000001 	0.457856873246257 	2.94902990916057e-17 	0.0380671664715217 	0.0288374326423661 	8.30393693248485e-18
8.00000000000001 	0.464597479451394 	3.64291929955129e-17 	0.0619610319542425 	0.0463396364296579 	-4.5414581398408e-18
8.00000000000001 	0.471581513951584 	3.81639164714898e-17 	0.0830809420373397 	0.0610704751030806 	6.62709111979944e-18
8.00000000000001 	0.478817642139252 	3.98986399474666e-17 	0.0990930276931956 	0.0714737404173158 	-6.48797754624079e-17
8.00000000000001 	0.486314829032019 	3.81639164714898e-17 	0.110263689386182 	0.0779618619178731 	-8.30431803928606e-16
8.00000000000001 	0.494082349028339 	3.64291929955129e-17 	0.11847435488357 	0.0820371989709258 	5.2395789248267e-16
8.00000000000001 	0.502129795941067 	3.81639164714898e-17 	0.125135715789549 	0.0847879047271748 	3.88912129581959e-17
8.00000000000001 	0.51046709331448 	3.46944695195361e-17 	0.130982686809873 	0.0867861351715915 	1.07695587701018e-18
8.00000000000001 	0.51910450503017 	2.42861286636753e-17 	0.13638477558295 	0.0883224197942722 	-3.76117833671904e-20
8.00000000000001 	0.528052646207228 	1.38777878078145e-17 	0.141541381706575 	0.0895515598798155 	-7.79295322329698e-19
8.00000000000001 	0.537322494402097 	4.33680868994202e-18 	0.146569605495452 	0.0905615125605091 	-6.73381651290319e-19
8.00000000000001 	0.546925401113448 	1.04083408558608e-17 	0.151543597745909 	0.0914053121434622 	1.84233916094979e-20
8.00000000000001 	0.556873103597323 	1.38777878078145e-17 	0.156513509291741 	0.09211640677464 	1.29726759022682e-17
8.00000000000001 	0.56717773699781 	6.93889390390723e-18 	0.161515302270832 	0.0927164831369242 	1.46266756107489e-16
8.00000000000001 	0.577851846798427 	3.46944695195361e-18 	0.166576149009953 	0.0932197307669547 	-1.30675712186901e-16
8.00000000000001 	0.58890840159931 	2.60208521396521e-18 	0.171717553966776 	0.0936353302742335 	1.21039576730667e-16
8.00000000000001 	0.600360806225301 	2.60208521396521e-18 	0.176957226425439 	0.0939690337444753 	-1.25378371259411e-16
8.00000000000001 	0.612222915169969 	6.07153216591882e-18 	0.182310387589571 	0.0942240079939899 	-5.43095589665574e-18
8.00000000000001 	0.624509046380488 	1.25767452008319e-17 	0.187791246746479 	0.0944002694853163 	1.44039860169864e-20
8.00000000000001 	0.637233995388331 	1.21430643318376e-17 	0.193414034830267 	0.0944940095217825 	-2.67263664802392e-22
8.00000000000001 	0.650413049790703 	9.75781955236954e-18 	0.199188029094385 	0.0945113714166365 	3.70187636341581e-19
8.00000000000001 	0.664062004087551 	5.74627151417317e-18 	0.20515604800829 	0.0944762216399142 	-3.81764725506121e-21
8.00000000000001 	0.678197174879094 	-1.05709711817337e-18 	0.211449092227128 	0.094416923362842 	-3.93123802850214e-19
8.00000000000001 	0.692835416428737 	1.65340831304039e-18 	0.21819302295118 	0.0943663927783596 	-2.75012763684596e-21
8.00000000000001 	0.707994136596352 	3.46944695195361e-18 	0.225433045156968 	0.0943485796955899 	3.99627665949382e-19
8.00000000000001 	0.723691313146993 	0 	0.233184173410542 	0.094346146963736 	-3.90313148993136e-19
8.00000000000001 	0.739945510440158 	0 	0.241482652174372 	0.0943514579596832 	8.75462662355255e-21
8.00000000000001 	0.756775896504949 	6.93889390390723e-18 	0.250361982875157 	0.0943591507782077 	-2.31361815955789e-18
8.00000000000001 	0.774202260506676 	1.38777878078145e-17 	0.259854154361058 	0.0943632977227064 	-1.1446739510888e-16
8.00000000000001 	0.792245030610706 	1.38777878078145e-17 	0.269990021217536 	0.0943570866436826 	1.18495396869973e-16
8.00000000000001 	0.81092529224968 	1.38777878078145e-17 	0.280798543495323 	0.0943332457398712 	4.22937964767094e-18
8.00000000000001 	0.830264806800701 	1.04083408558608e-17 	0.292305850867419 	0.0942841619655377 	-3.80373560765854e-19
8.00000000000001 	0.850286030679543 	6.93889390390723e-18 	0.304534326528934 	0.0942018711626138 	1.93841968107505e-20
8.00000000000001 	0.871012134859544 	1.04083408558608e-17 	0.317501698186417 	0.0940780682057549 	2.1330831927201e-20
8.00000000000001 	0.892467024823553 	1.38777878078145e-17 	0.331220204097987 	0.0939041405388801 	7.69136138651028e-18
8.00000000000001 	0.914675360958128 	1.38777878078145e-17 	0.345695922575411 	0.0936712278690254 	9.39272217825676e-17
8.00000000000001 	0.937662579400178 	1.04083408558608e-17 	0.360928317643023 	0.0933703276328785 	-9.57220395964906e-17
8.00000000000001 	0.961454913347285 	6.93889390390723e-18 	0.37691000182897 	0.0929924612500741 	-1.03772087925948e-17
8.00000000000001 	0.986079414844267 	6.93889390390723e-18 	0.393626658805755 	0.09252890281127 	-3.804875962499e-20
8.00000000000001 	1.01156397705998 	3.46944695195361e-18 	0.411057015482601 	0.0919714566648193 	-2.39865608110475e-19
8.00000000000001 	1.03793735707002 	6.93889390390723e-18 	0.429172723467835 	0.0913127557266012 	-4.16095814432707e-20
8.00000000000001 	1.06522919916276 	1.38777878078145e-17 	0.44793801818536 	0.0905465419008717 	-2.39429463529856e-19
8.00000000000001 	1.09347005868838 	1.38777878078145e-17 	0.467309075267595 	0.0896678875169433 	1.28415261551755e-19
8.00000000000001 	1.12269142647271 	1.04083408558608e-17 	0.487233072897981 	0.0886733240556731 	1.05340838313811e-19
8.00000000000001 	1.15292575382044 	6.93889390390723e-18 	0.507647082104852 	0.0875608608577582 	1.0777644193207e-19
8.00000000000001 	1.18420647813503 	0 	0.528477024635261 	0.0863298984211637 	9.7908414639851e-20
8.00000000000001 	1.20932531196161 	-6.07153216591882e-18 	0.54494929602501 	0.0852910532875088 	1.87896056255742e-20
8.00000000000001 	1.22578237804945 	-2.60208521396521e-18 	0.555599350675089 	0.0845878754992019 	-3.47203166344321e-20
8.00000000000001 	1.25005302673103 	6.93889390390723e-18 	0.57103032544859 	0.0835205625149398 	-2.6009460973172e-20
8.00000000000001 	1.2846908407945 	1.38777878078145e-17 	0.592554022005839 	0.0819461831384023 	-7.73170833110613e-20
8.00000000000001 	1.32051850690298 	6.93889390390723e-18 	0.614093357774161 	0.080260817983688 	-2.09380913105389e-19
8.00000000000001 	1.35757474531362 	-3.46944695195361e-18 	0.63552924468693 	0.0784682868000337 	2.65863031759575e-20
8.00000000000001 	1.39589943005584 	-1.38777878078145e-17 	0.656743150792367 	0.0765730294272522 	2.22958248107098e-19
8.00000000000001 	1.4355336202201 	-2.25514051876985e-17 	0.677622566231203 	0.0745801661450514 	2.87323143735808e-20
8.00000000000001 	1.47651959226838 	-2.77555756156289e-17 	0.69806640712833 	0.0724956072543909 	-9.944984132198e-20
8.00000000000001 	1.51890087343823 	-3.98986399474666e-17 	0.717989602813084 	0.0703261818209033 	2.75775672131975e-21
8.00000000000001 	1.56272227631925 	-4.5102810375397e-17 	0.737326170572773 	0.0680797490946859 	1.16545589261942e-19
8.00000000000001 	1.60802993468758 	-4.42354486374086e-17 	0.756030279402698 	0.0657652645313686 	-2.2971176190499e-19
8.00000000000001 	1.65487134069167 	-4.42354486374086e-17 	0.774075209541355 	0.0633928000044791 	1.47557692000869e-19
8.00000000000001 	1.70329538349001 	-5.07406616723216e-17 	0.791450883687536 	0.0609735494707555 	-8.08612717830722e-20
8.00000000000001 	1.75335238944996 	-6.41847686111419e-17 	0.808161839436381 	0.058519780537265 	-2.30533498727127e-20
8.00000000000001 	1.80509416402519 	-6.20163642661709e-17 	0.824225129519727 	0.0560404309047981 	4.41109591411821e-20
8.00000000000001 	1.85857403543787 	-5.89805981832114e-17 	0.839674198776105 	0.0535409124091252 	6.61857386541265e-23
8.00000000000001 	1.91384690030122 	-6.24500451351651e-17 	0.854570578492323 	0.0510503503010552 	-2.00375829425345e-20
8.00000000000001 	1.97096927132689 	-6.93889390390723e-17 	0.869127093886218 	0.0485493941388352 	-3.29505295887929e-20
8.00000000000001 	2.04004996790234 	-7.63278329429795e-17 	0.885300305471557 	0.0456349306833065 	-8.9429145511433e-22
8.00000000000001 	2.11873460271874 	-7.63278329429795e-17 	0.901961423283921 	0.0426100352795578 	0
8.00000000000001 	2.19463865000285 	-7.63278329429795e-17 	0.916917203659696 	0.0397816931262606 	0
8.00000000000001 	2.26786037121375 	-7.63278329429795e-17 	0.930176978667519 	0.0372142820593864 	0
8.00000000000001 	2.33849455540975 	-7.63278329429795e-17 	0.941815071396403 	0.0349072291857539 	0
8.00000000000001 	2.40663264195737 	-8.32667268468867e-17 	0.951857481548774 	0.0328626887727045 	0
8.00000000000002 	2.47236283890404 	-9.0205620750794e-17 	0.960565687963344 	0.0310172633934226 	0
8.00000000000002 	2.5357702371677 	-9.71445146547012e-17 	0.968280642433161 	0.0293050865727672 	0
8.00000000000002 	2.59693692069108 	-1.04083408558608e-16 	0.97518937132254 	0.0277053133926793 	0
8.00000000000002 	2.65594207270333 	-1.04083408558608e-16 	0.981406256251865 	0.0262218580587034 	0
8.00000000000002 	2.71286207822658 	-1.04083408558608e-16 	0.987013315012667 	0.0248477574168503 	0
8.00000000000002 	2.76777062296 	-1.04083408558608e-16 	0.992072015573695 	0.0235752643283002 	0
8.00000000000002 	2.8207387886695 	-1.04083408558608e-16 	0.996629559386919 	0.0223963409745422 	0
8.00000000000002 	2.87183514520655 	-1.04083408558608e-16 	1.00072333682737 	0.0213027603435682 	0
8.00000000000002 	2.92112583927514 	-1.04083408558608e-16 	1.00438386720069 	0.0202865176463162 	0
8.00000000000002 	2.9686746800619 	-1.04083408558608e-16 	1.00763659479224 	0.0193400972381482 	0
