2 	0.204239703047747 	2.08166817117217e-17 	-0.0122771739763658 	0.00537629454090244 	8.99150611171258e-19
2 	0.209215445626134 	1.38777878078145e-17 	-0.0368132496057575 	0.0161770986376497 	8.72104256010329e-18
2 	0.214371643686243 	1.21430643318376e-17 	-0.0615264875902048 	0.0271559869470474 	-9.66001523080065e-18
2 	0.219714773355171 	1.21430643318376e-17 	-0.086143707086474 	0.0382069440615705 	-1.12923899607924e-17
2 	0.225251538117274 	1.56125112837913e-17 	-0.109838140992004 	0.0489703630537372 	-2.75878641394041e-18
2 	0.230988876422674 	1.38777878078145e-17 	-0.131143677234975 	0.058796634188522 	-2.31502055901675e-19
2 	0.236933969522678 	1.04083408558608e-17 	-0.148566866917209 	0.0670087313330759 	7.49938673750636e-18
2 	0.243094249536736 	8.67361737988404e-18 	-0.1615383876793 	0.0733258208518338 	-1.04726281882989e-16
2 	0.249477407755551 	1.73472347597681e-18 	-0.170521890069236 	0.0779276011915535 	-8.71644609641312e-16
2 	0.256091403184792 	-1.73472347597681e-18 	-0.176419826444149 	0.081199828702923 	6.41658965495566e-16
2 	0.262944471333784 	-1.73472347597681e-18 	-0.180084637550309 	0.083514747131747 	9.63765000210487e-17
2 	0.270045133253419 	0 	-0.182154039017006 	0.0851533150720526 	-2.07430643862164e-18
2 	0.277402204827315 	0 	-0.183062816716735 	0.086307943159509 	-8.20817518711465e-19
2 	0.285024806320119 	-1.73472347597681e-18 	-0.183098875732425 	0.0871064341245433 	1.75871169537961e-19
2 	0.292922372186588 	-5.20417042793042e-18 	-0.182452986429702 	0.087633721336192 	2.18240795586573e-19
2 	0.301104661144868 	-6.93889390390723e-18 	-0.181253207802297 	0.0879470022811261 	-1.41700137136429e-22
2 	0.309581766517083 	-1.04083408558608e-17 	-0.179586893472068 	0.0880854346404741 	-4.87067717498142e-22
2 	0.318364126840036 	-6.93889390390723e-18 	-0.177514478078328 	0.0880762163255838 	2.00872881477633e-21
2 	0.3274625367485 	-6.93889390390723e-18 	-0.175078152679599 	0.0879384111963141 	-1.28155262442886e-19
2 	0.336888158133131 	-1.04083408558608e-17 	-0.172307403050429 	0.0876853887397623 	-1.40930752341661e-19
2 	0.346652531574654 	-1.04083408558608e-17 	-0.169222605050769 	0.0873264048995352 	1.12744589812697e-19
2 	0.356767588055453 	-1.73472347597681e-17 	-0.165837391740189 	0.0868676408539515 	5.62491904223479e-19
2 	0.367245660949204 	-2.42861286636753e-17 	-0.162160221144031 	0.0863128911519179 	2.31172460925658e-19
2 	0.378099498288554 	-3.12250225675825e-17 	-0.158195402928157 	0.0856640181372487 	1.51586251212288e-20
2 	0.389342275310276 	-4.5102810375397e-17 	-0.153943738002546 	0.0849212448186541 	-3.35513785915339e-19
2 	0.400987607276593 	-5.55111512312578e-17 	-0.149402858551323 	0.0840833308306052 	1.15880354477599e-19
2 	0.413049562570635 	-5.55111512312578e-17 	-0.144567310223455 	0.0831476586839439 	2.25027239729687e-19
2 	0.425542676063153 	-5.89805981832114e-17 	-0.139428382723699 	0.0821102459237464 	2.52050251500428e-19
2 	0.438481962746717 	-5.89805981832114e-17 	-0.13397366256028 	0.0809656905739507 	-2.24818932230536e-19
2 	0.451882931632717 	-5.89805981832114e-17 	-0.128186246076604 	0.079707050770455 	-3.23390014663573e-19
2 	0.465761599905378 	-5.89805981832114e-17 	-0.122043505308666 	0.0783256536382579 	2.95720677179504e-17
2 	0.480134507325936 	-5.89805981832114e-17 	-0.11551523425193 	0.0768108219036305 	3.13990164919366e-17
2 	0.495018730878875 	-6.59194920871187e-17 	-0.10856090370792 	0.0751494971396036 	-2.9576226692086e-17
2 	0.505103866616217 	-7.11236625150491e-17 	-0.103738984264185 	0.0739742858704209 	-5.27240177821971e-17
2 	0.512958328548976 	-7.80625564189563e-17 	-0.0998952033376984 	0.073020666451548 	-2.13174478567394e-17
2 	0.52643874760892 	-8.67361737988404e-17 	-0.0931434714784043 	0.0713232339068074 	-2.12022794539663e-19
2 	0.543004266748957 	-1.00613961606655e-16 	-0.0845030373806283 	0.0691151577416101 	6.22718690716859e-17
2 	0.560154665728559 	-1.04083408558608e-16 	-0.0750587807188293 	0.0666727558033069 	8.30074755597013e-17
2 	0.577909799842719 	-1.00613961606655e-16 	-0.064601690484576 	0.0639597746193704 	-9.78508673501086e-17
2 	0.596290142031336 	-1.04083408558608e-16 	-0.052846079053439 	0.0609324686713263 	-5.81821255393904e-17
2 	0.615316798126349 	-1.00613961606655e-16 	-0.0394372463510244 	0.0575442343017569 	-4.72080885489619e-19
2 	0.635011522192281 	-9.71445146547012e-17 	-0.0239704475120889 	0.0537528229061422 	2.76911679848073e-19
2 	0.655396731937682 	-9.36750677027476e-17 	-0.00598634442658557 	0.0495226857468005 	3.55806538492109e-19
2 	0.676495524173076 	-8.67361737988404e-17 	0.0150544533267793 	0.0448249223179419 	-3.41095569642816e-19
2 	0.698331690289076 	-9.0205620750794e-17 	0.0397936745646043 	0.0396390762000739 	3.37598095786896e-17
2 	0.720929731726265 	-9.71445146547012e-17 	0.0690896083204329 	0.0339466957909901 	1.85826123785171e-16
2 	0.744314875406381 	-9.71445146547012e-17 	0.104614000519992 	0.0276576384271499 	-2.05444617393995e-16
2 	0.768513089092199 	-1.04083408558608e-16 	0.149009735337857 	0.020604843932256 	-2.86254303754856e-17
2 	0.793551096641308 	-1.14491749414469e-16 	0.204490015351876 	0.0128180728681815 	4.61523610854021e-19
2 	0.819456393116764 	-1.17961196366423e-16 	0.271360997859944 	0.00462083964792235 	-5.41679015349149e-19
2 	0.846257259715333 	-1.21430643318376e-16 	0.347814558402812 	-0.00343211283214341 	-5.30489817213713e-19
2 	0.873982778471785 	-1.17961196366423e-16 	0.431474417207042 	-0.0107736181486568 	5.8135489398214e-19
2 	0.902662846695427 	-1.07552855510562e-16 	0.52225560854786 	-0.0170050987885254 	6.22357342192867e-19
2 	0.932328191092801 	-1.11022302462516e-16 	0.621356099467497 	-0.0218654295734622 	-6.44305890599653e-19
2 	0.963010381528271 	-1.11022302462516e-16 	0.72722919821649 	-0.0249630609926393 	-6.6776285757337e-19
2 	0.994741844372037 	-1.11022302462516e-16 	0.834744894175437 	-0.0261521781056539 	6.87727388655937e-19
2 	1.02755587538303 	-1.21430643318376e-16 	0.935995536764843 	-0.0256419633320205 	-3.49004320112859e-19
2 	1.06148665207217 	-1.21430643318376e-16 	1.02267981410851 	-0.0240769758618215 	3.7610299973386e-19
2 	1.09656924548955 	-1.21647483752874e-16 	1.08960025453234 	-0.022280190488918 	3.41796791061411e-19
2 	1.13283963137755 	-1.21213802883879e-16 	1.13757828846076 	-0.0208302388015169 	-3.40493737494167e-19
2 	1.17033470063016 	-1.18394877235417e-16 	1.17168277435512 	-0.0198616086145779 	-5.06277741763597e-20
2 	1.20909226899779 	-1.17961196366423e-16 	1.19694804510287 	-0.0192930036277695 	-9.3479083797826e-21
2 	1.24915108597551 	-1.13624387676481e-16 	1.21696511276982 	-0.018987447394511 	-2.91744972174999e-20
2 	1.29055084281242 	-1.05818132034585e-16 	1.23398222788812 	-0.0187965896155739 	-4.55880164069621e-20
2 	1.3333321795791 	-1.11022302462516e-16 	1.24940350662161 	-0.0185934729584681 	2.00236197895982e-20
2 	1.37753669123035 	-1.196959198424e-16 	1.26354033522073 	-0.0182973485213026 	2.23654737475609e-21
2 	1.41220272459525 	-1.17961196366423e-16 	1.27410570452301 	-0.0179964824973348 	-1.7397344357924e-21
2 	1.43617694926587 	-1.17961196366423e-16 	1.28148029816385 	-0.0177149546238065 	0
2 	1.45930396367274 	-1.17961196366423e-16 	1.28793716144452 	-0.0174214096842176 	0
2 	1.48161370685419 	-1.14491749414469e-16 	1.29389571125354 	-0.0171108131219036 	0
2 	1.50313505985141 	-1.11022302462516e-16 	1.29938796941291 	-0.0167852960561045 	0
2 	1.52389588309639 	-1.11022302462516e-16 	1.3044428391396 	-0.016447810263563 	0
2 	1.54392305247858 	-1.09287578986539e-16 	1.30908667004505 	-0.016101319835041 	0
2 	1.56324249413704 	-1.11022302462516e-16 	1.3133435607294 	-0.0157483826493948 	0
2 	1.58187921802306 	-1.12757025938492e-16 	1.31723554908463 	-0.0153911957242103 	0
2 	1.5998573502768 	-1.09287578986539e-16 	1.32078275107375 	-0.0150316686715474 	0
2 	1.61720016445966 	-1.05818132034585e-16 	1.32400346891757 	-0.0146714615410265 	0
2 	1.63393011168312 	-9.8879238130678e-17 	1.3269142752046 	-0.014312009601869 	0
2 	1.65006884967274 	-9.71445146547012e-17 	1.32953007554759 	-0.0139545443644525 	0
2 	1.66563727080512 	-1.02348685082632e-16 	1.33186415149609 	-0.0136001119195645 	0
2 	1.68065552915415 	-1.04083408558608e-16 	1.33392818493638 	-0.0132495890059096 	0
2 	1.69514306658136 	-1.05818132034585e-16 	1.33573226456737 	-0.0129036973361769 	0
2 	1.70911863790442 	-1.07552855510562e-16 	1.3372848741877 	-0.0125630165136325 	0
2 	1.72260033517611 	-1.07552855510562e-16 	1.33859286152685 	-0.012227995666982 	0
2 	1.73560561110537 	-1.07552855510562e-16 	1.33966138525424 	-0.0118989638211117 	0
2 	1.74815130165068 	-1.09287578986539e-16 	1.34049383661516 	-0.01157613897209 	0
2 	1.76025364781503 	-1.11022302462516e-16 	1.34109173084484 	-0.0112596358145022 	0
2 	1.77192831667065 	-1.11022302462516e-16 	1.34145456204429 	-0.0109494720620218 	0
2 	1.78319042164084 	-1.11022302462516e-16 	1.34157961349064 	-0.0106455732998099 	0
2 	1.79405454206499 	-1.11022302462516e-16 	1.34146171331506 	-0.0103477763055421 	0
2 	1.80453474207227 	-1.11022302462516e-16 	1.34109292302813 	-0.0100558307732883 	0
2 	1.81464458878829 	-1.12757025938492e-16 	1.34046214343593 	-0.0097693993725895 	0
2 	1.82439716989841 	-1.17961196366423e-16 	1.33955461904025 	-0.00948805607826152 	0
2 	1.83380511059041 	-1.196959198424e-16 	1.33835131811572 	-0.00921128272277174 	0
2 	1.84288058989839 	-1.16226472890446e-16 	1.33682816154655 	-0.0089384637658345 	0
2 	1.8516353564691 	-1.14491749414469e-16 	1.33495506975676 	-0.00866887936628686 	0
2 	1.86008074377114 	-1.14491749414469e-16 	1.33269479482071 	-0.00840169701177415 	0
2 	1.8682276847667 	-1.17961196366423e-16 	1.33000150617441 	-0.00813596226022038 	0
2 	1.87608672606481 	-1.21430643318376e-16 	1.32681910676842 	-0.00787058964020621 	-2.11211791832401e-16
2 	1.88366804157438 	-1.196959198424e-16 	1.32307927750159 	-0.00760435552695552 	-1.63838623669904e-15
2 	1.89098144567491 	-1.17961196366423e-16 	1.31869928915837 	-0.00733589593320736 	1.78514646941687e-15
2 	1.89803640592159 	-1.196959198424e-16 	1.31357969241236 	-0.00706371367981923 	2.26136084115179e-16
2 	1.90484205530156 	-1.17961196366423e-16 	1.30760210636819 	-0.00678620140137085 	0
2 	1.91140720405699 	-1.14491749414469e-16 	1.30062747556507 	-0.00650168921035449 	0
2 	1.91774035109036 	-1.16226472890446e-16 	1.29249533582357 	-0.00620852636544519 	0
2 	1.92384969496671 	-1.21430643318376e-16 	1.28302476799295 	-0.00590519699680541 	0
2 	1.92974314452706 	-1.26634813746307e-16 	1.27201773092279 	-0.00559045523545447 	0
2 	1.93542832912681 	-1.31838984174237e-16 	1.25926521715403 	-0.00526355503395531 	0
2 	1.9409126085123 	-1.37043154602168e-16 	1.24455133559415 	-0.00492488811959361 	0
2 	1.94620308234835 	-1.38777878078145e-16 	1.2275821226373 	-0.00457406533894809 	0
2 	1.95130659940914 	-1.33573707650214e-16 	1.20781025337086 	-0.00420851543556202 	0
2 	1.95622976644424 	-1.28369537222284e-16 	1.18467048050469 	-0.00382591209983234 	0
2 	1.96097895673142 	-1.28369537222284e-16 	1.15799453060211 	-0.0034322038240137 	-5.18698554643868e-32
2 	1.96556031832711 	-1.28369537222284e-16 	1.12788010255511 	-0.00303601532703291 	-4.03379517923338e-31
2 	1.96997978202541 	-1.23165366794353e-16 	1.0945167846425 	-0.00264652715447776 	4.29440126179848e-31
2 	1.97424306903575 	-1.196959198424e-16 	1.05808433120849 	-0.002272223148964 	5.45207697697506e-32
2 	1.9783556983893 	-1.196959198424e-16 	1.01869873885784 	-0.00192009847506058 	0
2 	1.98232299408358 	-1.14491749414469e-16 	0.976378924500531 	-0.00159540335238555 	0
2 	1.98615009197469 	-1.11022302462516e-16 	0.931011347844145 	-0.00130180919100289 	0
2 	1.98984194642589 	-1.11022302462516e-16 	0.882303632570837 	-0.0010416372515721 	0
2 	1.99340333672126 	-1.11022302462516e-16 	0.829809711260468 	-0.000815991500815044 	0
2 	1.99683887325273 	-1.09287578986539e-16 	0.772992687131172 	-0.000625028062070221 	0
2 	2.00015300348844 	-1.09287578986539e-16 	0.711198433387748 	-0.00046754464124101 	0
2 	2.00335001773022 	-1.11022302462516e-16 	0.643579778611037 	-0.000341000142501858 	0
2 	2.00643405466757 	-1.11022302462516e-16 	0.568960125668097 	-0.000240945606688548 	0
2 	2.00940910673542 	-1.11022302462516e-16 	0.486533927907535 	-0.000162970857026225 	0
2 	2.01227902528252 	-1.11022302462516e-16 	0.397538135687906 	-0.000103182804551374 	0
2 	2.01504752555717 	-1.11022302462516e-16 	0.305527114438716 	-5.91205473280239e-05 	0
2 	2.01771819151684 	-1.12757025938492e-16 	0.214337921878817 	-2.87083244330594e-05 	0
2 	2.02029448046774 	-1.16226472890446e-16 	0.126167512105596 	-1.01277056482775e-05 	0
2 	2.02277972754047 	-1.17961196366423e-16 	0.041453812627825 	-1.4630017975372e-06 	0
