/*--------------------------------*- C++ -*----------------------------------*\
  =========                 |
  \\      /  F ield         | OpenFOAM: The Open Source CFD Toolbox
   \\    /   O peration     | Website:  https://openfoam.org
    \\  /    A nd           | Version:  7
     \\/     M anipulation  |
\*---------------------------------------------------------------------------*/
FoamFile
{
    version     2.0;
    format      ascii;
    class       volVectorField;
    location    "20000";
    object      C;
}
// * * * * * * * * * * * * * * * * * * * * * * * * * * * * * * * * * * * * * //

dimensions      [0 1 0 0 0 0 0];

internalField   nonuniform List<vector> 
15600
(
(0.0210701554105854 1.00078212633556 1.07067863596906e-17)
(0.063161363621181 0.999497980015715 -2.87398057920139e-18)
(0.104448046885031 0.992484930751124 5.44445756032536e-18)
(0.142747600656233 0.975901721312757 -6.10325508156258e-18)
(0.176065731762271 0.95053108519337 -3.63779915313327e-18)
(0.204737721871649 0.919761628649183 1.92637237281944e-18)
(0.230373157080397 0.88636783052221 -1.7469372721649e-18)
(0.254127022731276 0.851603529924206 1.8726661975707e-18)
(0.276685586547027 0.81606186430855 -4.97644803524283e-18)
(0.298495503026583 0.780063174327569 0)
(0.319888450768384 0.743814131119786 0)
(0.341138792969054 0.707483629899517 -2.82221801022439e-18)
(0.362496248836374 0.671217081649397 -1.86836023647605e-19)
(0.38411463398922 0.635106120543791 0)
(0.406018884396967 0.5991632332997 4.53029811979441e-18)
(0.428182147590467 0.563375099424036 -2.03415715439354e-18)
(0.450572607928019 0.527726966407207 -3.92427735438743e-18)
(0.473156766713191 0.492198719858964 9.1502917201891e-18)
(0.495897691146868 0.456768608736224 -9.44034254930991e-20)
(0.51875607597335 0.42141259100868 8.29244361250545e-18)
(0.541697183402192 0.386108145584004 1.66226112671454e-18)
(0.564744027612774 0.350871803373838 1.49842019276424e-18)
(0.588003286515889 0.315776299528063 0)
(0.611622302318648 0.280920517283998 0)
(0.635766887156403 0.246426752096239 5.15976528928179e-18)
(0.660633653288045 0.212452787672367 -2.43984461535935e-18)
(0.686466710766083 0.179213955996035 9.51544823393907e-20)
(0.71358257020985 0.147018155510838 6.55479538829948e-18)
(0.742331228718646 0.116281049217068 0)
(0.773020954253351 0.0874998056266824 -3.94699217680326e-18)
(0.805926500911722 0.06130697411031 -5.17215332161107e-18)
(0.841281519383953 0.0385851924977107 -1.64966104829321e-18)
(0.87917259968416 0.0205100980724057 0)
(0.919332869402777 0.00848145471388762 0)
(0.960952294736387 0.00345031743138794 9.63384502819903e-20)
(1.00306238488131 0.00273744217446286 9.63735280056289e-20)
(1.04520269570248 0.00273744217446294 -9.63735280056317e-20)
(1.08734300652365 0.00273744217446266 9.63735280056259e-20)
(1.12948331734482 0.00273744217446283 -3.44376758094421e-16)
(1.17162362816599 0.00273744217446291 -3.52302977994318e-16)
(1.21376393898717 0.00273744217446283 0)
(1.25590424980834 0.00273744217446302 -3.15545534506949e-18)
(1.29804456062951 0.00273744217446283 0)
(1.34018487145068 0.00273744217446305 0)
(1.38232518227185 0.00273744217446278 3.15545534506952e-18)
(1.42446549309302 0.00273744217446283 -3.44280384566415e-16)
(1.46660580391419 0.0027374421744628 -3.51696816104025e-16)
(1.50874611473536 0.00273744217446275 -1.62591443653759e-18)
(1.55088642555653 0.00273744217446299 1.62591443653757e-18)
(1.5930267363777 0.00273744217446264 0)
(1.63516704719888 0.00273744217446274 0)
(1.67730735802005 0.00273744217446282 -1.52954090853216e-18)
(1.71944766884122 0.00273744217446274 -3.15545534506931e-18)
(1.76158797966239 0.00273744217446274 0)
(1.80372829048356 0.00273744217446288 3.25182887307564e-18)
(1.84586860130473 0.00273744217446294 -1.62591443653742e-18)
(1.88800891212591 0.00273744217446272 1.62591443653761e-18)
(1.93014922294708 0.00273744217446288 0)
(1.97228953376825 0.00273744217446272 -3.15545534506958e-18)
(2.01442984458942 0.00273744217446283 9.63735280056278e-20)
(2.05657015541059 0.00273744217446283 -3.52024462637085e-16)
(2.09871046623176 0.00273744217446272 -3.42907425694085e-16)
(2.14085077705293 0.00273744217446288 6.21453716213363e-18)
(2.1829910878741 0.00273744217446272 -1.6259144365376e-18)
(2.22513139869527 0.00273744217446305 -7.93682512667646e-18)
(2.26727170951644 0.00273744217446277 -3.15545534506952e-18)
(2.30941202033762 0.00273744217446279 -4.78136978160666e-18)
(2.35155233115879 0.00273744217446286 1.62591443653778e-18)
(2.39369264197996 0.00273744217446288 4.68499625360091e-18)
(2.43583295280113 0.00273744217446277 0)
(2.4779732636223 0.00273744217446266 -1.62591443653764e-18)
(2.52011357444347 0.002737442174463 0)
(2.56225388526464 0.00273744217446278 3.52024462637034e-16)
(2.60439419608581 0.0027374421744628 3.43723909924188e-16)
(2.64653450690698 0.00273744217446274 -4.78136978160787e-18)
(2.68867481772815 0.00273744217446272 -4.78136978160716e-18)
(2.73081512854932 0.00273744217446305 3.15545534506948e-18)
(2.77295543937049 0.00273744217446283 1.62591443653754e-18)
(2.81509575019166 0.00273744217446302 0)
(2.85723606101283 0.00273744217446275 3.50302174672494e-16)
(2.89937637183401 0.00273744217446288 3.43729711185074e-16)
(2.94151668265518 0.00273744217446289 0)
(2.98365699347635 0.00273744217446277 -6.31091069013858e-18)
(3.02579730429752 0.00273744217446283 6.40728421814547e-18)
(3.06793761511869 0.00273744217446293 0)
(3.11004943654488 0.0034260991888319 -3.14576915678811e-18)
(3.15167842330324 0.00839515104348174 4.66119159687915e-18)
(3.19185894801698 0.0203553163710591 9.6761695770526e-20)
(3.22977503461561 0.0383761468530731 3.39428627204081e-18)
(3.26515556458595 0.061057117536524 -1.65759480044248e-18)
(3.29808467921668 0.087219324633294 1.87664415442446e-18)
(3.32879507312405 0.11597736707698 -1.8149509964325e-18)
(3.3575627491819 0.146698052772664 0)
(3.3846936749514 0.178881473660862 2.39422431945354e-18)
(3.41053758211052 0.212110898724016 0)
(3.43541285555765 0.246078624525123 2.77383244187055e-18)
(3.45956387775517 0.280568209483244 -3.01095696308799e-18)
(3.4831871710245 0.315420698465887 1.73648925264052e-15)
(3.50644915217841 0.350514033338281 1.64674395467497e-15)
(3.52949759978081 0.385749556360038 0)
(3.55243949629314 0.421053461459066 9.93012412916205e-18)
(3.57529890975206 0.456408925983993 -3.63446300774188e-18)
(3.59804120667465 0.491838122449898 0)
(3.62062717247608 0.527365296966937 3.72876825816694e-18)
(3.64301978070566 0.563012112486992 2.03260799102807e-18)
(3.66518558854114 0.598798859309067 -4.3388981186448e-18)
(3.68709269307181 0.634740228561592 6.98714767762889e-18)
(3.70871386150585 0.670849106591582 7.64590905383524e-18)
(3.73007339539557 0.707114354678116 -2.7263470070024e-18)
(3.75132357619831 0.743444834282814 7.46250102066941e-18)
(3.77271372604536 0.779695444416108 4.74707347632927e-18)
(3.79451836363762 0.815698423035379 0)
(3.81706739566155 0.851246125854235 8.89605029405658e-18)
(3.84080554498981 0.886019637484613 1.11313846487486e-17)
(3.86641779596523 0.919432744067674 -5.60166859115371e-18)
(3.89505255653888 0.950241353457126 -3.35457384178531e-18)
(3.92831589928058 0.975683861604694 -1.08917279797614e-17)
(3.96657000123355 0.992365726423778 0)
(4.00784044067003 0.999464756872486 9.66012661334056e-20)
(4.04992984458941 1.00078212633556 -9.637352800563e-20)
(0.021053763599106 1.00237522591919 0)
(0.0631124564372177 1.00109620337832 -5.75544106923352e-18)
(0.104370006859253 0.994111129124624 1.10779731173821e-17)
(0.142652362334554 0.977594105805135 -1.66266458982738e-18)
(0.175973059562171 0.95232485192305 -3.13782691694531e-18)
(0.204666043049467 0.921678384268979 0)
(0.230334551288344 0.888417992280062 7.08495158067703e-18)
(0.254128987907285 0.853792489141063 1.04740306884197e-17)
(0.276732888001194 0.818392664203976 1.88762454532803e-19)
(0.298591125715767 0.782537600281997 2.86089048338424e-18)
(0.3200340558439 0.74643316018125 -1.89216731985415e-19)
(0.341334947262823 0.710247575193791 -3.00713511162867e-18)
(0.362742523142809 0.674125683925063 0)
(0.384409988158014 0.638158768970912 2.24568729950926e-18)
(0.40636218034692 0.602359269991923 0)
(0.428572354133857 0.566713916705006 4.30084868650404e-18)
(0.451008820810776 0.531208012903245 2.03598315568942e-18)
(0.473638215118986 0.49582152291115 -7.17276721852705e-18)
(0.496423751499909 0.460532781205068 7.01238273627594e-18)
(0.519326281341075 0.425317840855405 1.9084303185697e-19)
(0.542311205218239 0.390154269545051 -1.70201737634696e-18)
(0.565401444088917 0.355058529019614 1.91014491107615e-19)
(0.588703249525832 0.320103062857104 1.9110469632537e-19)
(0.612363375677153 0.285386360037916 -5.43387789337346e-18)
(0.636546972786262 0.251030228391206 0)
(0.661449868263217 0.217191822197936 4.70553354929203e-18)
(0.687315197508575 0.184085614547557 0)
(0.714458207361379 0.152018275620285 2.26859641026035e-18)
(0.743227497918676 0.121403811828157 0)
(0.773930107038016 0.0927374092462494 4.00807235258141e-18)
(0.806839690912187 0.0666490935650061 0)
(0.842188965741596 0.0440179808046942 0)
(0.880064173642665 0.0260150165646639 1.92388988036652e-19)
(0.920199505655277 0.0140343775490456 4.10978471234305e-16)
(0.961788167967145 0.00902332069717824 4.49697734924263e-16)
(1.0038655836438 0.00831329071717581 0)
(1.04597311084202 0.00831329071717573 0)
(1.08808063804023 0.00831329071717568 0)
(1.13018816523844 0.00831329071717576 6.28485718351266e-16)
(1.17229569243665 0.00831329071717568 6.28795118441487e-16)
(1.21440321963486 0.0083132907171759 -1.92781001085882e-19)
(1.25651074683307 0.00831329071717571 -1.92781001085904e-19)
(1.29861827403129 0.00831329071717585 1.66941918769132e-18)
(1.3407258012295 0.00831329071717585 0)
(1.38283332842771 0.00831329071717579 1.4766381866054e-18)
(1.42494085562592 0.00831329071717578 9.28058586161385e-16)
(1.46704838282413 0.00831329071717576 9.23678916469339e-16)
(1.50915591002235 0.00831329071717576 -6.29211474859336e-18)
(1.55126343722056 0.00831329071717568 0)
(1.59337096441877 0.00831329071717579 0)
(1.63547849161698 0.00831329071717557 7.96153393628361e-18)
(1.6775860188152 0.00831329071717585 3.33883837538217e-18)
(1.71969354601341 0.00831329071717554 -1.66941918769105e-18)
(1.76180107321162 0.00831329071717554 4.6226955609014e-18)
(1.80390860040984 0.00831329071717584 7.96153393628362e-18)
(1.84601612760805 0.00831329071717568 -1.92781001085906e-19)
(1.88812365480626 0.00831329071717574 0)
(1.93023118200447 0.00831329071717568 -1.66941918769089e-18)
(1.97233870920269 0.00831329071717573 1.92781001085893e-19)
(2.0144462364009 0.00831329071717573 -4.81547656198686e-18)
(2.05655376359911 0.00831329071717578 3.35590527291906e-16)
(2.09866129079732 0.00831329071717579 3.37049874340839e-16)
(2.14076881799553 0.00831329071717556 1.92781001085904e-19)
(2.18287634519375 0.00831329071717585 0)
(2.22498387239196 0.00831329071717573 0)
(2.26709139959017 0.0083132907171758 0)
(2.30919892678838 0.0083132907171757 0)
(2.3513064539866 0.00831329071717576 4.81547656198796e-18)
(2.39341398118481 0.00831329071717568 3.14605737429637e-18)
(2.43552150838302 0.0083132907171758 -1.92781001085882e-19)
(2.47762903558123 0.00831329071717568 1.66941918769124e-18)
(2.51973656277944 0.00831329071717568 0)
(2.56184408997765 0.0083132907171758 -3.32444469917618e-16)
(2.60395161717587 0.00831329071717575 -3.38256466510282e-16)
(2.64605914437408 0.00831329071717571 3.14605737429649e-18)
(2.68816667157229 0.00831329071717573 -1.92781001085894e-19)
(2.7302741987705 0.00831329071717585 1.92781001085894e-19)
(2.77238172596871 0.00831329071717585 1.9278100108589e-19)
(2.81448925316693 0.0083132907171757 6.29211474859283e-18)
(2.85659678036514 0.00831329071717588 -3.30967831730973e-16)
(2.89870430756335 0.00831329071717568 -3.37147250637139e-16)
(2.94081183476156 0.00831329071717579 1.66941918769128e-18)
(2.98291936195978 0.00831329071717568 0)
(3.02502688915799 0.00831329071717573 1.66941918769126e-18)
(3.0671344163562 0.00831329071717579 -1.92781001085899e-19)
(3.10921355679454 0.00899919911479251 -4.44519042017086e-16)
(3.15081174259964 0.0139484183169406 -4.23896171736096e-16)
(3.19096724867745 0.0258608525454354 1.93168123308206e-19)
(3.22886736299757 0.0438097693539889 0)
(3.2642420474391 0.0664002339834917 -5.27377713924461e-18)
(3.29717510519693 0.0924580474227988 0)
(3.3278983001702 0.121101341384751 -1.93720961501161e-19)
(3.35668653235482 0.151699450053755 -2.26914970926554e-18)
(3.383844548399 0.183754458802559 0)
(3.40972068400496 0.216851297363473 2.54527870926266e-18)
(3.43463205283323 0.25068348982482 -2.48593212305023e-18)
(3.45882206160385 0.28503545792563 0)
(3.48248644815407 0.319748880648308 -1.52650571506192e-15)
(3.50579096496416 0.35470218648454 -1.73731943487905e-15)
(3.52888280082599 0.389797111108418 2.82601383766282e-18)
(3.55186851064817 0.424960144229385 6.70686462243402e-18)
(3.5747720650315 0.460174533536081 0)
(3.59755896844722 0.495462364190891 -3.89551979739223e-19)
(3.62019016257386 0.530847786349633 1.84414274069135e-18)
(3.6426287686001 0.566352377840572 1.95857914811039e-18)
(3.66484147688515 0.601996349475238 -1.95201768551211e-19)
(3.68679651184013 0.637794336392564 4.48735678348313e-18)
(3.70846674904889 0.673759176388601 5.23713793125464e-18)
(3.72987639463428 0.70987977258719 5.25114686538086e-18)
(3.75117712527515 0.746065336078299 1.41791976331656e-18)
(3.7726172686234 0.782171336934647 -7.61765870798375e-18)
(3.79447024845035 0.818030672592886 -1.15740746200874e-17)
(3.81706465479686 0.853436511183745 0)
(3.8408434377342 0.888071189351002 -1.96732858717016e-19)
(3.86648885401346 0.921350813534425 0)
(3.89514475590793 0.952036278181669 5.19070905574057e-18)
(3.92841088209827 0.977377116108689 0)
(3.96664796641937 0.993992400326009 0)
(4.00788933879042 1.00106311277543 1.93008253681713e-19)
(4.0499462364009 1.00237522591919 0)
(0.021036771310605 1.00402668511087 -2.59122061726509e-18)
(0.0630617576485082 1.0027529740593 1.92559130778739e-19)
(0.104289108005129 0.995796899775128 0)
(0.142553635152279 0.979348487332491 0)
(0.175876992556238 0.954184328647301 0)
(0.204591738534065 0.92366535326672 -5.29494070181396e-18)
(0.230294531342302 0.890543252728381 -1.89428672697716e-18)
(0.254131025068432 0.856061630755518 -1.35808620854851e-17)
(0.276781922131308 0.820808842466738 0)
(0.298690251143043 0.785102666503067 0)
(0.320184994611597 0.749148127483686 -2.92228185156786e-18)
(0.341538287007183 0.713112768296435 -7.97159955299381e-18)
(0.362997818966104 0.677140834077576 -4.67183732495045e-18)
(0.384716161816212 0.641323242795537 -4.51650817708346e-18)
(0.406718052066595 0.605672385319821 -6.04642853129914e-18)
(0.428976854948575 0.570175043467783 -7.74476979871393e-18)
(0.451461013337321 0.534816579436464 3.7472337953992e-18)
(0.474137300300058 0.499577039173167 -1.68219081425512e-18)
(0.49696908291297 0.464434845824787 -1.59767528004552e-18)
(0.519917374945535 0.429366151058848 1.7140163205015e-18)
(0.542947720409276 0.394348614597154 2.91300218685637e-18)
(0.566082943627299 0.359398626504946 0)
(0.589428854216435 0.324588328109843 -2.65598237435078e-18)
(0.613131596722136 0.290015799684815 2.52717927417518e-18)
(0.637355635247098 0.255802343562426 2.39840870691438e-18)
(0.662295983599398 0.222104461530385 1.91405789794808e-19)
(0.688194766821101 0.189135736309563 6.60444124476151e-18)
(0.715365921672323 0.157201564807888 0)
(0.744156600070511 0.126714236157296 1.91781509800143e-19)
(0.774872564709024 0.0981668813792423 1.91920674335483e-19)
(0.807786333658695 0.0721869100437073 -1.63555311302172e-18)
(0.843129654401524 0.0496497873672658 -1.72927458369429e-18)
(0.880988408418888 0.0317215954326188 1.92389898224488e-19)
(0.921097889167791 0.0197907191594806 -4.24578953357715e-16)
(0.962654661524934 0.0148004783445872 -4.11891460899208e-16)
(1.00469820578035 0.0140933978880378 -1.92782273133917e-19)
(1.04677174840156 0.0140933978880377 4.66238489893255e-18)
(1.08884529102277 0.0140933978880379 0)
(1.13091883364398 0.0140933978880378 -2.84279007064375e-16)
(1.17299237626519 0.0140933978880379 -2.78001877584552e-16)
(1.2150659188864 0.0140933978880376 6.08799168315423e-18)
(1.25713946150761 0.0140933978880379 0)
(1.29921300412882 0.0140933978880378 6.08799168315477e-18)
(1.34128654675003 0.0140933978880378 9.32476979786403e-18)
(1.38336008937124 0.0140933978880378 -8.93920525159821e-18)
(1.42543363199245 0.014093397888038 -5.70176403186046e-16)
(1.46750717461366 0.0140933978880377 -5.62255336576669e-16)
(1.50958071723487 0.0140933978880379 0)
(1.55165425985608 0.0140933978880378 -8.93920525159827e-18)
(1.59372780247729 0.0140933978880378 0)
(1.6358013450985 0.0140933978880379 0)
(1.67787488771971 0.0140933978880377 0)
(1.71994843034093 0.0140933978880379 0)
(1.76202197296213 0.0140933978880378 -8.93920525159825e-18)
(1.80409551558335 0.0140933978880378 7.51359846737481e-18)
(1.84616905820456 0.0140933978880379 -7.51359846737631e-18)
(1.88824260082577 0.0140933978880381 -3.23677811471081e-18)
(1.93031614344698 0.0140933978880379 -1.92782273133923e-19)
(1.97238968606819 0.0140933978880379 0)
(2.0144632286894 0.0140933978880379 -1.92782273133925e-19)
(2.05653677131061 0.014093397888038 -8.93920525159796e-18)
(2.09861031393182 0.0140933978880381 -1.61838905735542e-18)
(2.14068385655303 0.0140933978880379 2.85121356844333e-18)
(2.18275739917424 0.0140933978880379 0)
(2.22483094179545 0.0140933978880378 0)
(2.26690448441666 0.0140933978880378 0)
(2.30897802703787 0.0140933978880378 3.23677811471064e-18)
(2.35105156965908 0.0140933978880378 1.61838905735566e-18)
(2.39312511228029 0.0140933978880379 0)
(2.4351986549015 0.0140933978880377 -6.08799168315412e-18)
(2.47727219752271 0.0140933978880379 0)
(2.51934574014392 0.0140933978880378 0)
(2.56141928276513 0.0140933978880379 0)
(2.60349282538634 0.0140933978880377 0)
(2.64556636800755 0.0140933978880379 -1.92782273133912e-19)
(2.68763991062876 0.0140933978880378 8.93920525159822e-18)
(2.72971345324997 0.0140933978880378 -2.85121356844278e-18)
(2.77178699587118 0.0140933978880378 0)
(2.81386053849239 0.0140933978880379 0)
(2.8559340811136 0.0140933978880377 0)
(2.89800762373481 0.0140933978880379 3.04399584157705e-18)
(2.94008116635602 0.0140933978880378 0)
(2.98215470897723 0.0140933978880378 6.08799168315343e-18)
(3.02422825159844 0.0140933978880378 -1.61838905735566e-18)
(3.06630179421965 0.014093397888038 0)
(3.10834705647827 0.0147764569636832 4.07269307896937e-16)
(3.14991331300777 0.0197051169826518 4.263599452357e-16)
(3.19004288392749 0.0315680717208858 1.65288381572131e-18)
(3.2279264408257 0.0494424406670532 0)
(3.26329506556233 0.0719390839746801 0)
(3.29623221086012 0.0978886797222158 0)
(3.32696867581085 0.126413021796936 2.06425578161923e-18)
(3.35577821713332 0.156884063198448 4.19752315533776e-18)
(3.38296431583849 0.188805955751301 1.74830425481189e-18)
(3.40887386051329 0.221765350781457 -7.18995523074135e-18)
(3.43382264700847 0.255457044884629 0)
(3.45805307055522 0.289666354756346 1.94240911516172e-19)
(3.4817600557669 0.324235616732284 -5.50331084821636e-18)
(3.50510866645309 0.359043763765167 0)
(3.52824548002714 0.393992939363144 0)
(3.55127660818245 0.429009939850263 1.52230189608232e-18)
(3.57422592051703 0.464078085812459 1.94666808307576e-19)
(3.59705906451076 0.499219371847717 -4.84850115492219e-18)
(3.61973714383043 0.534457848630233 0)
(3.6422234327128 0.569815005727599 -1.69213727321007e-18)
(3.66448475957741 0.605310971528295 -1.9519667051186e-19)
(3.68648948082095 0.640960323091289 1.95386275595263e-19)
(3.70821058437091 0.676775847833043 4.86291456408673e-18)
(3.7296721774139 0.712746492263848 1.05052213447851e-17)
(3.75102530967448 0.748781830078538 -8.19144610414818e-18)
(3.77251727788577 0.784737923456964 0)
(3.7944203707794 0.820448353633064 1.9654949229702e-19)
(3.81706181353327 0.855707131155955 -6.59751093607579e-18)
(3.84088271851317 0.890197890824208 1.90171277757321e-18)
(3.8665625150146 0.923339144493335 1.70197877501147e-18)
(3.89524033276108 0.95389695530548 0)
(3.92850934441659 0.979132399517055 0)
(3.96672878769209 0.995678663927769 2.38828478526882e-18)
(4.00794002818351 1.00272002085256 2.69256222208997e-18)
(4.0499632286894 1.00402668511087 0)
(0.0210191565480851 1.00573864177115 -9.64100655604009e-20)
(0.063009201624095 1.00447043679647 -1.92560240749518e-19)
(0.104205245595853 0.99754442499952 1.9175271116183e-19)
(0.142451291302085 0.981167137030389 5.67115016582759e-18)
(0.175777406386276 0.956111922448089 0)
(0.204514712146484 0.925725107553686 4.91878005506725e-18)
(0.230253045443822 0.892746362625177 -1.88623392668145e-19)
(0.254133136851397 0.858413891701516 -1.48663014557932e-17)
(0.276832752402542 0.823313526370751 1.8877239922376e-19)
(0.298793007610244 0.787761693054088 0)
(0.320341462443225 0.751962547219875 0)
(0.341749075408596 0.716082917962684 2.8160003841505e-18)
(0.363262466774698 0.680266435077009 9.37827849697893e-18)
(0.385033551299483 0.644603638365559 0)
(0.407086960231539 0.609106868107582 -7.76672009431387e-18)
(0.429396173665922 0.573762960183768 1.62931085561984e-18)
(0.45192977088087 0.538557337375908 5.33138352079146e-18)
(0.474654668336723 0.50347013027031 1.90634960604372e-19)
(0.497534391336308 0.46847985395215 -1.53975245298045e-18)
(0.520530121980011 0.433562762311424 6.25382883316604e-18)
(0.543607552970457 0.398696610492892 -1.90929388373682e-19)
(0.566789408458959 0.36389771427637 0)
(0.590181039916529 0.329237901669553 2.36918683463715e-18)
(0.613927959952785 0.294814829257612 -2.818747820642e-18)
(0.638193921392643 0.260749275350053 7.31996221027168e-18)
(0.663173094635561 0.227197065329104 1.91405711691894e-19)
(0.689106557350403 0.194370858918817 -3.9316752966997e-18)
(0.716306888223437 0.162574733096058 -1.93248742759762e-18)
(0.745119737940297 0.132219196796918 0)
(0.775849547318681 0.103795250712655 1.9192089378114e-19)
(0.808767654617365 0.0779275924667959 3.8013211429084e-16)
(0.844104803117782 0.0554879027540656 4.11892807507486e-16)
(0.881946500462874 0.0376372220162676 -1.60230675305696e-18)
(0.922029182922762 0.0257579312894837 0)
(0.963552897109855 0.0207892690654876 -2.68188287212791e-16)
(1.00556132914382 0.0200852461990327 -2.83503336270954e-16)
(1.04759964223999 0.0200852461990327 9.02941823589938e-18)
(1.08963795533616 0.0200852461990326 0)
(1.13167626843233 0.0200852461990327 0)
(1.1737145815285 0.0200852461990326 0)
(1.21575289462467 0.0200852461990327 5.89108976129824e-18)
(1.25779120772085 0.0200852461990326 0)
(1.29982952081702 0.0200852461990327 -3.13832847460105e-18)
(1.34186783391319 0.0200852461990326 0)
(1.38390614700936 0.0200852461990327 0)
(1.42594446010553 0.0200852461990326 -5.89108976129772e-18)
(1.4679827732017 0.0200852461990327 -2.94554488064919e-18)
(1.51002108629787 0.0200852461990326 3.13832847460074e-18)
(1.55205939939404 0.0200852461990327 -2.75276128669728e-18)
(1.59409771249021 0.0200852461990326 5.89108976129778e-18)
(1.63613602558638 0.0200852461990325 2.75276128669704e-18)
(1.67817433868255 0.0200852461990327 0)
(1.72021265177872 0.0200852461990326 0)
(1.76225096487489 0.0200852461990327 2.75276128669728e-18)
(1.80428927797106 0.0200852461990326 -6.08387335524962e-18)
(1.84632759106723 0.0200852461990328 3.13832847460116e-18)
(1.8883659041634 0.0200852461990328 5.89108976129796e-18)
(1.93040421725958 0.0200852461990328 5.89108976129795e-18)
(1.97244253035575 0.020085246199033 5.89108976129792e-18)
(2.01448084345192 0.0200852461990327 -1.92783593951897e-19)
(2.05651915654809 0.0200852461990327 2.94554488064969e-18)
(2.09855746964426 0.0200852461990329 0)
(2.14059578274043 0.0200852461990329 0)
(2.1826340958366 0.0200852461990326 -3.13832847460117e-18)
(2.22467240893277 0.0200852461990327 -8.64385104799554e-18)
(2.26671072202894 0.0200852461990327 0)
(2.30874903512511 0.0200852461990326 0)
(2.35078734822128 0.0200852461990327 0)
(2.39282566131745 0.0200852461990326 0)
(2.43486397441362 0.0200852461990327 0)
(2.47690228750979 0.0200852461990326 0)
(2.51894060060596 0.0200852461990327 5.89108976129832e-18)
(2.56097891370213 0.0200852461990326 0)
(2.6030172267983 0.0200852461990327 -5.89108976129838e-18)
(2.64505553989447 0.0200852461990326 0)
(2.68709385299064 0.0200852461990327 -5.89108976129831e-18)
(2.72913216608681 0.0200852461990326 0)
(2.77117047918298 0.0200852461990327 -2.94554488064923e-18)
(2.81320879227915 0.0200852461990326 -5.50552257339398e-18)
(2.85524710537533 0.0200852461990327 2.75276128669727e-18)
(2.8972854184715 0.0200852461990326 0)
(2.93932373156767 0.0200852461990327 -2.75276128669727e-18)
(2.98136204466384 0.0200852461990326 0)
(3.02340035776001 0.0200852461990327 0)
(3.06543867085618 0.0200852461990326 0)
(3.10744881388722 0.0207653515571354 -3.85636238419513e-19)
(3.14898197148557 0.0256726992470397 -3.12460039413875e-18)
(3.18908465714882 0.0374843620660747 -4.42093979856366e-18)
(3.22695105004373 0.0552814524800977 1.93327500745656e-19)
(3.26231339305053 0.0776808377681104 8.2739094247719e-18)
(3.29525477558869 0.10351825172022 -3.56589238497331e-18)
(3.32600499660387 0.131919284531855 -7.79976397438939e-18)
(3.35483662765872 0.162258603942932 2.12481005114543e-18)
(3.38205183776455 0.194042503924071 0)
(3.40799601537979 0.226859420467964 -1.13196467727627e-17)
(3.43298359026729 0.260405469308775 0)
(3.45725590911329 0.294466894894813 0)
(3.48100705351443 0.328886715005253 0)
(3.50440137337985 0.363544385542513 0)
(3.52758481234618 0.398342472797042 -5.80678208975742e-18)
(3.55066302265555 0.433208090937198 -4.79073532996052e-18)
(3.57365976920577 0.468124636095946 -1.53879801821544e-18)
(3.59654084772508 0.503114008976699 8.48970058507617e-18)
(3.61926752980294 0.538200157114422 -3.42478238099847e-18)
(3.64180324833139 0.573404478563225 1.81829224255053e-18)
(3.66411497484767 0.608747016243574 -1.74484722859555e-18)
(3.68617120256873 0.644242286965066 -8.32762485862781e-18)
(3.70794503587865 0.679903025865476 -5.08184617125767e-18)
(3.72946047939197 0.71571822444077 -7.69558795024668e-18)
(3.7508679328895 0.751597832454052 3.92193641832511e-19)
(3.77241362441064 0.787398526015861 -5.45197321316341e-18)
(3.79436866606775 0.822954595376242 0)
(3.81705886819335 0.858060924618862 8.13618855591333e-18)
(3.84092343816837 0.892402494526882 3.48025263126783e-18)
(3.8666388743146 0.925400310617187 1.96517184456748e-19)
(3.89533941082192 0.955825793462787 7.93151614412121e-18)
(3.92861141369999 0.980951984132709 -8.23139840434167e-18)
(3.96681256967802 0.99742670016435 1.93807263360336e-19)
(4.00799257446818 1.00443762601964 0)
(4.04998084345192 1.00573864177115 2.60144971981224e-18)
(0.0210008965087529 1.00751331207492 2.42197951274486e-18)
(0.0629547203286528 1.006250814894 -2.52229602529235e-18)
(0.10411831106827 0.999355967037814 5.00116552207564e-18)
(0.142345198294679 0.983052409232938 -1.90622437114206e-19)
(0.175674172138747 0.958110128581023 -4.47066654129303e-18)
(0.204434864184967 0.92786031324353 -5.11583617332187e-18)
(0.230210039897344 0.895030173475195 0)
(0.254135325989429 0.860852316476653 2.87057039370715e-18)
(0.276885444604473 0.825909957726186 0)
(0.298899528118378 0.790518121598997 8.54122882118797e-18)
(0.320503661866474 0.754880062297775 0)
(0.341967585314384 0.719161868793944 -4.88252529317987e-18)
(0.363536809141976 0.683506532857921 -2.35628219841939e-18)
(0.385362567461477 0.648004202080388 1.02253677418087e-17)
(0.407469382392405 0.61266716428412 -1.90186628968889e-19)
(0.429830853098689 0.577482311451418 -1.56281654964487e-18)
(0.452415700258013 0.542435129212172 0)
(0.475190988976668 0.507505835920073 -1.90635563852753e-19)
(0.498120408580847 0.472673041987355 6.12626443809694e-18)
(0.521165315668775 0.437913107285519 -4.24454587923504e-18)
(0.544291557082075 0.403203885891168 1.90929630365022e-19)
(0.567521753133499 0.368561616599637 -2.58712152333342e-18)
(0.590960780365231 0.334057802623887 5.31818021761501e-18)
(0.614753496299714 0.299789661331528 -7.42858878187058e-18)
(0.639062916425994 0.265877427803274 2.2295389338253e-18)
(0.664082336836245 0.232476226226924 -4.6019494247814e-18)
(0.690051749455269 0.199797759505365 -1.98824292951645e-18)
(0.717282325142159 0.168144736315176 0)
(0.746118158354958 0.137925820175469 0)
(0.77686231961313 0.109629803413465 0)
(0.809784924146276 0.0838785723705293 -4.04843356600783e-16)
(0.845115674253631 0.0615398846045006 -3.67157526985715e-16)
(0.882939690053241 0.0437695542700094 0)
(0.922994592505084 0.0319437386561731 5.28923957050712e-18)
(0.964484037512216 0.0269974455117676 2.72657500900002e-16)
(1.00645607107111 0.026296592262205 2.57520779495302e-16)
(1.04845786408861 0.0262965922622048 3.85569930988522e-19)
(1.09045965710612 0.0262965922622049 0)
(1.13246145012362 0.0262965922622049 5.70115410423093e-18)
(1.17446324314113 0.0262965922622049 0)
(1.21646503615863 0.0262965922622048 -3.04336201761008e-18)
(1.25846682917614 0.0262965922622049 0)
(1.30046862219365 0.026296592262205 -8.74451612184058e-18)
(1.34247041521115 0.026296592262205 0)
(1.38447220822866 0.0262965922622049 5.70115410423145e-18)
(1.42647400124616 0.0262965922622049 3.04336201760966e-18)
(1.46847579426367 0.0262965922622049 0)
(1.51047758728118 0.0262965922622049 0)
(1.55247938029868 0.0262965922622048 -1.92784965494258e-19)
(1.59448117331619 0.0262965922622049 0)
(1.63648296633369 0.0262965922622048 -2.85057705211536e-18)
(1.6784847593512 0.0262965922622049 2.85057705211544e-18)
(1.72048655236871 0.0262965922622048 2.85057705211555e-18)
(1.76248834538621 0.0262965922622049 -2.65779208662125e-18)
(1.80449013840372 0.0262965922622049 -5.50836913873715e-18)
(1.84649193142122 0.0262965922622049 -5.70115410423085e-18)
(1.88849372443873 0.0262965922622049 0)
(1.93049551745624 0.0262965922622049 0)
(1.97249731047375 0.0262965922622048 0)
(2.01449910349126 0.0262965922622048 0)
(2.05650089650876 0.0262965922622048 0)
(2.09850268952626 0.0262965922622048 0)
(2.14050448254377 0.0262965922622049 0)
(2.18250627556128 0.026296592262205 -1.92784965494239e-19)
(2.22450806857878 0.0262965922622048 1.92784965494258e-19)
(2.26650986159628 0.026296592262205 -1.9278496549425e-19)