/*--------------------------------*- C++ -*----------------------------------*\
  =========                 |
  \\      /  F ield         | OpenFOAM: The Open Source CFD Toolbox
   \\    /   O peration     | Website:  https://openfoam.org
    \\  /    A nd           | Version:  7
     \\/     M anipulation  |
\*---------------------------------------------------------------------------*/
FoamFile
{
    version     2.0;
    format      ascii;
    class       volScalarField;
    location    "20000";
    object      Cz;
}
// * * * * * * * * * * * * * * * * * * * * * * * * * * * * * * * * * * * * * //

dimensions      [0 1 0 0 0 0 0];

internalField   nonuniform List<scalar> 
15600
(
1.07067863596906e-17
-2.87398057920139e-18
5.44445756032536e-18
-6.10325508156258e-18
-3.63779915313327e-18
1.92637237281944e-18
-1.7469372721649e-18
1.8726661975707e-18
-4.97644803524283e-18
0
0
-2.82221801022439e-18
-1.86836023647605e-19
0
4.53029811979441e-18
-2.03415715439354e-18
-3.92427735438743e-18
9.1502917201891e-18
-9.44034254930991e-20
8.29244361250545e-18
1.66226112671454e-18
1.49842019276424e-18
0
0
5.15976528928179e-18
-2.43984461535935e-18
9.51544823393907e-20
6.55479538829948e-18
0
-3.94699217680326e-18
-5.17215332161107e-18
-1.64966104829321e-18
0
0
9.63384502819903e-20
9.63735280056289e-20
-9.63735280056317e-20
9.63735280056259e-20
-3.44376758094421e-16
-3.52302977994318e-16
0
-3.15545534506949e-18
0
0
3.15545534506952e-18
-3.44280384566415e-16
-3.51696816104025e-16
-1.62591443653759e-18
1.62591443653757e-18
0
0
-1.52954090853216e-18
-3.15545534506931e-18
0
3.25182887307564e-18
-1.62591443653742e-18
1.62591443653761e-18
0
-3.15545534506958e-18
9.63735280056278e-20
-3.52024462637085e-16
-3.42907425694085e-16
6.21453716213363e-18
-1.6259144365376e-18
-7.93682512667646e-18
-3.15545534506952e-18
-4.78136978160666e-18
1.62591443653778e-18
4.68499625360091e-18
0
-1.62591443653764e-18
0
3.52024462637034e-16
3.43723909924188e-16
-4.78136978160787e-18
-4.78136978160716e-18
3.15545534506948e-18
1.62591443653754e-18
0
3.50302174672494e-16
3.43729711185074e-16
0
-6.31091069013858e-18
6.40728421814547e-18
0
-3.14576915678811e-18
4.66119159687915e-18
9.6761695770526e-20
3.39428627204081e-18
-1.65759480044248e-18
1.87664415442446e-18
-1.8149509964325e-18
0
2.39422431945354e-18
0
2.77383244187055e-18
-3.01095696308799e-18
1.73648925264052e-15
1.64674395467497e-15
0
9.93012412916205e-18
-3.63446300774188e-18
0
3.72876825816694e-18
2.03260799102807e-18
-4.3388981186448e-18
6.98714767762889e-18
7.64590905383524e-18
-2.7263470070024e-18
7.46250102066941e-18
4.74707347632927e-18
0
8.89605029405658e-18
1.11313846487486e-17
-5.60166859115371e-18
-3.35457384178531e-18
-1.08917279797614e-17
0
9.66012661334056e-20
-9.637352800563e-20
0
-5.75544106923352e-18
1.10779731173821e-17
-1.66266458982738e-18
-3.13782691694531e-18
0
7.08495158067703e-18
1.04740306884197e-17
1.88762454532803e-19
2.86089048338424e-18
-1.89216731985415e-19
-3.00713511162867e-18
0
2.24568729950926e-18
0
4.30084868650404e-18
2.03598315568942e-18
-7.17276721852705e-18
7.01238273627594e-18
1.9084303185697e-19
-1.70201737634696e-18
1.91014491107615e-19
1.9110469632537e-19
-5.43387789337346e-18
0
4.70553354929203e-18
0
2.26859641026035e-18
0
4.00807235258141e-18
0
0
1.92388988036652e-19
4.10978471234305e-16
4.49697734924263e-16
0
0
0
6.28485718351266e-16
6.28795118441487e-16
-1.92781001085882e-19
-1.92781001085904e-19
1.66941918769132e-18
0
1.4766381866054e-18
9.28058586161385e-16
9.23678916469339e-16
-6.29211474859336e-18
0
0
7.96153393628361e-18
3.33883837538217e-18
-1.66941918769105e-18
4.6226955609014e-18
7.96153393628362e-18
-1.92781001085906e-19
0
-1.66941918769089e-18
1.92781001085893e-19
-4.81547656198686e-18
3.35590527291906e-16
3.37049874340839e-16
1.92781001085904e-19
0
0
0
0
4.81547656198796e-18
3.14605737429637e-18
-1.92781001085882e-19
1.66941918769124e-18
0
-3.32444469917618e-16
-3.38256466510282e-16
3.14605737429649e-18
-1.92781001085894e-19
1.92781001085894e-19
1.9278100108589e-19
6.29211474859283e-18
-3.30967831730973e-16
-3.37147250637139e-16
1.66941918769128e-18
0
1.66941918769126e-18
-1.92781001085899e-19
-4.44519042017086e-16
-4.23896171736096e-16
1.93168123308206e-19
0
-5.27377713924461e-18
0
-1.93720961501161e-19
-2.26914970926554e-18
0
2.54527870926266e-18
-2.48593212305023e-18
0
-1.52650571506192e-15
-1.73731943487905e-15
2.82601383766282e-18
6.70686462243402e-18
0
-3.89551979739223e-19
1.84414274069135e-18
1.95857914811039e-18
-1.95201768551211e-19
4.48735678348313e-18
5.23713793125464e-18
5.25114686538086e-18
1.41791976331656e-18
-7.61765870798375e-18
-1.15740746200874e-17
0
-1.96732858717016e-19
0
5.19070905574057e-18
0
0
1.93008253681713e-19
0
-2.59122061726509e-18
1.92559130778739e-19
0
0
0
-5.29494070181396e-18
-1.89428672697716e-18
-1.35808620854851e-17
0
0
-2.92228185156786e-18
-7.97159955299381e-18
-4.67183732495045e-18
-4.51650817708346e-18
-6.04642853129914e-18
-7.74476979871393e-18
3.7472337953992e-18
-1.68219081425512e-18
-1.59767528004552e-18
1.7140163205015e-18
2.91300218685637e-18
0
-2.65598237435078e-18
2.52717927417518e-18
2.39840870691438e-18
1.91405789794808e-19
6.60444124476151e-18
0
1.91781509800143e-19
1.91920674335483e-19
-1.63555311302172e-18
-1.72927458369429e-18
1.92389898224488e-19
-4.24578953357715e-16
-4.11891460899208e-16
-1.92782273133917e-19
4.66238489893255e-18
0
-2.84279007064375e-16
-2.78001877584552e-16
6.08799168315423e-18
0
6.08799168315477e-18
9.32476979786403e-18
-8.93920525159821e-18
-5.70176403186046e-16
-5.62255336576669e-16
0
-8.93920525159827e-18
0
0
0
0
-8.93920525159825e-18
7.51359846737481e-18
-7.51359846737631e-18
-3.23677811471081e-18
-1.92782273133923e-19
0
-1.92782273133925e-19
-8.93920525159796e-18
-1.61838905735542e-18
2.85121356844333e-18
0
0
0
3.23677811471064e-18
1.61838905735566e-18
0
-6.08799168315412e-18
0
0
0
0
-1.92782273133912e-19
8.93920525159822e-18
-2.85121356844278e-18
0
0
0
3.04399584157705e-18
0
6.08799168315343e-18
-1.61838905735566e-18
0
4.07269307896937e-16
4.263599452357e-16
1.65288381572131e-18
0
0
0
2.06425578161923e-18
4.19752315533776e-18
1.74830425481189e-18
-7.18995523074135e-18
0
1.94240911516172e-19
-5.50331084821636e-18
0
0
1.52230189608232e-18
1.94666808307576e-19
-4.84850115492219e-18
0
-1.69213727321007e-18
-1.9519667051186e-19
1.95386275595263e-19
4.86291456408673e-18
1.05052213447851e-17
-8.19144610414818e-18
0
1.9654949229702e-19
-6.59751093607579e-18
1.90171277757321e-18
1.70197877501147e-18
0
0
2.38828478526882e-18
2.69256222208997e-18
0
-9.64100655604009e-20
-1.92560240749518e-19
1.9175271116183e-19
5.67115016582759e-18
0
4.91878005506725e-18
-1.88623392668145e-19
-1.48663014557932e-17
1.8877239922376e-19
0
0
2.8160003841505e-18
9.37827849697893e-18
0
-7.76672009431387e-18
1.62931085561984e-18
5.33138352079146e-18
1.90634960604372e-19
-1.53975245298045e-18
6.25382883316604e-18
-1.90929388373682e-19
0
2.36918683463715e-18
-2.818747820642e-18
7.31996221027168e-18
1.91405711691894e-19
-3.9316752966997e-18
-1.93248742759762e-18
0
1.9192089378114e-19
3.8013211429084e-16
4.11892807507486e-16
-1.60230675305696e-18
0
-2.68188287212791e-16
-2.83503336270954e-16
9.02941823589938e-18
0
0
0
5.89108976129824e-18
0
-3.13832847460105e-18
0
0
-5.89108976129772e-18
-2.94554488064919e-18
3.13832847460074e-18
-2.75276128669728e-18
5.89108976129778e-18
2.75276128669704e-18
0
0
2.75276128669728e-18
-6.08387335524962e-18
3.13832847460116e-18
5.89108976129796e-18
5.89108976129795e-18
5.89108976129792e-18
-1.92783593951897e-19
2.94554488064969e-18
0
0
-3.13832847460117e-18
-8.64385104799554e-18
0
0
0
0
0
0
5.89108976129832e-18
0
-5.89108976129838e-18
0
-5.89108976129831e-18
0
-2.94554488064923e-18
-5.50552257339398e-18
2.75276128669727e-18
0
-2.75276128669727e-18
0
0
0
-3.85636238419513e-19
-3.12460039413875e-18
-4.42093979856366e-18
1.93327500745656e-19
8.2739094247719e-18
-3.56589238497331e-18
-7.79976397438939e-18
2.12481005114543e-18
0
-1.13196467727627e-17
0
0
0
0
-5.80678208975742e-18
-4.79073532996052e-18
-1.53879801821544e-18
8.48970058507617e-18
-3.42478238099847e-18
1.81829224255053e-18
-1.74484722859555e-18
-8.32762485862781e-18
-5.08184617125767e-18
-7.69558795024668e-18
3.92193641832511e-19
-5.45197321316341e-18
0
8.13618855591333e-18
3.48025263126783e-18
1.96517184456748e-19
7.93151614412121e-18
-8.23139840434167e-18
1.93807263360336e-19
0
2.60144971981224e-18
2.42197951274486e-18
-2.52229602529235e-18
5.00116552207564e-18
-1.90622437114206e-19
-4.47066654129303e-18
-5.11583617332187e-18
0
2.87057039370715e-18
0
8.54122882118797e-18
0
-4.88252529317987e-18
-2.35628219841939e-18
1.02253677418087e-17
-1.90186628968889e-19
-1.56281654964487e-18
0
-1.90635563852753e-19
6.12626443809694e-18
-4.24454587923504e-18
1.90929630365022e-19
-2.58712152333342e-18
5.31818021761501e-18
-7.42858878187058e-18
2.2295389338253e-18
-4.6019494247814e-18
-1.98824292951645e-18
0
0
0
-4.04843356600783e-16
-3.67157526985715e-16
0
5.28923957050712e-18
2.72657500900002e-16
2.57520779495302e-16
3.85569930988522e-19
0
5.70115410423093e-18
0
-3.04336201761008e-18
0
-8.74451612184058e-18
0
5.70115410423145e-18
3.04336201760966e-18
0
0
-1.92784965494258e-19
0
-2.85057705211536e-18
2.85057705211544e-18
2.85057705211555e-18
-2.65779208662125e-18
-5.50836913873715e-18
-5.70115410423085e-18
0
0
0
0
0
0
0
-1.92784965494239e-19
1.92784965494258e-19
-1.9278496549425e-19
1.92784965494253e-19
0
2.65779208662152e-18
0
0
0
0
-5.70115410423123e-18
1.92784965494242e-19
0
0
-2.65779208662117e-18
2.85057705211546e-18
-5.50836913873745e-18
-1.15950931739567e-17
-5.70115410423109e-18
0
5.70115410423081e-18
0
1.92819542076779e-19
-2.837213394539e-18
2.91433914288129e-18
0
7.99909697171275e-18
0
1.5473715680515e-18
-1.66876283694456e-18
2.37481959228618e-18
0
0
-2.3473012420226e-18
1.94323584402221e-19
2.58563960336566e-18
0
5.65617027854784e-18
2.96592298149979e-18
9.56157557167186e-18
-1.45510695057686e-18
-1.75185253422751e-18
-7.47568674541375e-18
-1.95373845906617e-19
0
1.44569518411701e-17
0
0
-2.90003933040015e-18
1.96674076853796e-19
-8.29737989965292e-18
6.51376046206756e-18
5.96527380198326e-18
0
-1.9380898998776e-19
0
1.92784965494251e-19
0
2.44195297551549e-18
-2.51308615642236e-18
1.9062236931155e-19
0
0
0
1.09509820931817e-18
0
-5.04939741813667e-18
0
0
2.46582476505243e-18
1.89987531261872e-19
1.61165174225164e-18
-3.18771494932192e-18
0
-1.50530003865829e-18
4.09920342415545e-18
5.26333114277193e-18
5.59807875429582e-18
-1.91015105883262e-19
-3.82209983531648e-19
-9.63043621235501e-18
0
0
-2.10900076066466e-18
-3.5961098714241e-18
-8.98056953248168e-18
1.76311465255203e-18
0
-1.92224216752814e-19
0
2.93870180350743e-18
-1.92751777978158e-19
1.92786389800254e-19
2.75896942645583e-18
-2.75896942645581e-18
0
0
0
2.56618303665565e-18
0
0
0
1.92786389800252e-19
-2.56618303665554e-18
-1.92786389800244e-19
5.32515246311196e-18
0
2.75896942645546e-18
-5.51793885291156e-18
0
-1.9278638980026e-19
0
0
0
0
5.32515246311143e-18
-5.32515246311073e-18
0
0
0
0
2.75896942645585e-18
2.75896942645588e-18
2.95175581625567e-18
2.951755816256e-18
2.95175581625597e-18
-2.56618303665553e-18
0
-1.92786389800254e-19
0
0
0
0
1.92786389800243e-19
-1.92786389800255e-19
-5.13236607331131e-18
-1.9278638980023e-19
0
1.92786389800247e-19
0
0
-2.75896942645619e-18
8.06021810786243e-18
0
0
1.93330475764458e-19
-1.93470978217151e-19
3.14021139741447e-18
-1.67978308234576e-18
3.87679622988581e-19
-5.94257025591912e-18
2.03284520500004e-18
-2.34234807122974e-18
-2.4570707322261e-18
-7.52149229118346e-18
2.88097012810528e-18
1.94484311416076e-19
8.760307384223e-18
1.6237576668214e-18
1.50432246087701e-18
-2.98472573495259e-18
-3.18051263572911e-18
1.80032501912792e-18
2.12676850577267e-18
0
2.06117329878324e-18
2.6324213123171e-18
3.20574198154799e-18
1.39568067365307e-18
1.96662343136093e-19
1.52198587189761e-18
-3.04244255154348e-18
4.31248566517784e-18
2.94363105936736e-18
-2.12871968039385e-18
0
0
9.64143401240528e-20
2.17188894749034e-18
-4.29006161272386e-18
7.57289390954865e-18
0
-7.51514648807101e-18
0
-2.83439881002679e-18
0
0
-7.42060942248556e-18
-1.98553064521273e-18
0
5.58531119564034e-18
7.13264825989685e-18
-6.50868703345234e-18
-4.78903494130152e-18
-3.09155868891013e-18
0
2.62810938143398e-18
0
-1.38675933361353e-15
-1.49475305884038e-15
4.36535553109949e-18
1.9129927993211e-19
-4.11425936045189e-18
-2.23225931786036e-18
5.39478751736736e-18
3.43548739037796e-18
-1.51618896090647e-18
-6.06125348560321e-18
-2.19520912696114e-16
-2.43402796771953e-16
-2.85085973775645e-18
1.9275324737635e-19
3.51770728040421e-16
3.67268614275344e-16
0
3.56919147021312e-16
3.7531644258797e-16
0
0
3.61874778133213e-16
3.65738535516408e-16
-1.92787868998127e-19
-5.34120684990195e-18
3.64352593689215e-16
3.65945796330881e-16
3.64738169427209e-16
4.22944952776537e-18
-3.64048647276655e-16
6.06492646919696e-16
6.13249138833959e-16
0
3.64545381558167e-16
3.69521106109672e-16
0
-3.64352593689174e-16
-3.66232882743616e-16
-2.6706034249509e-18
0
0
-5.14841898090385e-18
2.86339129394948e-18
3.61681990264178e-16
3.61047789242402e-16
0
-6.24415719418353e-16
-6.08293507722101e-16
0
-3.69693800539064e-16
-3.61726960156093e-16
2.67060342495102e-18
0
5.34120684990133e-18
5.14841898090444e-18
3.69501012670071e-16
3.55634485423579e-16
5.14841898090441e-18
-2.86339129394875e-18
0
5.34120684990211e-18
0
-6.18881724699305e-16
-6.02965056172728e-16
0
2.65833365922943e-18
0
2.66796506681494e-18
1.21952984596845e-15
1.1079026706317e-15
1.81436192465461e-18
0
1.65404514021696e-18
-2.34825702706865e-18
2.45938593817267e-18
0
0
0
1.52156948061777e-15
1.43019555624162e-15
-5.70324081794972e-18
2.89904232233919e-18
0
1.43093561026274e-18
-3.27314509317715e-18
-2.07378949846736e-15
-2.0680175026023e-15
2.17289843815177e-18
-4.69037361153173e-18
5.03728294683423e-18
-8.05965523827139e-18
8.89096661867429e-18
-4.39580021077756e-18
-2.93037923005406e-18
-2.57522237498887e-18
-2.26897786743902e-18
-2.43586908887965e-18
2.17204137456784e-18
0
-4.47625433539609e-18
0
-1.97157294176964e-18
0
-2.85858916507145e-18
0
-5.45590868332942e-18
-2.91661325783754e-18
0
0
2.63785841648549e-18
2.28331817433166e-18
5.61326059629425e-18
-1.89991554927559e-19
-1.6717374317309e-18
0
0
2.79512705938613e-18
2.46494697358096e-18
4.87442293958609e-18
-5.03573654394325e-18
1.50064539473343e-15
1.29608284831544e-15
-2.29522906854899e-18
0
2.08266515711112e-18
1.97489005451584e-18
-1.67295589766089e-18
1.91781875365141e-19
0
2.93187606308643e-18
2.36460734788337e-16
2.10933051752842e-16
0
-2.57777035415125e-18
-3.6173361243401e-16
-3.47555819641497e-16
2.58536466624803e-18
-3.53977518435308e-16
-3.44805596617493e-16
1.92789405309523e-19
-5.17072933249595e-18
-3.56562883101594e-16
-3.53255216207434e-16
1.9278940530951e-19
-1.92789405309518e-19
-3.58955458362498e-16
-3.51062577659262e-16
-3.54363097245924e-16
1.90371761680931e-19
3.53822510650545e-16
-5.95197523193129e-16
-5.84623106295337e-16
1.92789405309509e-19
-3.56755672506869e-16
-3.53949124502255e-16
-1.9278940530952e-19
3.51970521984984e-16
3.53984664578496e-16
0
7.5633045934346e-18
5.17072933249598e-18
0
2.58536466624789e-18
-3.49577946724005e-16
-3.54201533149608e-16
0
5.93190526742811e-16
5.91800832078211e-16
-7.37051518812436e-18
3.52163311390296e-16
3.56431394319031e-16
-1.92789405309522e-19
0
1.92789405309523e-19
0
-3.51777732579669e-16
-3.57847577324028e-16
0
2.77815407155724e-18
7.56330459343429e-18
-2.39257526093845e-18
0
5.73471556439381e-16
6.03791961122612e-16
0
-2.76661622957571e-18
1.01835936047441e-17
-5.53798883547402e-18
-1.07517710214179e-15
-1.19010810263887e-15
-5.07820317886632e-18
-3.34331851132319e-18
1.78219265831021e-18
-1.9404833838892e-19
2.19086272573725e-18
2.29699071628334e-18
2.59760255866992e-18
-2.50940819284549e-18
-1.32095745201144e-15
-1.53778019880596e-15
5.69742626011864e-18
4.57948672716402e-18
-1.67061687701924e-18
-6.46030879368411e-18
-1.86550879677083e-18
1.86632046999876e-15
2.11737646288778e-15
0
-2.45332813320117e-18
-1.96286603901642e-19
0
0
1.41056388583246e-18
7.25221081810167e-18
-5.7338224312936e-18
-2.57197215884922e-18
-6.88091489146856e-18
-2.48331117415588e-18
0
0
0
4.36873602949405e-18
7.06210467112764e-18
-2.5725529615675e-18
-2.71818189829852e-18
-8.3388203578049e-18
-2.86802320358012e-15
-2.70170347668664e-15
2.3347707889046e-18
-2.55299776555775e-18
0
0
-1.80955555416115e-15
-1.83853381389521e-15
1.62093495575787e-15
1.67367432014292e-15
0
-1.39886004271153e-15
-1.47791546505618e-15
-4.66889825971981e-18
-4.46474605054639e-18
-6.77303239415871e-18
0
-1.91299166858423e-19
-1.07409141154281e-15
-1.20526532054156e-15
1.91646463371935e-19
-6.2304625626284e-18
5.647775931467e-18
2.83661691686463e-18
0
2.23839431658201e-16
2.37035142243189e-16
-4.99168917692222e-18
-2.31035181730559e-18
-2.23342382860469e-16
-2.26431242437258e-16
-2.11756081625135e-18
7.31663745402553e-18
-2.50314281835963e-18
0
0
-2.25845525678809e-16
-2.34274919896436e-16
0
0
-5.00628563671928e-18
0
0
-2.25652734677775e-16
-2.29844892588607e-16
-2.69593381941409e-18
1.92791001054155e-19
-2.30273438312361e-16
-4.58491617160561e-16
3.33060505497283e-16
5.71832880215374e-16
1.9279100105416e-19
5.00628563671929e-18
0
-4.8134946356651e-18
-5.65287012603044e-16
-3.3655315626629e-16
2.14585979444428e-18
-2.27832596846079e-16
-2.50314281835985e-18
0
0
0
-4.81349463566568e-18
0
1.92791001054147e-19
3.49454058197679e-16
3.31357145497271e-16
2.28348668497196e-16
2.24840721626166e-16
0
-2.50314281835964e-18
0
2.30466229313446e-16
2.24173760946234e-16
2.35086932948029e-16
2.22236314682997e-16
-2.22764009857284e-16
-2.21200876208729e-16
4.98378468784769e-18
2.55820648462263e-18
2.48662138620752e-18
-1.14855167321977e-15
-1.0230489880517e-15
3.01709692172799e-18
3.61259024241221e-18
-2.10661185447369e-18
3.83884786063171e-18
0
2.41539953451147e-18
1.94313517063178e-19
0
-7.38848643892168e-18
-2.43915936413445e-18
-1.94645336512541e-19
0
0
0
-9.84786595878692e-18
1.92042476264245e-18
-1.95562488822522e-19
1.95803655764057e-19
-8.88599635380196e-18
4.86160166982247e-18
2.7070327750057e-15
2.86731459623518e-15
0
0
-4.95280639132047e-18
2.68314087967376e-18
2.08954637964483e-18
2.21817572454351e-18
-2.21434884119969e-18
0
1.9554559251736e-18
0
6.62954499696076e-18
7.43830854217799e-18
2.61763347998678e-18
-1.02710518785523e-17
2.85357684197929e-15
2.52672452704641e-15
0
6.46722877051433e-18
-1.89504612333523e-19
3.39616434723538e-18
1.8745147960024e-15
1.64402917921105e-15
-1.69670284411158e-15
-1.48001921970273e-15
2.78528355994739e-18
1.48241837430377e-15
1.27768111240314e-15
0
-2.15138969214145e-18
4.1063567832289e-18
0
-7.81026106025385e-18
1.18747151249369e-15
1.01294699262875e-15
0
4.75316715459292e-18
-1.91922393566208e-19
5.29738208101311e-18
-5.18869644983523e-18
-2.27919117289852e-16
-2.15556620826733e-16
0
-4.84766291183627e-18
2.2461837455008e-16
2.18781065265813e-16
4.84766291183571e-18
-5.04045557049162e-18
0
0
0
2.20156296955577e-16
2.17630005728937e-16
-2.42383145591814e-18
-4.84766291183567e-18
0
1.92792658654814e-19
-4.65487025318095e-18
2.27234998664651e-16
2.21890436298978e-16
-2.61662411457295e-18
2.61662411457269e-18
2.22580128411496e-16
4.42713027656628e-16
-3.26296919171236e-16
-5.45163531170265e-16
0
-2.42383145591783e-18
2.42383145591841e-18
0
5.43794022326418e-16
3.29690923234422e-16
8.13740320441138e-19
2.19747313927856e-16
-2.42383145591788e-18
0
4.84766291183633e-18
2.42383145591789e-18
0
-7.07870170909869e-18
-4.84766291183622e-18
-3.26061556826779e-16
-3.36262512052825e-16
-2.08422724993299e-16
-2.28399614397941e-16
0
-1.92792658654814e-19
-4.65487025318089e-18
-2.1792525815831e-16
-2.18485870393174e-16
-2.13270387905107e-16
-2.27898013113521e-16
2.17925258158289e-16
2.25300172951441e-16
-4.82612864054923e-18
-1.9318197690701e-19
4.99480065906462e-18
9.91590357498669e-16
1.11082777427568e-15
1.26173249112882e-18
6.41521802130979e-18
-5.36034553214831e-18
1.94045646122241e-19
-5.5672851928907e-18
-3.90761327632852e-18
0
0
0
4.89530479132197e-18
2.4641238864677e-18
1.94744279408607e-19
0
7.46169239774769e-18
-1.95155828921315e-19
3.51759308973984e-18
1.79126270479981e-18
-5.81429822466637e-18
2.0907230111586e-18
2.24461519556032e-18
-2.51471484331287e-15
-2.84713322973234e-15
1.96646323858527e-19
5.62789621347893e-18
0
2.01768937551356e-18
-4.22844448058727e-18
4.10419990549077e-18
-1.92792658654806e-19
0
-6.05021086833502e-18
0
-1.90621990881728e-19
0
0
4.84484526352602e-18
-5.05038482209204e-18
0
-4.134276067054e-18
8.24417142720196e-18
3.73427162835953e-18
-1.53625599359864e-18
-1.60084052607538e-18
3.36715290864099e-18
1.59123739641246e-18
5.47171250249599e-18
1.9063964309713e-19
-2.75711656227437e-18
0
2.16777028240081e-18
0
0
-1.91199589590324e-19
-7.54302513620753e-18
3.58199140156297e-18
5.18142151744005e-18
-1.91646386080606e-19
-3.00233484871133e-18
-1.91922677245868e-19
-2.46401388110798e-18
0
0
6.81818836731447e-18
1.92759716391646e-19
2.34732792248735e-18
0
0
2.3473279224874e-18
-1.92794380642524e-19
-2.15453354184457e-18
-1.92794380642537e-19
-2.3473279224874e-18
-2.34732792248735e-18
0
0
2.34732792248714e-18
0
0
-4.50186146433174e-18
1.92842660798469e-16
2.07912050288625e-16
6.84918938681879e-18
-4.69465584497478e-18
-2.3473279224874e-18
4.50186146433182e-18
4.5018614643318e-18
-2.34732792248711e-18
0
2.34732792248737e-18
-2.34732792248736e-18
0
-4.50186146433164e-18
-1.92794380642536e-19
2.34732792248767e-18
0
1.92794380642535e-19
0
0
4.69465584497477e-18
1.92794380642536e-19
-4.50186146433176e-18
0
-2.15453354184457e-18
4.50186146433172e-18
0
0
2.34732792248766e-18
0
0
0
0
0
2.34732792248713e-18
-2.15453354184461e-18
-1.92829310565058e-19
6.8180737342935e-18
0
-1.93338966592177e-19
5.31151584170159e-18
5.44977759590471e-18
0
0
6.78155395417236e-18
1.94044227630849e-19
-3.77213213994122e-18
-2.07748138476876e-18
-2.17202863577251e-18
-2.07210213092154e-18
6.88872465073674e-18
4.52947479553733e-18
-7.31714099453363e-18
0
2.83359021960052e-18
0
1.68729362016726e-18
-9.98734228035412e-18
9.01304210118065e-18
-5.98757323604118e-18
0
-4.51566202527151e-18
-4.60670168814829e-18
5.055147439611e-18
-7.74377343866957e-18
1.96457708794776e-19
0
0
-1.93820823538852e-19
-1.88848487930208e-18
2.07801122975554e-18
-1.82064489959611e-18
-2.01620521579606e-18
0
2.24762776933893e-18
-9.59090126060507e-18
-5.23201266736129e-18
-4.84415055757045e-18
0
6.84227910566472e-18
-6.23906696002641e-18
-9.87732451896609e-18
-1.98640169570014e-18
0
4.6238831794675e-18
1.43809626779267e-18
-1.90367285565007e-19
5.46817535432142e-18
2.40811414675442e-18
-2.47954036463349e-18
6.93175795369186e-18
1.90931576062996e-19
-4.18685576977487e-18
-1.90707403774909e-18
1.91199595060549e-19
-3.83391863597567e-18
-6.92094610789321e-18
0
2.89642237156458e-18
-1.91782219470774e-19
1.91922971554839e-19
2.57057718631184e-18
0
-4.64605830784394e-18
0
2.26706271324531e-18
-1.92796169662239e-19
0
4.54706639553254e-18
0
6.43500725397427e-18
0
0
0
4.16147405620808e-18
0
0
2.27353319776619e-18
6.82059959329925e-18
0
-1.92796169662245e-19
-2.03453902759747e-16
-1.87665900605237e-16
-2.27353319776623e-18
-2.27353319776644e-18
0
0
0
4.73986256519481e-18
-1.92796169662242e-19
0
0
2.27353319776627e-18
0
2.27353319776628e-18
-2.27353319776646e-18
-4.73986256519466e-18
-2.27353319776621e-18
-1.92796169662248e-19
0
1.92796169662222e-19
2.08073702810401e-18
-2.27353319776627e-18
0
0
1.92796169662245e-19
0
1.92796169662249e-19
-2.08073702810425e-18
4.3542702258697e-18
-2.27353319776623e-18
-4.54706639553262e-18
2.27353319776627e-18
0
6.43500725397426e-18
-1.92796169662246e-19
0
0
0
0
-2.18336001785193e-18
5.45973563648671e-18
0
-1.44710582977413e-18
-1.73537982132348e-18
0
3.4491902502368e-18
-1.94221269765117e-19
0
0
0
-1.98758685486174e-18
-1.94632855874232e-19
-1.94734928821903e-19
8.20989952319595e-18
5.78286380587477e-18
0
2.88459089703511e-18
3.51532843717732e-18
-1.79516328076916e-18
6.19951205440686e-18
-2.07782799687446e-18
-2.01950255865658e-18
-1.96583665233683e-19
7.45982893759789e-18
7.6737552276608e-18
6.91358815188762e-18
-4.11902282046807e-18
5.83508743806042e-18
0
3.83408596885442e-18
1.85478402164244e-18
1.95377548767835e-18
-3.62939587732309e-18
0
1.89512110625823e-19
1.88893125137208e-19
-4.85021472427178e-18
-4.50005578749824e-18
0
-1.81162850794766e-18
0
-5.18743632525059e-18
1.89772258106176e-19
1.90002833479243e-19
0
0
-7.73099310913322e-18
-2.31977614553055e-18
4.60082860839859e-18
1.90847135273019e-19
-6.41991516793229e-18
0
-5.89583954724485e-18
0
0
6.30369177903918e-18
-7.82020189957044e-18
0
-2.99982598000277e-18
0
-2.10395065667708e-18
-4.70867064195849e-18
2.25002555540731e-18
0
-4.19951311152034e-18
0
0
0
0
2.20235176950452e-18
0
0
-2.2023517695045e-18
0
2.2023517695045e-18
-2.39514979798337e-18
0
0
-6.60705530851305e-18
-1.92798028478619e-19
4.21190551053047e-18
0
6.41425728003509e-18
2.04922559244406e-16
2.120116552017e-16
-1.92798028478611e-19
-1.92798028478611e-19
0
0
0
1.92798028478624e-19
2.20235176950452e-18
0
0
2.00955374102591e-18
-6.41425728003515e-18
0
0
1.81675571254731e-18
2.04536963187425e-16
2.05534646737677e-16
0
-4.21190551053048e-18
-8.61660904953974e-18
4.21190551053038e-18
0
-1.92798028478606e-19
0
1.9279802847862e-19
0
2.20235176950451e-18
0
-1.92798028478603e-19
-4.40470353900951e-18
0
0
0
-1.93188355130138e-19
1.93342836722353e-19
0
5.08897396821342e-18
5.22869511198472e-18
-8.76270418753978e-18
1.68041207535029e-18
-3.14984755306331e-18
5.18154158171631e-18
-3.69333483861287e-18
-1.94301972079521e-19
0
0
4.39943680297174e-18
-2.20370166173574e-18
0
0
0
-3.90270485348637e-19
3.16047812159007e-18
4.98861690300082e-18
1.9232520580955e-18
-3.72500851321443e-18
-4.19396708979443e-18
1.96421628949071e-19
-2.2485643779359e-18
-2.32979758578229e-18
-4.67346632112885e-18
-3.20208149037175e-15
-3.31354269485289e-15
-1.93825399412615e-19
3.71566600735423e-18
5.6606746271531e-18
-6.98597328385327e-18
0
0
-2.10539700522121e-18
-1.89513843607025e-19
-4.68868616281184e-18
2.43140076551902e-18
0
-8.39724753188309e-18
5.77335104471016e-18
-9.3456997413527e-18
3.32763356896795e-18
4.80722329715318e-18
-1.90005314603194e-19
0
-4.81503445929072e-18
-2.35972033660355e-18
-9.31956022727968e-18
-1.90751862256145e-19
0
2.13016659060717e-18
0
3.5422542336081e-18
0
-1.91298847367783e-19
0
-6.12052042199208e-18
3.26974150503255e-18
0
-5.1114984979111e-18
2.21645539458952e-18
0
4.35921415628974e-18
2.31714360556594e-18
2.12772598655523e-18
0
0
-1.92799959982383e-19
-1.92799959982406e-19
0
0
-4.07458305995674e-18
2.13369150996911e-18
-2.13369150996935e-18
-2.13369150996908e-18
0
1.9408915499869e-18
0
6.20827456992479e-18
1.89397496208319e-16
1.9472921638819e-16
0
2.1336915099691e-18
-1.93664879228238e-16
-1.93042054163048e-16
6.40107452990732e-18
0
0
2.13369150996908e-18
-2.13369150996957e-18
-6.20827456992495e-18
0
0
-2.13369150996933e-18
0
0
-1.92799959982394e-19
2.13369150996929e-18
0
-1.93472079268234e-16
-1.96504610334855e-16
-8.14916611991376e-18
0
0
0
1.92799959982387e-19
0
-4.26738301993822e-18
-1.9279995998239e-19
-1.92799959982398e-19
0
0
0
0
4.26738301993871e-18
-1.92835100127154e-19
4.0563783635228e-18
1.93190648864298e-19
-2.27984996268007e-18
1.93482394011983e-19
2.36223625853229e-18
5.23851711533686e-18
0
2.67294447726514e-18
3.03684881207354e-18
-5.00175486206848e-18
-1.94216015333981e-19
0
-1.94379018784954e-19
-2.13264877160138e-18
2.22012443251085e-18
0
0
-2.35806784524077e-18
-2.69583729253423e-18
2.8596378639468e-18
0
-6.54187795741058e-18
0
1.98777746691166e-18
-2.11894590356989e-18
8.39789293412206e-18
1.96646573340856e-18
-4.8767475783002e-18
4.30300969902804e-18
3.04079020727012e-15
3.22764642608181e-15
0
1.89412312050673e-18
0
0
-3.4783663798455e-18
0
1.65678553435475e-18
2.94093649920222e-15
2.79245914467562e-15
-4.3156256894099e-18
-8.516248970722e-18
-4.13616594819318e-18
0
-3.63963537989048e-18
6.59279919883126e-18
2.96247996180863e-18
0
0
2.60038279508132e-18
0
2.15238251879083e-18
0
-4.09592543524551e-18
1.9093256157004e-19
3.76600212625507e-18
1.89784647958212e-18
0
0
-1.91404644804581e-19
5.7242540439482e-18
1.91646213865739e-19
5.06270210850347e-18
2.28133669259669e-18
2.1397025589178e-18
-2.20814819012422e-18
-1.9192786000171e-18
-1.92588750243754e-19
0
0
0
2.06746355680191e-18
0
0
1.87466158960497e-18
-2.06746355680212e-18
-4.13492711360427e-18
3.94212514640769e-18
0
1.92801967197054e-19
2.0674635568019e-18
-1.92801967197063e-19
0
-1.94546473664448e-16
-1.87665181606799e-16
-2.06746355680213e-18
-5.81678673601161e-18
0
-1.87466158960486e-18
0
0
-1.92801967197048e-19
0
-1.92801967197042e-19
-2.06746355680177e-18
-3.94212514640718e-18
1.87466158960508e-18
-2.06746355680212e-18
2.06746355680191e-18
0
2.06746355680191e-18
-1.92801967197056e-19
-1.87466158960508e-18
1.92801967197059e-19
0
0
0
0
0
-5.81678673601161e-18
0
0
0
0
-4.13492711360379e-18
-2.06746355680235e-18
2.06746355680191e-18
0
0
1.92837183123212e-19
5.98360607454656e-18
-4.22321435239068e-18
-2.2081200132639e-18
0
-4.75322769993347e-18
-1.93725717579404e-19
-2.59734676917783e-18
-5.72311792908076e-18
-3.31592123540309e-18
-1.94127736808306e-19
0
5.31173097822091e-18
-1.78649558327952e-18
5.79660711851765e-18
4.09743569577755e-18
-2.04510021426024e-18
8.99351291228149e-18
-4.93180646370944e-18
0
-2.37027639527487e-18
0
-6.11495429104885e-18
-1.40356165073545e-18
-1.72361057332854e-18
4.09103887281552e-18
4.14039392407878e-18
3.96452710220411e-18
0
-4.33159404122939e-18
-8.44525499071689e-18
7.78818131690668e-18
0
0
-1.92801967197037e-19
9.64305221017965e-20
0
1.82550510004299e-18
3.75546121413488e-18
-2.87230892106434e-15
-2.63249114512006e-15
0
-1.81359048293909e-18
5.8829383306003e-18
0
-4.97810239888717e-18
0
-1.42539406755923e-18
1.90010519396139e-19
2.4718132120289e-18
7.34257901846514e-18
1.90517981256228e-19
-3.95557649326757e-18
-2.16192725434715e-18
1.69013719897284e-18
1.99098042603195e-18
-1.72225770883737e-18
-5.12500599457286e-18
6.6510007555476e-18
0
6.03173861066794e-18
-1.91519255492555e-19
-1.91646166821601e-19
-2.34982244088069e-18
6.9891397220622e-18
1.92073520966495e-19
-6.03226954376357e-18
3.89992283454519e-18