/*--------------------------------*- C++ -*----------------------------------*\
  =========                 |
  \\      /  F ield         | OpenFOAM: The Open Source CFD Toolbox
   \\    /   O peration     | Website:  https://openfoam.org
    \\  /    A nd           | Version:  7
     \\/     M anipulation  |
\*---------------------------------------------------------------------------*/
FoamFile
{
    version     2.0;
    format      ascii;
    class       volScalarField;
    location    "20000";
    object      Dk;
}
// * * * * * * * * * * * * * * * * * * * * * * * * * * * * * * * * * * * * * //

dimensions      [0 2 -3 0 0 0 0];

internalField   nonuniform List<scalar> 
15600
(
0.00543093325727152
0.00407423107872342
0.00178601306440589
0.000530705702792721
0.000125008229417241
0.000141807125217915
6.97150180548952e-05
1.43252894315589e-05
4.5089897209235e-06
3.24925090979902e-06
2.81851195940154e-06
2.79194827854767e-06
2.9658253949532e-06
3.30679973025096e-06
3.83410282625374e-06
4.55146023112619e-06
5.48829124326248e-06
6.67705227347809e-06
8.14766688630939e-06
9.91311324810359e-06
1.19571617421482e-05
1.42502541868377e-05
1.67920546673081e-05
1.92943557021849e-05
2.14836357531271e-05
2.30021981314313e-05
2.34488398610663e-05
2.2471353550532e-05
1.99991817826062e-05
1.62874984044691e-05
1.19730576114803e-05
8.05149837435187e-06
5.23194982750784e-06
3.72278183726793e-06
3.15756646021532e-06
3.4343611962695e-06
4.30688019365759e-06
5.66747506564807e-06
7.48687874903696e-06
1.00126655259509e-05
1.34828749367169e-05
1.81328983050086e-05
2.41665612047329e-05
3.17653147710442e-05
4.10506336504503e-05
5.20457971391383e-05
6.46836558835202e-05
7.88283510726077e-05
9.43037142500877e-05
0.000110922380239706
0.000128508525110674
0.000146912546752934
0.000166018021020449
0.000185743389753925
0.000206040575397599
0.000226892472680186
0.000248310377914565
0.000270332085049266
0.000293020785209402
0.000316464940782319
0.000340778975498799
0.000366104830208186
0.000392614248373379
0.000420511852684783
0.000450039036408676
0.000481478828116003
0.000515161971462705
0.00055147459450564
0.000590868085672199
0.000633872018871455
0.000681111454763983
0.000733330476767454
0.000791424924024265
0.000856488839700512
0.000929881900378842
0.00101333080397572
0.00110909176752777
0.00122022526324008
0.00135109905535921
0.00150853541315961
0.00170504121834275
0.00196843011544566
0.00232193786425874
0.00274889802172321
0.00326074176474387
0.00320812383607861
0.00148531795047425
0.000856247677148228
0.000633792570654405
0.000561639114070952
0.000587746365983534
0.000665543740772513
0.000785088504292371
0.000952307825599118
0.00117004942228879
0.00143500655982283
0.00174727508912236
0.00210818873453139
0.00251332790909765
0.00295394780780423
0.00340337665524804
0.00381506166672158
0.00417674700215542
0.00448958977575335
0.0047588192294854
0.00499511027229743
0.00521983900158747
0.00547501781287626
0.00585915789303923
0.00646637027888411
0.0073298700302344
0.00864810602981181
0.010580979739354
0.0141820290951806
0.0205664267307209
0.0319745538344415
0.0306890707879936
0.0176809406544097
0.00938702084867233
0.00624078636548927
0.0296240899567249
0.0222503978719945
0.00984217408436694
0.00299241313534411
0.000719660205010279
0.000782701991593191
0.000396990806772102
8.64731126374697e-05
2.62735007331022e-05
1.81155322560201e-05
1.55628024560802e-05
1.53280572152915e-05
1.6224341286991e-05
1.80352414522837e-05
2.08613722004216e-05
2.47211377629461e-05
2.97702308397727e-05
3.61850087750094e-05
4.41314134414479e-05
5.36880213137269e-05
6.47742304648513e-05
7.72177371674806e-05
9.10737019412726e-05
0.000104815076896782
0.000116966878896871
0.000125609837167858
0.000128570213714389
0.000123853758968391
0.000110904300578872
9.09440733716072e-05
6.72959483082327e-05
4.54150704139338e-05
2.94243227676537e-05
2.07752626652995e-05
1.7439986702639e-05
1.88599299098509e-05
2.36515098537585e-05
3.11318085843267e-05
4.11350270284221e-05
5.50271595473063e-05
7.4116601541844e-05
9.96963794210401e-05
0.000132889677003829
0.000174684952113863
0.000225753736787587
0.000286215913145203
0.000355692638961231
0.00043343142959745
0.000518462864354752
0.000609761084804029
0.000706368160272342
0.00080747334928824
0.000912449968615609
0.00102086364982976
0.00113246423455525
0.00124717184246721
0.00136506294724206
0.00148636016605266
0.00161142662175944
0.00174076556401058
0.00187502451015608
0.00201500403314127
0.00216167047298755
0.0023161728858111
0.00247986423971474
0.00265432770412108
0.0028414091525016
0.00304325776519353
0.00326237778168354
0.00350169554750241
0.00376464837081396
0.0040553042991059
0.00437852713229782
0.00474020824945911
0.00514760008952734
0.00560981386486993
0.00613860780549591
0.00674970896193091
0.00746526218102843
0.0083193946423043
0.00937356360674664
0.010769982969061
0.0125276732403538
0.014484398787095
0.016283658355075
0.0151748549823697
0.00769006650245643
0.00458982135939879
0.00345984018408124
0.0031071293095347
0.00327554152102402
0.00372400069991453
0.00440411254542528
0.00534837256472555
0.00656827774761817
0.00804463048261995
0.00977843751428471
0.0117755061217762
0.0140051064444137
0.0164014595559557
0.0188227411927451
0.0210329691470015
0.0229774319214493
0.0246656619553504
0.0261271524273802
0.0274219160483216
0.0286699127387571
0.0301093470161461
0.0322793671998661
0.0356767017523049
0.0404986046882121
0.0478289119333503
0.0586289183972402
0.0786261213657939
0.113704111702368
0.17322488037945
0.164985577634593
0.0959211512518757
0.0513438472950707
0.0341444832591066
0.0714846651420382
0.0539248935945229
0.0241586475891607
0.00747829856187118
0.00182314357481865
0.00190175331254105
0.000996064031681972
0.000229453290479127
6.79247386382277e-05
4.48057916606838e-05
3.80938072049379e-05
3.73097536459304e-05
3.93526929944155e-05
4.36077157574822e-05
5.03095669370394e-05
5.95006662034527e-05
7.15440915836734e-05
8.68611781144866e-05
0.000105854317040677
0.000128725035736091
0.00015529813753825
0.000185079575235068
0.000218292754296684
0.0002513390750932
0.000280692454518654
0.000301840848118229
0.000309692756354647
0.000299541125081222
0.000269735537758444
0.000222875769892691
0.000166431424111851
0.000113150813814492
7.33074720018362e-05
5.13482898662535e-05
4.26073323433682e-05
4.57966289041052e-05
5.74735688876725e-05
7.57261122428119e-05
0.000100204188912731
0.000134295763906694
0.000181278478533664
0.000244398869304655
0.000326277961327473
0.000429634590262819
0.000556081836923896
0.000705812168650477
0.000877783803435966
0.00107002720635926
0.00128006530250035
0.00150532600566745
0.0017434509804528
0.00199248174560765
0.00225093799444799
0.00251782617891619
0.00279261083775007
0.00307517406614731
0.00336577711979464
0.00366503140192002
0.00397388083192131
0.00429359554268613
0.00462577524761571
0.0049723611772275
0.00533565449334553
0.00571834084959685
0.00612351985565383
0.00655474011946261
0.00701604031848696
0.00751199845679558
0.00804779284556201
0.00862927988315065
0.00926309683487465
0.00995680080069905
0.0107190605373039
0.0115599243438151
0.0124911988457636
0.0135269991641759
0.0146845858450354
0.015985693896815
0.0174588837771704
0.0191447233748366
0.0211088617093433
0.0234184651836112
0.0256779624398235
0.0274270193311845
0.0275590710019195
0.023985593641008
0.0153592881526987
0.0104082472417677
0.00834754786173424
0.00775587458784529
0.00825090787223166
0.00941591410669942
0.011147252901488
0.0135140773423096
0.0165277638951101
0.0201400785033362
0.0243543707878112
0.0291737771971366
0.0344185112859725
0.0399862261891004
0.0455431393122889
0.0506335133893406
0.0551618629644951
0.0591539468881663
0.0626760649332944
0.065867807653692
0.069012749263176
0.07268760623108
0.078148315727367
0.0865191522266546
0.0983398206052721
0.116127443973683
0.142357217698536
0.190060444126179
0.27152998898805
0.399398347563448
0.380950723461549
0.23126576670984
0.126426982273849
0.0834238860348728
0.124982697774921
0.0947195916532211
0.0433838500867686
0.0136051288585092
0.00332136485969054
0.00330272482985167
0.00178760132061842
0.000435233703545969
0.000126429908678706
7.96849021020955e-05
6.69497912233058e-05
6.51880893923577e-05
6.85122672939941e-05
7.56791323579336e-05
8.70764040110634e-05
0.000102774621793358
0.00012337743375895
0.000149599569732794
0.000182126805282788
0.000221302916762375
0.000266816744295989
0.000317569093634186
0.00037398688207954
0.00042997088463815
0.000479462729495592
0.000514976479883303
0.000528163469278175
0.000511832274124177
0.000463018039721982
0.000385728590655575
0.000291541658952696
0.000200720522259126
0.000130799950613855
9.10475931003318e-05
7.48101513765858e-05
8.01924308607937e-05
0.000100964527209466
0.000133436489929523
0.00017739445390136
0.000239176914465387
0.00032506452423855
0.000440389005149778
0.000590758126610878
0.000781108666813042
0.00101343562901713
0.00128691307940667
0.00159825036579284
0.00194254191358069
0.00231426791089598
0.00270813247438814
0.00311959281918154
0.00354509566764664
0.00398210415416235
0.00442901203796642
0.00488501439995124
0.00534997726781044
0.00582432545049969
0.00630895365589901
0.00680516016435361
0.00731459762324849
0.00783923699816579
0.0083813392155785
0.00894343133700492
0.00952828432457005
0.0101388905953658
0.0107784409023265
0.0114503002663567
0.0121579848402005
0.0129051405407011
0.0136955254474772
0.0145329944866788
0.0154214818673087
0.0163649656599842
0.0173673836470853
0.0184324380360811
0.0195631852508078
0.0207612233905452
0.0220251444060066
0.0233477908868331
0.024711805184765
0.0260803710643661
0.0271484395423137
0.0277010425361681
0.0274028125944742
0.0258339378705654
0.0232463065441047
0.019550933241123
0.0158040164886842
0.0140827220757524
0.0138477405787914
0.0149395815510714
0.0170846564241088
0.020152436721009
0.0242188314033992
0.0292732993442302
0.035247733686691
0.0421556778148216
0.0498285866477482
0.0580506681598096
0.0666746561653755
0.0752604797244303
0.0833418376949231
0.0907999289436397
0.0976510769748992
0.103963647253549
0.109925118756485
0.115962561290381
0.123011703833604
0.133043638046827
0.147805840794942
0.168364769299807
0.198684563657116
0.243082844837093
0.321052633363449
0.447373952331913
0.621515084730433
0.591280603699316
0.388361588353203
0.225405509364449
0.149221567068066
0.186120660651968
0.142208943609867
0.0679736163510442
0.0215996158802541
0.00520939255297561
0.00488662209520936
0.00273468947654221
0.000703778217442366
0.000201987828498676
0.000121545041773846
0.000100747212939713
9.74860255111428e-05
0.0001020812548383
0.000112399057372476
0.000128974216211864
0.000151904302416335
0.000182037496206548
0.000220390824673492
0.000267925909721953
0.000325077827375348
0.000391268330589033
0.000464347624753028
0.000544750563926065
0.000623622456775008
0.000692058582564966
0.000739680082522464
0.000755316214519422
0.000730617670433599
0.000662433235956292
0.000556164484895727
0.000426514635042569
0.000299064483823808
0.000197746800536088
0.000137428416863878
0.000112477225097175
0.000121106116732312
0.000153665444274219
0.000204583516335427
0.000274908478751227
0.000375478444405958
0.000515374251755205
0.000703474558496878
0.00094862356277297
0.00125450273235215
0.00161894719807136
0.00203462971943754
0.00249110349367148
0.00297721942264732
0.0034830076204194
0.00400062995254156
0.0045245617135401
0.00505132508052862
0.00557905926804584
0.00610709413682378
0.00663559838339381
0.00716531506595895
0.00769737442976743
0.00823316322950061
0.00877423573043377
0.00932224905824511
0.00987891710208097
0.0104459718501416
0.0110251323268864
0.0116180747381061
0.0122264051727987
0.0128516313719103
0.0134951322185914
0.0141581221109068
0.0148416017255742
0.0155462865769133
0.0162724923981504
0.0170199526485768
0.0177875244671199
0.0185727295604564
0.0193710491540527
0.0201748819806115
0.0209720372614095
0.0217436194606969
0.0224613632634096
0.023085986864023
0.023496691022503
0.0235686845066096
0.0232325736611749
0.0224741336122956
0.0214136766212084
0.0207153548383041
0.0202987800095037
0.0187334148060844
0.0184565810095545
0.0192540776480543
0.0212146272389836
0.02431836863142
0.0285018676626802
0.0337924772958618
0.0401663256704243
0.047590804354749
0.0560304874041321
0.0651676546708466
0.0749667580433969
0.0852223279103218
0.0956387484576753
0.106044870950352
0.116319497998244
0.126457484178409
0.136487433603934
0.146567495011106
0.157149083362398
0.169364776097357
0.185537945566395
0.207775788200522
0.237807589570421
0.280478532430288
0.341565474423463
0.442235783657758
0.590406718552744
0.752503328903394
0.701497754861263
0.507415262278227
0.328684761748181
0.227088803670421
0.243663074169142
0.189297514677692
0.0979731797991969
0.0320656168449064
0.00754545712942741
0.00658898001230926
0.00381418222216951
0.00103855915905504
0.000296486731805764
0.000170328648998092
0.000139033690822768
0.000133639203766582
0.000139407986577816
0.000153003870466353
0.00017507741199016
0.000205742311139366
0.000246064798530715
0.0002973227372798
0.000360663899946839
0.000436441170618419
0.000523515315255144
0.000618059487601965
0.000719941007203253
0.000817441859724221
0.000898695107272147
0.000951067778893272
0.000962191008259241
0.000924102278431525
0.000836985673118977
0.000707402931743923
0.000551584184127481
0.000396294057390463
0.000268509690380474
0.000188142409424227
0.000155096697414488
0.000169698825872194
0.000218527839270752
0.000295056288815889
0.000403788586017227
0.000559589413095976
0.00077405812483052
0.00105892959616825
0.0014173841664146
0.00184243772981645
0.00231895910345088
0.00282843492067914
0.00335394499092526
0.00388296113606839
0.00440783895512473
0.0049248898973763
0.00543310025365705
0.00593303034039664
0.00642606029148787
0.00691393103718353
0.00739849314613601
0.0078815769221151
0.00836493233105884
0.00885020011631894
0.00933890026463196
0.00983242202958021
0.0103320173159465
0.0108387877118263
0.0113536711969292
0.0118774209203125
0.0124105797572865
0.0129534444307029
0.0135060171214658
0.0140679392868114
0.014638397974907
0.0152159978984725
0.0157985835553508
0.0163830010277706
0.0169647801859773
0.0175377271684525
0.0180934124294257
0.0186205643486635
0.0191043842261503
0.0195258096806258
0.0198605815432174
0.0200764700645805
0.0200980087256739
0.0199110098341632
0.0195341430928895
0.019074948754151
0.0187669851692607
0.0190877649799565
0.0198498747643487
0.0196085499770305
0.0204463665941557
0.0220839804266587
0.0246851301068861
0.0282939015855144
0.0329094152651188
0.038489910452464
0.0450286729891162
0.0525590209274786
0.0608531693419486
0.0698725688507839
0.0795495365262734
0.0897178438359577
0.100340505688318
0.11158757324472
0.123411233096974
0.135905064654722
0.149186144464004
0.163484639527049
0.179293357142781
0.197768009245796
0.220984851436155
0.250812551415062
0.289428888367484
0.341382294856191
0.412554409509589
0.518561841133741
0.653004358054691
0.752855712289543
0.683467839997072
0.539255317555776
0.400686495072525
0.298554717752843
0.282209599363945
0.223886466823941
0.130829144266879
0.045690244159478
0.0104640489166072
0.00834567360195306
0.00499692955464752
0.00144262025233778
0.00041242376544843
0.000226387263808117
0.000181636470342386
0.000173344198446424
0.000180115340400561
0.000197035811160044
0.000224807051997549
0.000263526863397951
0.000314405326382571
0.000378857320904196
0.000457993803247751
0.000551722109530955
0.00065782754936425
0.000770059754578256
0.000886709356996415
0.000993479042077065
0.00107599819832825
0.001120980697104
0.00111755253025043
0.00106092411387826
0.000956778180155604
0.000813597306427642
0.000646447769381192
0.000478753823143196
0.000335787606653421
0.000240593154346339
0.000203016726880639
0.000229200555049904
0.000301974825219856
0.000415980920390294
0.000579000381650452
0.000806823159595231
0.0011123401417601
0.00149662033052348
0.00194634921886088
0.00243786592192212
0.0029460366953331
0.0034517019747018
0.00394445401141994
0.00442104720289312
0.0048824720504186
0.00533149854589363
0.00577127932544469
0.0062047261129217
0.00663433491439144
0.0070621905747534
0.0074900350649432
0.0079193333048536
0.0083513267342968
0.00878706415308996
0.00922741911959116
0.00967309012831254
0.0101245940641251
0.010582247101956
0.0110461418062175
0.0115161141368316
0.0119917051393683
0.0124721125450597
0.0129561323530008
0.0134420883794492
0.0139277456929642
0.0144102086026715
0.0148857987983117
0.0153499175312649
0.0157968921912685
0.016219821186437
0.0166104340601558
0.0169590137298094
0.0172544562351188
0.0174846514240101
0.0176376858855809
0.0176875047506812
0.0176183495274225
0.0174514763816008
0.0172438039892482
0.0171273965739486
0.0173176864768388
0.0180992429191986
0.0192470350478507
0.0196578089590916
0.0210294558944312
0.0230373523273713
0.0258689321356701
0.0295295670697346
0.0340504611523538
0.0393484103968252
0.0454397488572155
0.0523024778229983
0.059819955943543
0.0679887157243367
0.0767393247302987
0.085972624311045
0.0958183637797053
0.106600180768589
0.118345467976649
0.131272746919115
0.145657019072604
0.161919543106008
0.180746308359095
0.203387933014093
0.231507477947981
0.266355282061965
0.309972463077651
0.365481155351079
0.437313317065822
0.531679289823084
0.631714294623011
0.67124963930494
0.601124221305988
0.502598361399866
0.424203077229539
0.342208128699212
0.297871349974708
0.239147068684528
0.161793539499944
0.0627965191888011
0.0142094669839726
0.0100866529017197
0.00623756680190215
0.00191606883939301
0.000552392921816381
0.000290234333369346
0.000228451689570839
0.000216345701097694
0.000223871277747425
0.000244080014673375
0.000277611361322774
0.000324474553709455
0.000385871648795765
0.000463102428666066
0.000556827103677775
0.000665907596139403
0.000786340467320596
0.000908844302820111
0.00102897663559932
0.00113115825489818
0.00120023971682816
0.00122514257105466
0.00119965670022833
0.00112436450249773
0.00100937419175691
0.000864994480493408
0.000702164330769177
0.000538408799833525
0.000394221900717853
0.000293321479521342
0.000258056758379177
0.000304941427418007
0.000412916275709619
0.000577804064582569
0.00080642925935145
0.00111489299953909
0.0015026512388231
0.00195133109698461
0.00243089903354766
0.00291183084475067
0.00337555404672984
0.00381605887329493
0.00423570009334629
0.00463994098698215
0.00503425838197255
0.0054229748457824
0.00580920639325327
0.00619512867534363
0.00658228637179248
0.00697181135894679
0.00736456846332404
0.00776123131434544
0.00816232148121722
0.00856821614394299
0.00897914242731052
0.009395157044115
0.00981612225251335
0.0102416732981134
0.0106711851883908
0.0111037342275461
0.0115380589990109
0.0119725185311675
0.0124050494707647
0.0128331233450086
0.0132537038505508
0.0136632087907571
0.0140574781997467
0.0144317578987794
0.0147807064485108
0.0150984457562049
0.0153786803583657
0.0156149341011103
0.0158009754353528
0.0159315958292317
0.0160043228785844
0.0160057736102306
0.0159497347301909
0.0158720769659411
0.0158412929234943
0.0159813211683268
0.0164618792207904
0.0174407406684348
0.0187122415052359
0.0194558500020768
0.0210425273547666
0.0231585953001112
0.0259967685225901
0.0295055877650411
0.0337354710982238
0.0385933905249818
0.0440832253415454
0.0501910181187314
0.0568699362465686
0.0641065894533017
0.0718437128154865
0.0800388561273634
0.0888888290103353
0.098733586017438
0.10963682130989
0.121871488071115
0.135792239412423
0.151931835559387
0.171107164590494
0.194623875488355
0.223854530149899
0.259585622792699
0.303370231060549
0.356795924158929
0.422402736934106
0.49902316316187
0.567731596722556
0.574114811665125
0.513810819434456
0.443007381348124
0.411289264248657
0.354884915741694
0.297375674806482
0.237872931451635
0.186625268948003
0.0828461979123412
0.0192099706502462
0.0117479901605488
0.00746765601037627
0.00245335148831162
0.000718599678326342
0.000362409757773866
0.000279345719972932
0.000262335079377624
0.000270275327178459
0.000293626599044529
0.000332784841175457
0.000387530555870934
0.000458792489682126
0.000547335080229608
0.000652745935825589
0.000772071495283528
0.000898844295703195
0.00102087352926446
0.00113049793145726
0.00121382950970145
0.00125804624043787
0.00125726285891908
0.00121131830575715
0.00112519630685544
0.00100992082574873
0.000875579013077511
0.000727907811932919
0.000578748120582977
0.000444082470162362
0.000347482092176856
0.000323754992975599
0.000402969538151084
0.000557630790754134
0.000779835067113812
0.00107812776320641
0.00145457115852431
0.00188883434807827
0.00234653254559475
0.00279521650477263
0.00321682881515545
0.00360964271702116
0.00398087562147233
0.00433948450839757
0.0046924655039811
0.00504434158588391
0.00539772136907699
0.00575405401172791
0.00611413644564161
0.00647843601678756
0.00684724284308753
0.00722074541337435
0.00759904634801025
0.00798215748180827
0.00836997554735618
0.00876225415725823
0.00915856852195398
0.00955828165308932
0.00996050769367196
0.0103640787634005
0.0107675125711337
0.0111689851249786
0.0115663083757923
0.0119569154318427
0.0123378560910421
0.0127058043892259
0.0130570838208799
0.0133877137573519
0.0136934868747646
0.0139700871751087
0.0142132682404162
0.0144191165138522
0.0145844416195663
0.0147073447785249
0.0147880265821618
0.0148300187530598
0.0148328592662072
0.0148217730868475
0.0148384429508361
0.014950944988448
0.0152651479277082
0.0159066241772559
0.0169613171054942
0.018265342515465
0.019192520268323
0.0208500381647052
0.0229637782714058
0.0257083320846199
0.0290246488623713
0.0329348586769627
0.0373494285536886
0.0422800871346297
0.0477399229848782
0.0536915235248246
0.0601207434587155
0.0669861911976309
0.0742854461249527
0.0822297681342164
0.0911259435400809
0.101052324541451
0.112286963952447
0.125196576366215
0.140331059192931
0.15851707551086
0.180988476019771
0.208877849929823
0.242708789756389
0.283515960669479
0.331890075184437
0.388954749326436
0.449845347755862
0.497731779027925
0.490513565830823
0.441074097778144
0.38596786686939
0.380822547922747
0.346501450057427
0.288257827318312
0.226974473776804
0.203283612870572
0.104472593693846
0.0259941172968701
0.0133027310514167
0.00859475430084016
0.00303987879669787
0.000912198021308339
0.000443343032308523
0.000334080287921741
0.000310874098187587
0.000318769463092648
0.00034495693437538
0.000389314162604237
0.000451158688034737
0.000530747031041918
0.000627733964715284
0.000739917493143718
0.00086189485099535
0.000984644869182603
0.00109440406467769
0.00118191377132335
0.00123833422205631
0.001255982358891
0.00123467496412902
0.00117831211104795
0.00109294446859289
0.000987355312870761
0.000869126662938215
0.000741502195413254
0.000610831074212092
0.000490988029340428
0.000406846715781124
0.000404753344713409
0.00052738516286153
0.000732855977391904
0.00101469381966536
0.00137106665794503
0.00178457891664599
0.00221938205979841
0.00263969666053036
0.00302685661888304
0.00338146692676248
0.00371475264778021
0.00403842639116828
0.00436062336600683
0.00468572224708691
0.00501570534646549
0.00535124886178906
0.00569246271289593
0.00603922873088828
0.00639137206721721
0.00674870139691465
0.0071110132079211
0.00747806177172722
0.00784952630818321
0.0082249695906367
0.00860379996062622
0.00898523162071927
0.00936825014104566
0.00975157969505201
0.0101336573787563
0.0105126134723611
0.010886261613779
0.0112521000675679
0.0116073268628458
0.0119488720352434
0.0122734489938503
0.0125776301216907
0.0128579500826204
0.0131110452377868
0.0133338379497464
0.0135237827490538
0.0136791968822985
0.0137997120817439
0.0138868914492143
0.0139450023923101
0.0139811745187744
0.0140044793089127
0.0140441348471623
0.0141425368925322
0.0143620630558383
0.0147890569111335
0.0155144034842966
0.0165882805546428
0.0178902221425998
0.0189249155512239
0.020589199723932
0.0226576966522543
0.0252776297592089
0.0283881597055931
0.0319989607689546
0.036029017771662
0.0404984356102448
0.045424749562805
0.0507781951611651
0.056547290605761
0.0627058550151653
0.06927756468711
0.0764655234968427
0.084534094048659
0.0935680977170191
0.103830615163448
0.1156714434198
0.129613139639888
0.146429108257619
0.167216207755265
0.192896438973658
0.223830544502348
0.260630206732481
0.303375915783685
0.352328522192946
0.401349193872882
0.436390000860049
0.424607477106098
0.383831677292006
0.33817357469239
0.345413569319526
0.327337346043349
0.275099147749136
0.212485666885401
0.211649226817849
0.126332057556282
0.0347549029545108
0.0148024271895418
0.0095152578135772
0.00364848601320969
0.00113234502725468
0.000533168135774598
0.000392235414327816
0.000361321756938874
0.000368552233618679
0.00039703622879813
0.0004457447390282
0.00051319709297567
0.000598480629662914
0.000699546499436448
0.00081190448128089
0.000927731749768598
0.00103651570804005
0.00112527065115967
0.00118655292469391
0.00121759185186805
0.00121612048380229
0.00118526783358013
0.00112971338527724
0.00105404017555613
0.000963825629953849
0.000863864797865838
0.000755972415042054
0.000644908266676391
0.000541964408682217
0.000476409330106409
0.000505693690695006
0.000675538703115107
0.000933758268161857
0.00126661676384288
0.0016563208096232
0.00206940033928303
0.00246773641686993
0.00282929156870165
0.00315505061849287
0.00345877331806591
0.00375500543168694
0.00405304660422864
0.00435736538473102
0.00466937888470328
0.00498912830709922
0.00531610857616085
0.00564971945134135
0.00598939263956629
0.00633463873225159
0.00668501498913785
0.00704009034478515
0.0073993937028178
0.00776236968543276
0.00812833206597534
0.00849642437005938
0.00886558229256466
0.00923450376590849
0.00960162426152516
0.00996510200181359
0.0103228131367144
0.010672360483456
0.011011097670707
0.0113361711807013
0.0116445832535308
0.0119332772309373
0.0121992491847428
0.0124396883638687
0.0126521528607745
0.0128347877048809
0.0129865994433482
0.0131078070979255
0.0132003030534761
0.0132682782494767
0.0133191530489037
0.0133614296293355
0.0134111099244733
0.0134976760636276
0.0136614779712307
0.0139572025881729
0.0144536709458637
0.0152173552642583
0.0162837223833114
0.0175689776317302
0.0186683401926427
0.0203104472975053
0.0223179077557942
0.0248086396638408
0.0277257712602982
0.0310718351051233
0.0347783428389586
0.0388674928282842
0.0433561900222928
0.0482215624255026
0.0534558082136408
0.0590457842348321
0.0650311884257426
0.0715985528552879
0.0789734866875207
0.0872440917008176
0.0966526209259858
0.107523342908774
0.120337668172663
0.135796636944678
0.154850602425565
0.178248625285555
0.206233269335617
0.239111143387697
0.276735980525452
0.318862440865068
0.359223999349709
0.386132329911902
0.373349383932395
0.338849472818146
0.299636883929893
0.311166512444673
0.304006789908595
0.260098248418367
0.198131442656256
0.212577782108027
0.147160927566558
0.0456515787240616
0.016419912460229
0.0101490294255387
0.00423775144975135
0.00137497546233567
0.000631462942821071
0.000453123051177793
0.000412764358208598
0.000418502421665363
0.000448431801376085
0.000500115999174713
0.000570881366190407
0.000658182145739306
0.000757922891116779
0.000863449403418308
0.000965549294542515
0.00105424521426275
0.00111975430160429
0.00115828334793636
0.00117188777747681
0.00116159477175438
0.00113109007206885
0.00108387257599122
0.00102240451510353
0.000949548947792671
0.000867966095949553
0.000778645526684162
0.000686069563592239
0.00060202005461267
0.000560918712227345
0.000627121723561937
0.000845018284328323
0.00115024737580729
0.00151543118151116
0.00190793159750704
0.00228942595949322
0.00263367582134706
0.00293856969397687
0.00321930828859497
0.00349295071104955
0.00377074185279725
0.00405752396436339
0.00435449602691793
0.0046611402916774
0.00497646285488366
0.0052994154142537
0.005629099303408
0.00596475659298929
0.00630574916063061
0.00665149306183645
0.00700140769971741
0.00735485758273782
0.00771110594439459
0.00806926934268202
0.00842828119869354
0.00878685951771482
0.00914348392256258
0.00949638058614899
0.00984351924003771
0.0101826230886579
0.0105111948256155
0.0108265607464889
0.0111259349459761
0.011406505878873
0.0116655460761508
0.0119005473758158
0.0121093829813758
0.0122905007566664
0.0124431533066167
0.0125676762379003
0.0126658316098618
0.0127412451580603
0.0127999840945507
0.0128513763334821
0.0129055720841784
0.0129815725607665
0.0131078418774225
0.013321330888094
0.0136687953291484
0.014204803455623
0.014980028637869
0.016026246164169
0.0172878014892609
0.0184254795102899
0.0200324086936186
0.0219740764087526
0.0243411312393558
0.0270839106129614
0.0302005561234634
0.0336348601052304
0.0374080008238597
0.0415353821466023
0.0460002758101487
0.0507986963039821
0.0559280164512171
0.0614370445278361
0.0674936137469848
0.0742911154846207
0.0819192965410314
0.0905992976615778
0.100629227687378
0.112448250018289
0.126685141057513
0.144157718910557
0.165479531672086
0.190794593481482
0.220212748803067
0.253497292368291
0.290097987392719
0.324076188315319
0.345544710780234
0.333044050177679
0.302963854195194
0.268582762878931
0.280340805486777
0.280109467675216
0.244260413959389
0.185683227120597
0.207227250787041
0.165954244423517
0.0586532488518373
0.0184575974874356
0.0104895172838999
0.00475617250378421
0.00163156709797118
0.000736912315571931
0.000515696917657962
0.000463965040655783
0.000467140373413435
0.000497306043867692
0.000550048552302606
0.00062115428687874
0.000706221511058987
0.000799285369862076
0.000892414430706962
0.000976673616180349
0.00104447307956609
0.00109020089828211
0.00111334376293021
0.0011184048316026
0.00110752816698014
0.00108351975014497
0.00104827705660517
0.00100249531218576
0.000947133627028454
0.000883403567695103
0.000811910746187313
0.000737545267495415
0.000674075739224571
0.000661847070814837
0.000767443753422485
0.00102978951144467
0.00136819284006371
0.00174122853511799
0.00210934874854018
0.00244260557617187
0.00273387174779723
0.00299693103345751
0.00325152680792522
0.00351120044830854
0.00378208409906012
0.00406535780932965
0.004360220032371
0.00466519707245696
0.00497887294571577
0.00530001346897856
0.00562762406617412
0.00596087451124781
0.00629904883554997
0.00664146923875145