/*--------------------------------*- C++ -*----------------------------------*\
  =========                 |
  \\      /  F ield         | OpenFOAM: The Open Source CFD Toolbox
   \\    /   O peration     | Website:  https://openfoam.org
    \\  /    A nd           | Version:  7
     \\/     M anipulation  |
\*---------------------------------------------------------------------------*/
FoamFile
{
    version     2.0;
    format      ascii;
    class       volTensorField;
    location    "20000";
    object      gradU;
}
// * * * * * * * * * * * * * * * * * * * * * * * * * * * * * * * * * * * * * //

dimensions      [0 0 -1 0 0 0 0];

internalField   nonuniform List<tensor> 
15600
(
(0.107758484670291 -0.0282480200941949 2.43030559627076e-19 43.1381058683346 -0.0869439308932077 6.19941272969834e-21 0 0 0)
(2.71497898059548 -0.212322852173307 6.63602600700202e-19 48.374453933223 -2.74612750565029 6.69092896562247e-18 -1.9507304903945e-17 1.10618503723869e-18 -2.68801216276966e-36)
(4.69362386541816 -1.19561076218188 1.68638238511331e-18 18.935325524538 -4.69686552566207 6.90589899805994e-18 -6.48394734970512e-21 7.91295886950848e-22 -5.42559550074885e-39)
(-8.71849245567092 5.22528667619636 -2.94416015660475e-19 -14.0035697137655 8.37893784249348 -3.88797969982591e-20 0 0 0)
(-12.7345002491619 11.9105419350165 -8.70408774871966e-18 -13.5515636524543 12.5618971467175 -4.03824852660983e-19 0 0 0)
(-9.13757217882663 10.7762594952444 7.837830595061e-17 -7.66140562168406 8.97839518920749 6.48289217116952e-17 -3.87850770364603e-17 4.54362396382381e-17 3.26908899650031e-34)
(-5.28920774133173 7.2178131874306 -2.57291906380195e-18 -3.84466580238924 5.22160514344041 1.76748526493051e-19 0 0 0)
(-3.60613071122088 5.39313629513991 1.20638189114305e-16 -2.38434337017075 3.55578441389638 6.24937405714542e-17 -1.40253025273449e-17 2.09153612123591e-17 3.67485012660835e-34)
(-2.47002691130574 3.93494640677371 1.27043775817432e-16 -1.53908782807344 2.44660339195057 6.10402162644988e-17 9.43435143646569e-18 -1.49978759325945e-17 -3.80234562566147e-34)
(-1.88069672532733 3.11182708415555 -4.3240110442497e-16 -1.12756191333444 1.8631709807219 -2.43833458209796e-16 7.09084544729824e-18 -1.17175898063185e-17 1.53502083931235e-33)
(-1.50870798269935 2.55505334981368 -1.31272260075576e-17 -0.886788522500988 1.50070795163495 5.87100242242786e-19 -5.64901139056116e-18 9.56027728579101e-18 -1.95629391080944e-37)
(-1.31708491672851 2.2380276155255 -3.39854094045302e-17 -0.771583250390282 1.31105686371407 2.75496944294391e-18 0 0 0)
(-1.18018995594351 1.98632475340177 -1.45423666994295e-16 -0.699923708928641 1.1785017412557 -5.94995740746506e-17 -4.41630380985933e-18 7.43558038798589e-18 -3.9978688895124e-34)
(-1.12157756744851 1.85883817422019 -3.9669001008869e-16 -0.676279381060675 1.12151763449934 -2.60216151856081e-16 -4.21475745576592e-18 6.9889800231814e-18 -1.60712622542223e-33)
(-1.09834099758384 1.79438727295663 3.50825917857172e-17 -0.672779945228 1.09983534361594 -2.54634561745456e-18 8.15962119603686e-21 -1.33771652194741e-20 2.89630543868042e-36)
(-1.10228813062049 1.77652744492118 -1.11310174038871e-18 -0.684877706734338 1.10451827161149 -6.43044311053084e-19 -3.94249950525329e-21 6.42404427227881e-21 2.74605108004263e-39)
(-1.11931121582972 1.78177573011206 2.24741484441824e-17 -0.704351377055292 1.12193721501492 -2.42885645645649e-18 0 0 0)
(-1.14007238531398 1.7948090237956 5.37962818503401e-16 -0.725405429006196 1.14267797233341 3.43779094498564e-16 4.41325225564729e-21 -6.94881009217255e-21 -1.59016682120708e-36)
(-1.15220222745913 1.79648811128097 -2.20001887286398e-17 -0.74008939969905 1.15450789256619 2.00746580641294e-18 -1.30429726327627e-20 2.04208396952473e-20 1.50419618208007e-36)
(-1.14256587112095 1.76690381704985 3.25306797942287e-16 -0.739850655758287 1.14453286191944 2.1137504293302e-16 8.43830406218459e-21 -1.31760478795075e-20 5.60218910340101e-39)
(-1.09234316572615 1.67651865651977 6.75657743502961e-19 -0.712684949919845 1.09415066499095 5.89023263881831e-19 8.01257729352481e-21 -1.23852231753877e-20 3.46384972446228e-40)
(-0.988761910411613 1.49844613271097 3.54960942678367e-16 -0.653984244372469 0.991540923683925 2.12000687713194e-16 -7.65859548940382e-21 1.18380654403094e-20 -3.31082283564087e-40)
(-0.831521702400224 1.23291258525618 -1.07927819981613e-16 -0.563821154093498 0.836472543493759 -7.38650372169183e-17 3.2505342008237e-18 -4.82165949449608e-18 4.28448015280918e-34)
(-0.620811344634721 0.890665272864725 3.3325835031814e-16 -0.438454184672382 0.629285463281672 2.26514677615832e-16 5.19525010357203e-21 -7.96937686310443e-21 -3.1673777133284e-36)
(-0.36162530314772 0.493828223194028 2.79978562485905e-16 -0.274705794322034 0.374846202016129 1.45077009737438e-16 0 0 0)
(-0.0664017853134099 0.0783938039562312 4.10202660960656e-16 -0.0713905104931305 0.0851287010611793 3.30918961779585e-16 3.57876807608705e-19 -4.27693005408706e-19 -1.76485206877633e-33)
(0.242314535601642 -0.305283049096628 2.86853531264704e-16 0.169037241472289 -0.218148669178775 2.5613925862516e-16 2.96032459525365e-21 -2.14912472996394e-21 1.28567103162263e-35)
(0.530211676419644 -0.59719159766347 -6.19929854411983e-17 0.438580302086242 -0.501768877841299 -9.23915895827341e-17 -2.15742966337787e-18 2.46155250634399e-18 4.19050013057669e-34)
(0.757493140971307 -0.751153487867671 -1.20866531680778e-16 0.72154073699251 -0.727039965653353 -8.79160375273852e-17 -3.3179568542964e-18 3.33504246325571e-18 4.23860159252907e-34)
(0.890409620973182 -0.756268934052199 -2.78215507034482e-17 0.993876374596019 -0.860431601597232 9.41812335035837e-18 -2.12764768044125e-20 1.51736915542948e-20 5.90489817522116e-40)
(0.897342809837928 -0.624293259638461 -2.00427680812942e-16 1.21755541368728 -0.869611882575546 -3.3094331152735e-16 1.98940387356865e-20 -1.41877816670238e-20 -5.5212276970486e-40)
(0.775810871387076 -0.41041207227019 1.73076556418627e-16 1.3628473412216 -0.752393996109975 2.32705300043312e-16 0 0 0)
(0.55201702595917 -0.190472818280335 -5.97913325457051e-17 1.40602587882903 -0.53228856331023 -1.14177837599371e-16 -4.86426629280191e-18 1.83179907047591e-18 4.04152898822359e-34)
(0.292591200329569 -0.0402485171287694 1.85087120984039e-14 1.40707270296102 -0.278677454371939 8.85083163632742e-14 2.31453622598259e-18 -4.54018426721052e-19 1.45677777932876e-31)
(0.0454196554283619 0.00867346142875412 3.26141276969308e-15 1.40068213515111 -0.0346278249287969 9.69378348502381e-14 0 0 0)
(-0.000994682138989069 0.00135489660557759 2.24583438845602e-18 1.35848317481256 0.00847545311822846 -3.30113825971855e-19 0 0 0)
(-0.000512083258325309 -0.00019112145260973 -3.48686372935182e-32 1.33255787067455 0.00823364139717761 -3.26286528961474e-18 0 0 0)
(-0.00189818850134388 -0.000198015005571991 -6.50094777459309e-15 1.28917042664499 0.00820060064158174 8.40878087644529e-16 0 0 0)
(-0.00529429782336401 -0.000168448996142852 -6.7564056077014e-15 1.20774524529186 0.011579147468314 9.10720978533047e-14 6.86976978548842e-16 6.55305993917122e-18 5.28158078070783e-29)
(-0.0102833969388165 -0.000158095029744323 6.50094777459203e-15 1.04822431151999 0.0157059636660737 8.82377851013464e-14 6.0767309131708e-16 9.09449316859955e-18 5.02471855777742e-29)
(-0.0163331399626764 -0.000118263681857707 6.75640560770052e-15 0.803231281937495 0.0215298096599626 -7.96178489046762e-16 0 0 0)
(-0.0235239404326169 -7.20104259983493e-05 -4.42106786315198e-33 0.45006701580466 0.0283841713586598 1.69065497641412e-18 0 0 0)
(-0.0311045447108197 -1.59661155378907e-05 -1.48185972124542e-19 -0.0158036133784499 0.0359773091616551 1.714406379586e-18 0 0 0)
(-0.0384195496498613 3.2845601755055e-05 -2.24105064497012e-22 -0.593083498416326 0.0434020859230256 -2.84333986058037e-18 -2.94289440850829e-21 8.25507762182401e-23 -1.4348729896922e-38)
(-0.0447031859570492 6.97857455354682e-05 -6.68575146278352e-15 -1.26592251250655 0.0499485814594575 5.89638088604279e-16 -4.32203764716386e-21 6.74709448513354e-24 -6.46398436780282e-34)
(-0.0495065540345996 8.94391886594686e-05 -6.81886628478768e-15 -2.0121083338888 0.0550417373264342 1.53266408217671e-13 -1.15239208570351e-15 3.15815421683326e-17 8.84110219499285e-29)
(-0.0526269974334883 9.28770181443821e-05 6.68604706087602e-15 -2.80531737890736 0.0584469935727644 1.49765954015902e-13 -1.61980236258879e-15 3.363384127331e-17 8.5759591441723e-29)
(-0.0541579785223893 8.30667432787054e-05 6.81871953584267e-15 -3.62077199848362 0.0601992332587214 -5.18424776754118e-16 2.23756643693746e-20 -1.14955887617913e-22 -4.24507335959439e-41)
(-0.054360089635357 6.48915696223874e-05 -1.47412120522046e-19 -4.43768743664964 0.0605422457092914 -2.72657951159054e-18 -2.2375664369043e-20 1.14955887612407e-22 4.245073334352e-41)
(-0.05357693810975 4.25876630416678e-05 2.20585856191824e-19 -5.24080946848609 0.0598099339106477 -1.38336512981921e-20 2.39678372976352e-31 -2.73430319160892e-33 6.96885252411337e-62)
(-0.052147902634094 1.94236687260682e-05 -7.34111965423635e-20 -6.02025897966299 0.0583466331838703 5.80741146973227e-19 1.89265769856996e-20 -6.36126197314022e-23 -9.74615317666393e-42)
(-0.0503666832711444 -2.59731643698403e-06 -7.36128070475291e-20 -6.77078810250234 0.0564537468847447 -5.7138130565569e-19 -1.89265769857038e-20 6.36126197314164e-23 9.74615317666611e-42)
(-0.0484630898628994 -2.24037748883037e-05 -6.46922702692093e-22 -7.49070097007568 0.0543711945746629 -4.0500126235215e-22 0 0 0)
(-0.0466055118764369 -3.9587175994217e-05 7.38784386411488e-20 -8.18085037070535 0.0522767896439784 1.82114984230359e-19 -2.59571360340562e-20 6.04903263540558e-23 -8.68602892164438e-42)
(-0.0449108769823744 -5.41180784477322e-05 7.40581192445316e-20 -8.8438007843918 0.0502961463419263 1.99829521968508e-19 2.59571360340619e-20 -6.04903263540692e-23 8.68602892164631e-42)
(-0.0434573499202568 -6.617997210215e-05 -7.38784386411396e-20 -9.48321045628491 0.0485148784725678 -7.55607415736809e-19 0 0 0)
(-0.0422956857416534 -7.60648745157211e-05 1.88754060150596e-20 -10.1033993594595 0.0469900451642089 3.76418078513105e-19 0 0 0)
(-0.041458299107447 -8.41290729554935e-05 -1.8833931406267e-20 -10.7090652093525 0.0457591216726061 1.48135960606009e-19 8.56944525199674e-21 -1.17327309849692e-23 -5.01236144449676e-43)
(-0.0409657505876193 -9.07782796732996e-05 -1.88754060150571e-20 -11.305102468172 0.0448464169489884 -1.47367520813072e-19 -8.56944525199657e-21 1.1732730984969e-23 5.01236144449666e-43)
(-0.0408310587454967 -9.64721900485316e-05 -7.02316754727739e-15 -11.8964891874651 0.044267194202409 -1.10735523265187e-22 0 0 0)
(-0.0410622815367959 -0.000101737100158373 -7.068437529054e-15 -12.4882134300843 0.0440299955390408 1.40208048297627e-14 -7.17606370412028e-15 2.53008286141976e-17 8.05678266052443e-30)
(-0.0416638240723883 -0.000107182726686692 7.02320577958243e-15 -13.0852194149808 0.0441376080404879 1.39612664053965e-14 -7.51323270384572e-15 2.53587942367551e-17 8.07015200243893e-30)
(-0.0426368151921674 -0.000113520459547804 7.06843752905415e-15 -13.6923588479378 0.0445870288093214 8.28892595245499e-17 1.05577661546412e-20 -6.94486492166845e-24 8.5424474264688e-35)
(-0.0439788148539698 -0.000121581765252459 -1.93983737547737e-20 -14.3143373939275 0.0453686887803183 7.60415612484394e-19 0 0 0)
(-0.0456830257740721 -0.000132336414747334 5.8416569945129e-31 -14.955648884376 0.0464651216162527 -7.62868487981477e-19 0 0 0)
(-0.0477371110212864 -0.000146910835317583 2.07431321256342e-33 -15.6204917461949 0.0478491792117574 3.80154369366702e-19 7.13825559924346e-31 -2.18785820066741e-33 -1.73807568971119e-50)
(-0.0501216646344773 -0.000166605902488616 -8.27345171592238e-20 -16.3126628526945 0.0494818460068716 -3.40510693002717e-21 0 0 0)
(-0.0528083383397708 -0.000192914308887826 8.24921080324844e-20 -17.0354243586165 0.051309675488072 -6.44457368658857e-19 -5.59100528561646e-20 -1.44647070602873e-23 -1.17184194698098e-41)
(-0.0557575501944646 -0.000227537804671777 8.27345171586452e-20 -17.7913385246583 0.0532617846040736 6.50329462765588e-19 5.59100528561503e-20 1.44647070602836e-23 1.17184194698068e-41)
(-0.058915596685879 -0.00027240505248502 -8.24921080324856e-20 -18.5820637311732 0.0552462763129497 -4.36516725922826e-21 0 0 0)
(-0.0622108780559107 -0.000329688660941421 0 -19.4081015657623 0.0571458047703816 0 0 0 0)
(-0.0655487368797089 -0.000401821368690837 8.15711020622295e-15 -20.2684793777588 0.0588118165530695 5.73927162388259e-16 0 0 0)
(-0.0688033867345716 -0.000491545348978536 8.14816214591857e-15 -21.1603419354659 0.0600564642329091 -7.62210342623567e-15 1.22161481350206e-14 -3.44478493247585e-17 4.04780150779673e-30)
(-0.0718048888376666 -0.000601960150074936 -8.15711494926832e-15 -22.0784003312723 0.0606399985143422 -1.1242184963506e-14 1.26137543521557e-14 -3.49699346030752e-17 6.84761374872016e-30)
(-0.0743224700406551 -0.000736363707433304 -8.14816744977526e-15 -23.0141683974133 0.0602524068726218 -6.70745929028604e-16 -7.18571857170265e-21 -7.11938444072234e-23 -7.87789185924357e-34)
(-0.0760353129781974 -0.000898470548965503 -1.20257239639169e-21 -23.9549156118408 0.058487320123435 -4.17039467535193e-20 -7.35132134702795e-21 -8.68668184237318e-23 -1.16268294068292e-40)
(-0.0764502609515678 -0.00109361462438391 -1.37173788460796e-21 -24.8820303862487 0.0547856518301345 -1.76344463280355e-18 -7.39143975746321e-21 -1.05733930968991e-22 -1.32623719146401e-40)
(-0.0748223780763875 -0.00132506847532612 2.07193613972953e-19 -25.7681705650432 0.0483402058678949 1.66910667002176e-18 -7.23405117494779e-21 -1.28111581150669e-22 2.00320979516652e-38)
(-0.0702274712928723 -0.00158710099115822 9.84348374953512e-15 -26.5738460816774 0.0380545085354208 1.10121164044765e-15 1.78016189062171e-19 6.45619515687917e-22 -1.88118414809006e-38)
(-0.0608540082481458 -0.00189195907944202 9.92509794274918e-15 -27.2431739886788 0.0223254635467031 -4.03434853188341e-15 1.577728412961e-14 -1.22987173829912e-17 1.68720928379173e-30)
(-0.0417472121309819 -0.00228331524843397 -9.84347707394057e-15 -27.6845975635917 -0.00232020830798948 -1.16959567826319e-14 1.57655092294137e-14 4.51073228991837e-19 7.42415722742145e-30)
(-0.00855144965835425 -0.00262535556728275 -9.92529919074613e-15 -27.7366114662642 -0.0426514952371344 -1.22142082710456e-15 1.26753312383265e-30 1.93116718638781e-33 -1.85928557150642e-49)
(0.0392117300829366 -0.00252334276896691 5.20483418965745e-19 -27.1978093784552 -0.105502723859503 2.64497040198685e-19 0 0 0)
(0.1574503601813 -0.00360571146756046 -5.23895929258376e-19 -25.7348200979078 -0.204272850491006 -2.65875838678164e-19 3.5307736911552e-19 4.09829139122452e-21 6.59863391668676e-40)
(0.431125191105286 -0.0212175057661355 -1.0998696907313e-18 -22.0633346728564 -0.451786575525258 4.93896228065922e-19 -3.53077369115428e-19 -4.09829139122344e-21 -6.59863391668503e-40)
(1.08836091833804 -0.00252891573599491 5.05396877293072e-15 -14.8170580977152 -1.21163648150761 -1.53471342932507e-13 2.84718762583277e-18 2.26297525789235e-19 3.09061381025528e-32)
(2.011483510895 0.361805554051572 3.34745131180215e-14 -7.8302402304811 -1.94011502266982 -1.61603837895523e-13 7.19669185603742e-20 -7.81180164939197e-21 -1.47842190607621e-35)
(2.3561129315491 0.900033788786323 1.89138606431213e-16 -5.69144786549588 -2.37027511827981 -5.7909278622291e-16 -1.97252671064473e-17 -8.18719792856991e-18 -1.98933265811713e-33)
(2.65812362388395 1.48313827842184 7.93344522771031e-17 -4.62268513983176 -2.68841656499159 1.31309812070332e-17 8.9731457194244e-21 -6.17170530870495e-21 1.56309313518397e-35)
(3.18699605670566 2.28713436279797 -7.35131622710079e-17 -4.40902272124575 -3.23902273303403 -8.29665752341917e-18 5.75418020528205e-20 4.03744334593742e-20 -1.21790035970742e-37)
(3.93623687163707 3.39973348621594 8.79365824283387e-16 -4.55596189380182 -3.99675987533502 -1.09560634492093e-15 0 0 0)
(4.88765757541891 4.88270160729818 4.35237359862961e-16 -4.90393987749192 -4.95413481098142 -4.18217623496794e-16 -2.22817870839519e-17 -2.24622478507117e-17 -1.89061138722174e-33)
(6.04277194797929 6.78224624772585 5.96867069499897e-16 -5.39388111668444 -6.10226386950447 -3.76959395921322e-16 -1.86225102041346e-19 -2.21263075989104e-19 -3.12068043967925e-35)
(7.40817867280942 9.09900588592871 2.42830464649784e-16 -6.02915317175989 -7.44458044538469 -1.30603057041767e-16 3.09958799419123e-17 3.82371311994041e-17 7.29892828711746e-34)
(8.8742861129462 11.6583501955165 -8.49536117695492e-16 -6.73191717692813 -8.87457318936307 4.62631387929388e-16 -3.60757683672565e-17 -4.7530932924472e-17 2.6392739555666e-33)
(10.3258602372868 14.2621858469425 -3.76088549221011e-16 -7.42490433405233 -10.2785398399705 2.76831081312481e-16 -4.10836396250627e-17 -5.68519874318998e-17 1.52311741203206e-33)
(11.6946387735723 16.7565460247647 2.73170500816771e-14 -8.07947752066338 -11.592917557632 3.89112969081935e-15 4.59564262505928e-17 6.591970283191e-17 2.73056774742301e-33)
(12.9317854736703 19.0130064083677 9.7846596000141e-14 -8.68117897778757 -12.7731922174746 -4.65536592410641e-14 2.20247169619064e-14 3.23911878802797e-14 1.04894133034006e-28)
(14.0055686606832 20.9297228769598 7.94934233830422e-14 -9.22424504315754 -13.7878772484067 -7.61595854595262e-14 2.26890470889498e-14 3.39311431180931e-14 1.99602629110109e-28)
(14.8448113213165 22.3662504431512 -2.61499477669398e-14 -9.67165795896693 -14.5720608731999 -3.60454696335785e-15 0 0 0)
(15.3264387030228 23.189421673711 -1.22223382663162e-16 -9.92167060271477 -15.014532131984 -1.71906198612893e-17 -1.2354710748418e-19 -1.78158960828047e-19 -8.42502377416608e-36)
(15.4215947117584 23.475839333531 1.3944522935161e-15 -9.90315289394212 -15.0834800662748 -9.45337763008937e-16 1.29597803497682e-19 1.86884261937909e-19 8.83763770582398e-36)
(15.192081271004 23.3258089094519 -1.17745613723276e-15 -9.65726675232699 -14.8403388928455 7.59872156220254e-16 -5.7710476650396e-17 -8.86730350387101e-17 4.53623702039722e-33)
(14.6656366208627 22.7660475196877 -2.23779202408782e-16 -9.20840802518377 -14.3104151824604 1.93702568757057e-16 -5.55868143731136e-17 -8.63601433539684e-17 1.10053365230471e-33)
(13.8632479625979 21.8069943456454 -8.85164268634983e-16 -8.57966209695095 -13.5136871033319 6.46174561390702e-16 5.33647576401848e-20 7.91755005739522e-20 -4.97492308227472e-36)
(12.7995754910411 20.4432205806826 3.34875942884374e-16 -7.79139915608168 -12.4629298253446 -2.10477694389503e-16 4.79008076070766e-17 7.66067885038526e-17 1.29059377508467e-33)
(11.4745463379541 18.6435944237571 -4.08144188219153e-18 -6.85605592370104 -11.1581024173778 -1.86970013750638e-18 0 0 0)
(9.8797309337876 16.3553172502023 -1.96084501962487e-15 -5.78309773269425 -9.58981702199726 1.16248146152377e-15 0 0 0)
(7.9931972103331 13.423802398885 1.21050629253736e-15 -4.59550434141346 -7.73016269898937 -7.15466002499086e-16 0 0 0)
(5.44254861911242 9.18516617955185 4.11667069835516e-16 -3.09917887186643 -5.24089735823253 -2.45460211562187e-16 0 0 0)
(2.00420254621345 3.41749039138693 -8.36285107316484e-18 -1.08835622223408 -1.8747277232445 -1.32654857502935e-18 0 0 0)
(-3.23226059811212 -4.87155118942916 3.7284253626953e-16 2.13001432769402 3.19823284084182 -2.64413129557218e-16 -1.30367288758774e-17 -1.95769485334484e-17 1.61003210576903e-33)
(-10.5580855880445 -15.4485620124024 -4.62978788899315e-16 7.10163577236957 10.3452821281995 2.68701151040425e-16 4.17953788331891e-17 6.08819711312378e-17 1.57774297156804e-33)
(-22.530527226438 -30.1651348185522 1.16563955822984e-15 16.4420325226205 21.9008482200865 -8.23982967172623e-16 2.13870710855962e-21 2.83451436538498e-21 -2.02504657191854e-37)
(-40.0225564980137 -46.629525902466 -1.2190651448524e-15 33.67142755324 38.9214113625504 1.02676479199367e-15 1.70685640975578e-16 1.97209199536506e-16 5.19888641824691e-33)
(-66.2809203641224 -60.6110109057562 2.27080140642186e-16 71.0390593881127 64.2181094501231 -2.02087147304541e-16 -3.16117784717562e-16 -2.85583247997603e-16 8.89249317186003e-34)
(-75.9036281907115 -44.9745199468341 9.27719569308428e-17 127.103186800215 74.0157792062514 -1.79473540818632e-16 0 0 0)
(-41.5735072859095 -12.3845463594654 -5.16096974662637e-17 143.914087853907 40.8142739110396 1.82781105126039e-16 2.41232304965389e-16 6.83650410712024e-17 3.06348135482921e-34)
(-6.71619090497682 -0.825968181326687 -9.78448391024168e-18 89.14819594359 6.74425126140251 4.62314949368586e-17 2.41002525201502e-20 4.83190461140299e-21 7.2593214725842e-38)
(-0.426620670621445 -0.0544317169569941 -1.00075366533616e-21 42.7603538050062 0.383865282311455 -1.41424089076331e-20 0 0 0)
(0.104124348002319 -0.0893385778052718 1.8940010337604e-21 47.2246585812761 -0.0583039330226321 6.99881986918043e-23 -1.32778375392069e-20 4.00397259667947e-22 -7.15786866543751e-42)
(2.28230987797815 -0.274964924373915 -3.86606800037788e-19 48.8203101737861 -2.3536444986933 -6.3538369369502e-18 -1.97031807128027e-17 9.47934875289939e-19 2.56343115182566e-36)
(4.99113268422284 -0.999878738493469 8.3619249288264e-19 24.3533121495431 -4.80749538081597 3.00874897361023e-18 -2.85540244754763e-21 -2.60490556706176e-21 7.62200599449246e-43)
(-5.91507256327184 4.21667485137508 -9.57562342457608e-17 -8.14671982180275 6.08759893223072 -1.60465515994969e-16 3.14425873500127e-21 2.8684212588393e-21 -8.39305819990379e-43)
(-11.1036581312883 10.7209788260065 1.85674068063438e-16 -11.9801319615006 11.3149996027869 1.83533649979126e-16 0 0 0)
(-8.33853010959678 9.8937165428639 3.93934982317886e-16 -7.25054127388387 8.45064673312709 3.27811909034975e-16 3.73605690559938e-17 -4.37670417989035e-17 -3.14831469035524e-34)
(-4.98563614879326 6.78691403164988 4.07749728736302e-18 -3.76611546019878 5.05918321836221 -2.36943793787233e-19 5.26192723912284e-21 -6.5696085380107e-21 -1.15169527883263e-37)
(-3.43113762919342 5.133438121131 1.74873835332038e-16 -2.33739062124114 3.46873268033101 1.28136603454988e-16 1.35043226477018e-17 -2.01384451817877e-17 -3.53834519397433e-34)
(-2.38658620535391 3.79154819113831 -4.55780025708491e-16 -1.5267437172512 2.41183890865079 -2.42967879196159e-16 -9.08334276328005e-18 1.44398741910699e-17 3.66087789446185e-34)
(-1.82557475683569 3.01474986947475 1.0565205260176e-16 -1.11719137554254 1.83842469481353 5.27297255809313e-17 -2.0658288014886e-17 3.40916483857854e-17 -2.62378269804754e-33)
(-1.47549760637185 2.49190564141557 3.52669005170385e-16 -0.880503213199505 1.48458488878751 1.82486590428814e-16 -5.59560357396137e-18 9.43588323641032e-18 1.17089890397794e-33)
(-1.29159015239629 2.18881557256012 2.58396373170467e-17 -0.764268045411409 1.29578220726918 -2.42466467341644e-18 3.6119618515546e-21 -6.13822028036831e-21 -1.41596703056482e-40)
(-1.16496202060375 1.95213612777016 7.36525789371336e-16 -0.695003590212496 1.16682464215294 4.38859574123361e-16 4.25375252497778e-18 -7.1618983230861e-18 3.850718975748e-34)
(-1.10833642149456 1.82993468155077 3.84984007165372e-16 -0.66960384457886 1.10811174745893 2.50381392120116e-16 -4.17450533198289e-18 6.90598521248091e-18 1.54288324538596e-33)
(-1.08634456390618 1.76834499956192 -1.40977117987325e-18 -0.665011178539792 1.08498067871862 -8.65250009968984e-19 1.14924021753732e-20 -1.8904704650984e-20 -1.77949992309653e-40)
(-1.08901684827502 1.74968099563401 1.00487147809797e-18 -0.67499903236795 1.08689445958669 6.25151544042953e-19 -1.23696095154788e-20 1.97908636669542e-20 1.59759278031862e-40)
(-1.1034377638156 1.75158470903332 3.37136294458113e-17 -0.692156372755754 1.10102054993153 -4.33917576476316e-18 1.16464525289445e-20 -1.86338423953937e-20 -1.50419368156142e-40)
(-1.12035782829738 1.75864278859417 -5.1587655398033e-16 -0.71084410597421 1.117989999741 -3.32394306201793e-16 8.43106373453061e-18 -1.32674588299379e-17 1.7421857413658e-36)
(-1.12864928974301 1.75264079141412 5.7516059441257e-18 -0.724156864617791 1.12652582026781 -6.59379921120157e-20 0 0 0)
(-1.11665762709814 1.7147087537641 -3.12812479759639e-16 -0.724868882351653 1.11503979395368 -2.05176131406102e-16 8.50294237858462e-18 -1.31140176920016e-17 5.38940984281135e-36)
(-1.06985382743283 1.61975821045941 5.17799334032446e-18 -0.703661148556454 1.06805582919867 -6.38152775032523e-19 0 0 0)
(-0.978582105869827 1.44577009560126 -3.54586374751021e-16 -0.657301482642152 0.975748236098699 -2.01453671888022e-16 7.54467697056669e-18 -1.13112991759021e-17 -5.09478602931449e-36)
(-0.84312039546324 1.19431580069625 -5.46471805976645e-16 -0.586498304984072 0.838023568676223 -3.71114302269534e-16 -3.15870468303664e-18 4.68581471893344e-18 -4.09978307676653e-34)
(-0.664576608000264 0.877003640018817 5.18157574309403e-17 -0.489114727970387 0.655904238219151 8.09583901810519e-19 5.14466485678058e-18 -7.11353314385652e-18 -1.291714069249e-33)
(-0.447222188305884 0.515056913882143 7.08890580506125e-17 -0.362747753928471 0.433794669015145 8.85956557950368e-17 -1.15256722768039e-20 1.57025479947361e-20 4.73418800415309e-36)
(-0.200243035146129 0.140836281781331 -3.70481262803479e-16 -0.20570818983186 0.181336639205119 -3.23414343247504e-16 1.04675072062943e-18 -8.95949846454903e-19 1.68766188214642e-33)
(0.0606153252596034 -0.202359001148764 -3.46243879145824e-16 -0.0176886934422496 -0.0848021477537314 -2.34158460331413e-16 -8.30087220111608e-19 1.61141752730845e-18 -3.591452892952e-36)
(0.310997933086454 -0.464361026576997 -3.07900955159458e-16 0.19877018702793 -0.338903377341374 -1.67913690074332e-16 2.0810549735541e-18 -2.37441163109405e-18 -4.04215316329799e-34)
(0.519954029416884 -0.606287841223028 -1.47806210737371e-16 0.435547522457293 -0.54938479578233 -1.98528715928668e-16 3.2429159953498e-18 -3.25807510743999e-18 -4.1909898189511e-34)
(0.6590255277568 -0.618027045308318 -7.78486034997691e-18 0.678878434833954 -0.687768434226165 -3.11187121783386e-18 -3.90933455447411e-20 3.78563243964023e-20 9.50038267926147e-36)
(0.698819393941555 -0.508874010102327 4.49215244503689e-16 0.901575896199625 -0.723986517962383 6.27891168146139e-16 8.29322885213296e-18 -6.20288366726117e-18 1.24713861268498e-33)
(0.626466298296818 -0.324044596533523 5.81909804559679e-17 1.07339192268899 -0.647846106528083 1.12738173347098e-16 0 0 0)
(0.456360196311761 -0.131510292652078 1.18440891565553e-14 1.15924450905527 -0.472007432992317 -2.55349528522368e-15 4.69585159723281e-18 -1.76837699112666e-18 -3.90159979166776e-34)
(0.240893311185984 -0.0008351103746106 -5.23415695865231e-15 1.18302860501951 -0.254428647516939 -8.94123524685119e-14 -1.87211959231669e-15 3.80661133320036e-16 4.23361433836682e-30)
(0.0295613555526497 0.0272146705958406 -1.49752616515785e-14 1.15945627295513 -0.0379242429429238 -8.60976114990806e-14 -1.91307209951746e-15 5.28608403182517e-17 -7.03531940072e-30)
(-0.00879483279428522 0.004079177720865 -1.2878017639456e-14 1.08150425874019 1.81316845644329e-05 1.89611347874861e-15 0 0 0)
(-0.00866232238304773 0.000132198102153012 -3.15454324581273e-21 1.00844736504086 0.00209374388757231 -8.87557462589287e-20 4.60849934893203e-20 1.0407019531086e-22 -8.1203469367537e-38)
(-0.014638598301507 0.00064946932178104 1.87003687791198e-14 0.904555560094645 0.00781785413920844 -2.41888501962701e-15 -2.73057782237228e-21 1.21147290870344e-22 3.48823099088671e-33)
(-0.026544995152466 0.00117003401849849 1.88064911708785e-14 0.747521219911213 0.0211549242287736 -1.39768951084674e-14 -1.62272062110646e-15 -2.26105424070106e-17 -8.80339369114116e-29)
(-0.0430564180175695 0.00148322612531216 -1.87001594602441e-14 0.503242110647422 0.0376956899415961 -5.75880208742204e-15 -1.33034050483211e-15 -3.51064648602895e-17 -8.78786282651528e-29)
(-0.062436344818258 0.00180359480282738 -1.88062640839648e-14 0.16226887289419 0.0577899835014115 2.21139930343618e-15 9.36252557180401e-21 5.28283421231395e-22 1.00248357248251e-40)
(-0.0842243840145387 0.00198998885091877 4.47973978846328e-19 -0.289364616557997 0.0798040749087823 1.06006122089744e-20 -9.36252557180408e-21 -5.28283421231399e-22 -1.00248357248252e-40)
(-0.106014134360836 0.00200721502918087 -4.46734545895103e-19 -0.847935255634185 0.101950480739327 1.05603729100524e-19 8.38033028562475e-21 -9.01088113378127e-22 -2.15845768262751e-40)
(-0.125790654826649 0.00181748422645891 -2.25116471738604e-19 -1.50117890560939 0.121851994367833 -5.24300248096657e-19 -8.38033028562279e-21 9.01088113377916e-22 2.15845768262701e-40)
(-0.141585594912213 0.00146981324748109 2.7166105457764e-14 -2.22545103436234 0.13771081999273 -2.39587954886256e-15 0 0 0)
(-0.152487976605063 0.00103287775913184 2.69874903407826e-14 -2.99371142108103 0.148534697275765 -6.74656266877853e-14 6.03811866947961e-15 -2.31220808294728e-16 -1.6469800582691e-28)
(-0.158376001221137 0.000586455762954571 -2.71656699078616e-14 -3.77936498571612 0.154272825652527 -5.64873168325191e-14 8.05930913929853e-15 -2.43039609395093e-16 -1.71352711552695e-28)
(-0.15989099098443 0.000190846661331278 -2.69877003114532e-14 -4.56060777905233 0.155584096322861 2.06466220123702e-15 7.72231489028843e-20 -1.37651134565695e-21 -2.5900508789595e-40)
(-0.158024773025651 -0.000119427368098582 -2.12747721454535e-19 -5.32174736631669 0.153510099851908 -3.63767246655383e-19 -7.72231489031957e-20 1.37651134566211e-21 2.59005088139614e-40)
(-0.153863717244155 -0.00033548966148717 2.09970674476945e-19 -6.05322673884413 0.149166154134382 -1.35799229680794e-20 -2.31388540225419e-31 2.63973097023032e-33 -6.72781858695241e-62)
(-0.148378228571938 -0.000465078925289579 7.59408099458802e-31 -6.75052206908481 0.143547374827994 -5.56486743609433e-19 0 0 0)
(-0.142344487747655 -0.000524136386929692 0 -7.41282586147903 0.137441198465181 1.23892954120869e-18 0 0 0)
(-0.136329519289767 -0.000530163406501296 1.01335487224028e-19 -8.04179981233234 0.131418953265064 -6.76407213992314e-19 0 0 0)
(-0.13072093248249 -0.000498734121656907 -4.98680329530293e-20 -8.64060760833756 0.125866416028924 1.2564216098281e-18 7.91666670291037e-20 -5.72930414600998e-22 -2.40009129138935e-39)