/*--------------------------------*- C++ -*----------------------------------*\
  =========                 |
  \\      /  F ield         | OpenFOAM: The Open Source CFD Toolbox
   \\    /   O peration     | Website:  https://openfoam.org
    \\  /    A nd           | Version:  7
     \\/     M anipulation  |
\*---------------------------------------------------------------------------*/
FoamFile
{
    version     2.0;
    format      ascii;
    class       volScalarField;
    location    "20000";
    object      k;
}
// * * * * * * * * * * * * * * * * * * * * * * * * * * * * * * * * * * * * * //

dimensions      [0 2 -2 0 0 0 0];

internalField   nonuniform List<scalar> 
15600
(
2.58353490699065e-06
1.93609312367056e-06
7.97698426685702e-07
1.95381822153527e-07
3.58526228107719e-08
3.59544780325943e-08
1.75597958657667e-08
3.8483077138582e-09
1.34552974765256e-09
1.10288684149945e-09
1.10465730469598e-09
1.27662521919258e-09
1.59310670669866e-09
2.07278387988953e-09
2.76949268038937e-09
3.74645483542317e-09
5.09668396633421e-09
6.93243548557997e-09
9.38003705537188e-09
1.25596610574902e-08
1.65692920459463e-08
2.16159518393711e-08
2.80065355659911e-08
3.55525518005315e-08
4.39752195062119e-08
5.26490943497832e-08
6.05112200516141e-08
6.60517460747427e-08
6.74119834444516e-08
6.29810547022491e-08
5.29745253452139e-08
4.03919652825942e-08
2.91055733620711e-08
2.19796129267188e-08
1.85478430086674e-08
2.00134483824933e-08
2.50979787853935e-08
3.30267299224674e-08
4.362915046693e-08
5.83479585351823e-08
7.85703093450583e-08
1.05667925856638e-07
1.40828584302263e-07
1.85109675771599e-07
2.39219083456992e-07
3.03292465481275e-07
3.76938514685599e-07
4.5936552537985e-07
5.49546890837143e-07
6.46390756395002e-07
7.48872523020083e-07
8.56120397113166e-07
9.67455926844599e-07
1.0824038389634e-06
1.20068396559389e-06
1.32219662721945e-06
1.44700765214442e-06
1.57533728139659e-06
1.70755375589359e-06
1.8441725826902e-06
1.98586055636548e-06
2.13344482517179e-06
2.28792620956321e-06
2.4504971308999e-06
2.62256428795447e-06
2.80577700570021e-06
3.00206266472223e-06
3.21367139349909e-06
3.44323361977998e-06
3.69383539057254e-06
3.9691191938251e-06
4.27342111250195e-06
4.61196157316873e-06
4.99111601952227e-06
5.41880785144534e-06
5.90509925449442e-06
6.46313814195731e-06
7.11075915584967e-06
7.87341507161242e-06
8.79086208440267e-06
9.93598298582907e-06
1.14708594287661e-05
1.35308958312746e-05
1.6018969910984e-05
1.90016958810938e-05
1.88404273738486e-05
8.77218744345322e-06
4.76769068226756e-06
3.18353820398437e-06
2.48848488533807e-06
2.2760964580142e-06
2.24676428281815e-06
2.31113169383584e-06
2.46095279556778e-06
2.68165005376917e-06
2.94105508782007e-06
3.22351030179422e-06
3.52026188041341e-06
3.81676231097286e-06
4.09787590380154e-06
4.31696105420267e-06
4.39754121686899e-06
4.34226565587574e-06
4.1752145108081e-06
3.92319282789847e-06
3.61416020669662e-06
3.27786429055928e-06
2.94673169038901e-06
2.68441925300972e-06
2.53922661286975e-06
2.49250428356717e-06
2.58496665835248e-06
2.84635519126849e-06
3.57511248493736e-06
5.21391961889722e-06
9.15539839399101e-06
1.12719258642491e-05
7.88808189580748e-06
4.46019075428016e-06
2.96878798882775e-06
8.34954854483528e-05
6.26351038854737e-05
2.604549966369e-05
6.56378444756256e-06
1.23181698374859e-06
1.18238317428546e-06
5.94451652357521e-07
1.37869864331833e-07
4.64767624092209e-08
3.64158787344688e-08
3.60916278437218e-08
4.14384129104351e-08
5.1498208381383e-08
6.68003633538618e-08
8.90559849264882e-08
1.20280270218412e-07
1.6344120356732e-07
2.22143735251854e-07
3.00472793989725e-07
4.02360243889032e-07
5.30960358420929e-07
6.92681792082338e-07
8.97918896753568e-07
1.14120309974357e-06
1.41398408174403e-06
1.69690954452139e-06
1.95667355948435e-06
2.14503158702319e-06
2.20100848508584e-06
2.06923093390308e-06
1.75083102466632e-06
1.33911108315781e-06
9.62068138186964e-07
7.21383841478574e-07
6.04293703309679e-07
6.50585426995603e-07
8.16409014426534e-07
1.07454263525378e-06
1.41939755895607e-06
1.89808408608592e-06
2.55535591088251e-06
3.4354340645349e-06
4.57654497893431e-06
6.01238684125824e-06
7.76584919969356e-06
9.84104058905776e-06
1.222504523053e-05
1.4892154102555e-05
1.78091429498583e-05
2.09407336517497e-05
2.42538500113715e-05
2.77203608263545e-05
3.13183751267012e-05
3.50325519823067e-05
3.88538356904265e-05
4.27789816706816e-05
4.68100710021962e-05
5.09541501337101e-05
5.52230207880049e-05
5.9633212223433e-05
6.42061055887887e-05
6.89682197536739e-05
7.39516325868246e-05
7.91945489901156e-05
8.47420195432898e-05
9.06468389180142e-05
9.69706685489829e-05
0.000103785452559587
0.000111175241143501
0.000119238576950917
0.000128091690088029
0.000137872844849459
0.000148748385539538
0.000160921315489131
0.000174643746581609
0.000190235593481854
0.00020811449768543
0.000228846312167779
0.000253236708285396
0.000282537563851339
0.000319024161198776
0.000367921578403242
0.000430491852157627
0.000502333272631961
0.000575275328908395
0.000549457112059319
0.000271726751451805
0.000150848016933391
0.00010200431153281
8.05932513438625e-05
7.41878395235734e-05
7.35221516417227e-05
7.58511095944732e-05
8.09442285121483e-05
8.82891412119993e-05
9.68380364853122e-05
0.000106105387435735
0.000115802746712691
0.000125413183383829
0.000134320091603615
0.000141060501578109
0.000143302680659702
0.000141235514209542
0.000135642134284279
0.00012737440210419
0.000117324668720434
0.00010644829606302
9.58180157816212e-05
8.74903692822639e-05
8.29505317418795e-05
8.16132860495352e-05
8.48128799733909e-05
9.36813808187373e-05
0.000117961775518097
0.000171997377108516
0.000296790946639885
0.00036120238786614
0.000252606932875996
0.000143467883989396
9.59856537208644e-05
0.000608479662429454
0.000457151028140323
0.000191556348785229
4.96954184836159e-05
9.51419382522531e-06
8.75721251652425e-06
4.53617830801679e-06
1.11071572117116e-06
3.6439257546207e-07
2.72914942014208e-07
2.67489273626933e-07
3.05217279153566e-07
3.7783263963074e-07
4.88553067629371e-07
6.49714904974423e-07
8.75907923228292e-07
1.18856512265959e-06
1.61386773830959e-06
2.18167056336699e-06
2.92106191585327e-06
3.85549167946852e-06
5.02902406444035e-06
6.51994360019827e-06
8.29177337204101e-06
1.02841443024294e-05
1.23611173240345e-05
1.42874912520882e-05
1.5721780915697e-05
1.62145909356824e-05
1.53453650220704e-05
1.30813237280431e-05
1.00601422945765e-05
7.21800108704491e-06
5.37253368292208e-06
4.46065610605747e-06
4.78836555824388e-06
6.01561197157747e-06
7.92138237019832e-06
1.04647162324027e-05
1.39955796258057e-05
1.88411483170213e-05
2.53225479013775e-05
3.36917442801898e-05
4.42135982503026e-05
5.70430869330133e-05
7.21962453815435e-05
8.95680698759039e-05
0.000108961184353647
0.000130125297936587
0.000152797284704295
0.000176732006052029
0.000201721743549547
0.000227604985939533
0.000254268059853164
0.000281642672791485
0.000309702014039824
0.000338456842703251
0.000367952498044259
0.00039826700169809
0.000429510433911517
0.000461825353526899
0.000495388297150972
0.000530412142083901
0.000567149396383079
0.000605896393696899
0.000646998572624119
0.00069085708967297
0.000737937182144907
0.000788778980694435
0.000844011697974123
0.000904372672614925
0.000970733271505279
0.00104413480030957
0.00112583903846214
0.00121740060575133
0.00132077342875505
0.00143847585632292
0.00157385733203208
0.00173155483362493
0.00191842526796267
0.00214578107663364
0.00242866672000887
0.00273891275750952
0.00304228239421793
0.00323919075317767
0.00292968858302555
0.00168174699562816
0.00102584958425279
0.000727332642805975
0.000590701236765942
0.000547631539463876
0.000544895634646953
0.000563470958275068
0.000601899568783384
0.000656268495355001
0.000719028080894295
0.000786843869629028
0.000857404750200675
0.000924335281902668
0.000985416745433666
0.00103003018964153
0.00104323842711134
0.00102685881263406
0.000986161038697812
0.000926853045983981
0.000855047048201918
0.000777425318251285
0.000701781773877735
0.000642832442804527
0.000610942405325396
0.000602339982062264
0.000626583676363655
0.000693071593175339
0.000871016694357715
0.00125921033105904
0.00210770714283206
0.0025430233276732
0.00180897183127317
0.00103653001875933
0.000699724149008933
0.00226153351642541
0.00170508972099886
0.000723455845011421
0.000194506354357711
3.79235108267936e-05
3.34002350504544e-05
1.78426778069352e-05
4.60855107074812e-06
1.48172575522484e-06
1.05930293118847e-06
1.02512029123376e-06
1.16200732582771e-06
1.43248455560806e-06
1.84589642212525e-06
2.44805263085602e-06
3.2934031782137e-06
4.46165548571667e-06
6.05064916680884e-06
8.17255126713291e-06
1.09377835375409e-05
1.44356618879929e-05
1.88162630364307e-05
2.43750675438024e-05
3.09828795869859e-05
3.84120971161092e-05
4.61663801258285e-05
5.33840327709771e-05
5.88685980105026e-05
6.09590450915834e-05
5.80638225712728e-05
4.99231296343086e-05
3.86974276045515e-05
2.78126864103012e-05
2.05598946007372e-05
1.69404693077859e-05
1.81934085600549e-05
2.29264601972075e-05
3.02226706227284e-05
3.99540606296329e-05
5.34736526195398e-05
7.20075584930162e-05
9.65284356330033e-05
0.000128045837294809
0.00016746800680237
0.000215148708985145
0.000270942115812426
0.000334252199049147
0.000404165736857421
0.00047961764266465
0.000559543749757441
0.000642988565967049
0.000729164684418642
0.000817471775492375
0.000907490718043379
0.000998965255038201
0.00109178068551333
0.0011859442764632
0.00128157002557958
0.00137886791170839
0.00147813774893403
0.00157976658506626
0.00168422948945967
0.00179209278395675
0.00190401979253746
0.00202077873893142
0.00214325316162439
0.00227245516399046
0.00240954219534391
0.00255583852563399
0.00271286258872521
0.00288236209374444
0.00306635862685916
0.00326720407676574
0.00348765064005591
0.0037309356136891
0.00400088030516504
0.0043020030437153
0.00463963568095587
0.00502000790721681
0.00545026110289082
0.0059378890181794
0.00643683497125891
0.00691643423867395
0.0072827206904224
0.0073420341108762
0.00657527624345205
0.00452559341101086
0.00319780291785963
0.00247865745228494
0.0021221988202954
0.00199963003510542
0.0020046117378107
0.00208060820114179
0.0022239926995521
0.00242121316029988
0.00264694346220937
0.00289050861111626
0.00313309770534341
0.00335994910874759
0.00356488989097135
0.00371256830851099
0.00375877301544769
0.00370906551672346
0.00357787415363872
0.00338162314402638
0.00313929159744672
0.00287313366341359
0.00261121883413325
0.00240653418281377
0.00229663104983701
0.00227099152838712
0.00236391438403578
0.00261402716773205
0.00326178775496713
0.00462533882225269
0.0073811734069945
0.00877153402918346
0.00644420041669407
0.00376545464780056
0.00259100492538869
0.00575946940422453
0.00440616415458067
0.00192145030949122
0.000542528250403858
0.000107859013862791
9.04372214133793e-05
4.98435560998036e-05
1.35710156558859e-05
4.30396877567241e-06
2.93409108540092e-06
2.79821237931232e-06
3.14933225173691e-06
3.86525502753584e-06
4.96262225380783e-06
6.56195809267257e-06
8.80740623238558e-06
1.19090523064908e-05
1.61256025549502e-05
2.17545538139522e-05
2.90904003409048e-05
3.83695865379688e-05
4.99360953361781e-05
6.45502265189744e-05
8.18722691032073e-05
0.000101264764999173
0.000121422560529778
0.000140105291670797
0.000154414084421554
0.000160251431478145
0.000153506273800485
0.00013323131366634
0.000104371790175383
7.55244250844345e-05
5.55563843696909e-05
4.56026573828325e-05
4.92915232930045e-05
6.24602789632704e-05
8.24672248287255e-05
0.000109138445102118
0.000146155233588984
0.000195943877425386
0.000260756874504977
0.000342993098571356
0.000443727009974916
0.000562650236812175
0.000698199752734723
0.000847887043058225
0.00100877043313369
0.00117790486514902
0.00135266841523506
0.00153093164099596
0.00171110141204692
0.00189208366946881
0.00207321081678464
0.00225416166962008
0.00243489082272051
0.0026155725770911
0.00279656075140377
0.00297836167457302
0.00316161841582611
0.00334710284615897
0.0035357142323651
0.00372848181821708
0.00392657086843112
0.00413129059155556
0.00434410359364449
0.00456663587834889
0.00480068662007857
0.00504823685417247
0.00531145524015037
0.00559269882298488
0.00589450450917668
0.00621956527503283
0.00657068060380348
0.00695066503283415
0.00736218785716128
0.00780750409321423
0.00828800411442293
0.0088034663946438
0.00935132457854611
0.00989754101246346
0.0104035654355922
0.0108207963821745
0.0110416053472572
0.0108692554124293
0.00986086250190986
0.00769782393207539
0.00615026297099716
0.00523428760876094
0.00477406956080347
0.0046354052968181
0.00471522737939179
0.00493340657342278
0.00528655576357633
0.0057482114794964
0.00626908490059961
0.00682009191840962
0.00735063808453631
0.00785629631920399
0.00831626522274374
0.00866210901885988
0.00881591753340312
0.00878244087090682
0.00857843545846927
0.00822582458301503
0.00775511064439299
0.00720881640632486
0.00665043138986813
0.00620655346510359
0.0059732894665969
0.00593915776242006
0.00618868692995574
0.00682802965930405
0.00840061155129489
0.0115225163187033
0.0171749906637301
0.0198486546356716
0.0152495228114478
0.00920999591476841
0.00654139952317616
0.0112043067605202
0.00882878745217515
0.00405785501912415
0.0012312006657694
0.000251398958002763
0.000199649877254373
0.00011354979330833
3.2584645210831e-05
1.02569046752825e-05
6.66504329556519e-06
6.25095174730184e-06
6.98090500193101e-06
8.52736372812422e-06
1.09058070545551e-05
1.43738262187248e-05
1.92417321675144e-05
2.59591657902637e-05
3.50799744362378e-05
4.72401562267992e-05
6.30671811387817e-05
8.30510900073194e-05
0.000107780766567092
0.000138748075012783
0.000175176321333274
0.000215535321205658
0.000256979658159261
0.000294873047944357
0.000323422622029427
0.000335398437894786
0.000322588020132021
0.000282784779534543
0.000224614997257126
0.000164596101005764
0.000121173480684011
9.97603484095456e-05
0.000109343610202332
0.00013955700658969
0.000184360202744943
0.00024384112703154
0.000324254738787415
0.000428808232722402
0.000561666927328304
0.00072432654528003
0.000915781027911197
0.00113277244257334
0.00137053147499612
0.00162368309972466
0.00188706240652907
0.00215625160831052
0.00242781778166254
0.00269931805390465
0.00296918101202493
0.00323653962601203
0.00350106930752572
0.0037628511724134
0.0040222687444233
0.0042799342298375
0.00453663989073256
0.00479332733079285
0.00505107018072645
0.00531106478723096
0.00557462641918965
0.00584318729155723
0.00611829498782236
0.00640160864917571
0.0066948915588713
0.00699999799067418
0.00731885241566606
0.00765341905717901
0.00800565893543111
0.00837747141678016
0.00877061529984208
0.00918660284421529
0.00962655575819024
0.0100910064859398
0.0105796168863386
0.0110907704703746
0.0116209371829475
0.0121634073820619
0.0127045303291589
0.013199838429482
0.0136239194228337
0.013922294806698
0.0139965680676434
0.0136725631562395
0.0125911241458743
0.0105598398692183
0.00908345207698002
0.0082304900026927
0.00786431087436962
0.00785183769174147
0.00810899329270139
0.00855910107564272
0.00919752328550792
0.00998664978833617
0.0108611959451242
0.0117430667916336
0.0126116801081556
0.0134505609471991
0.0142245119726151
0.0148452054937075
0.0152204742393853
0.0153493373644199
0.0152397630287135
0.014904789228354
0.0143696492235273
0.0136807910869759
0.0129288639239885
0.0123211844389022
0.0120353700992138
0.0120835578174749
0.0126232749533107
0.0138697348542663
0.0166979387569006
0.0218650068607676
0.0300547536424843
0.033540642022752
0.0271166087013346
0.0171543001318859
0.0125902557962163
0.0177653381123857
0.0145195307036028
0.00719748522225052
0.0024107595373714
0.000515490987436598
0.000384978081888406
0.000225942156211481
6.83661317970918e-05
2.14882709494482e-05
1.33144275031398e-05
1.22521366733248e-05
1.35666854185558e-05
1.64874375470979e-05
2.09975608458026e-05
2.75750019291031e-05
3.68001096429055e-05
4.95067916723266e-05
6.67172839176483e-05
8.9594480847492e-05
0.000119263704681417
0.000156546742474531
0.000202177868756887
0.000258420108210823
0.000323615207652666
0.000394442255938666
0.000465461341531691
0.000528566282413232
0.000574224464563663
0.000592427467698603
0.000570842691536329
0.000505584891994216
0.000408704930032117
0.000305448858406292
0.000227230488815871
0.000189486006333784
0.000212075558409334
0.000272270777201012
0.000358314428503128
0.000469098196955454
0.000611489335754272
0.000790751481676508
0.00100868468494104
0.00126341903773005
0.00155037279160592
0.00186321283493544
0.00219501535390924
0.00253921263532039
0.00289018646603443
0.00324351584258927
0.00359599450648126
0.00394550538137444
0.00429083952797977
0.00463150019671435
0.00496752843903727
0.00529935964210098
0.00562771636135025
0.00595353138994779
0.00627789599692484
0.00660202535355417
0.00692723611684733
0.00725493037471307
0.00758658295727177
0.00792372829138249
0.00826794502307641
0.00862083590111742
0.00898400157963076
0.00935900669157772
0.0097473369368631
0.0101503460975477
0.0105691914015383
0.0110047555379645
0.011457551889745
0.0119276076454973
0.0124143151044426
0.0129162355644541
0.013430830308342
0.0139540870703223
0.0144800275967649
0.0150001961760288
0.0154882245418355
0.0159160296158243
0.0162570649576836
0.0164608849481285
0.0164415012639711
0.0160461330210722
0.0149756446593304
0.0131227597048574
0.0118026937297241
0.0111103341078341
0.0109229155437383
0.0111099457150525
0.0115890057893201
0.0122967837017527
0.0132212907320835
0.0143153380772525
0.0154835274936934
0.0166631912654565
0.0178355826438802
0.0189753284770544
0.0200385493229329
0.0209337503031481
0.0215737231441384
0.0219547237945232
0.0220789419891108
0.0219519638998225
0.0215909889213501
0.0210364787737896
0.0203872020401845
0.0198930198203486
0.0197863610681727
0.0201139286692711
0.0210963411635282
0.023063709071482
0.0270776263700895
0.0337622906080383
0.0431080835204578
0.0466861531860618
0.0394942162804061
0.0264359917934123
0.0198877675024946
0.0244986453566316
0.0206544076760583
0.0111282629062104
0.00418654186956522
0.000967822236826293
0.000673794152042109
0.000407810752384307
0.000130268223485355
4.11278973505655e-05
2.43275848430623e-05
2.19123694687395e-05
2.40352653911821e-05
2.9046543722837e-05
3.68212665874513e-05
4.81561722933851e-05
6.40264343112102e-05
8.58156815336943e-05
0.000115197635465837
0.000154032575711599
0.00020403513444466
0.000266275687513962
0.000341210837744743
0.000431239150001522
0.000533083642686106
0.000640306965380872
0.000743842988267387
0.00083174436810111
0.000891313386759544
0.000911228192653286
0.000877916794971097
0.000785625704700771
0.000648285187173235
0.000497668513873133
0.000378535902881789
0.000323434270440559
0.000370804616240566
0.000476235535561522
0.000617815496421636
0.000789954217315515
0.00100398343834715
0.00126202551871282
0.00156234279655328
0.00190018960417076
0.00226917674188887
0.00266219470033042
0.00307218787014596
0.00349266647507525
0.003918065003136
0.00434396058946642
0.00476715646423707
0.00518560569112017
0.00559824080057087
0.00600476022529345
0.00640542891014982
0.00680091177568303
0.00719214919853057
0.00758026744763077
0.00796651742756718
0.00835223212305441
0.0087387964945857
0.00912762351773067
0.00952013288987786
0.0099177288540789
0.0103217754204391
0.0107335671640386
0.0111542947673467
0.0115850045478384
0.0120265515444903
0.0124795459324052
0.0129442920902721
0.0134207192944552
0.0139083013760148
0.0144059605664503
0.0149119466541477
0.0154236764383187
0.0159375075993046
0.0164484089804476
0.0169495080268911
0.0174318346025721
0.0178660631690176
0.0182354200336842
0.0185136014584047
0.0186559114003681
0.0185870244881713
0.0181707933297266
0.0171513390217313
0.0154806932708017
0.0143374549119149
0.0138291515444095
0.0138364861246448
0.0142360837711766
0.0149306246563157
0.015872236608089
0.0170403778209246
0.0183709882999027
0.01976796452182
0.0211871850856062
0.022602151560569
0.02398250309699
0.0252804266139405
0.0264091020183753
0.0272923155530072
0.0279261427452416
0.0283124521746509
0.0284566545458218
0.0283762798842854
0.028113039861713
0.0277733100908634
0.0276203946155652
0.0279002859062416
0.0286737178828838
0.0301878175057944
0.0328460727458235
0.0377078556378833
0.0451539470419878
0.0545653952439945
0.05785815840088
0.050580147793643
0.0358947563350582
0.0275340293755562
0.0309638188652156
0.0266532991977111
0.0155212258378231
0.00655441415330957
0.00170448972451897
0.00109561283782121
0.000682629792267803
0.000230678751335187
7.35986764991727e-05
4.16454525536628e-05
3.66254524555389e-05
3.97520477750317e-05
4.77421804647723e-05
6.02067101341885e-05
7.8358722651678e-05
0.000103693714930953
0.000138292753107695
0.00018460615814359
0.000245232462344661
0.000322326111762212
0.000416749231772047
0.000527812701137861
0.000656355972313367
0.000796829972130762
0.000938639243497011
0.00106914701757764
0.00117384399704325
0.0012389597125429
0.00125380416532084
0.00120702098617797
0.00109106718435637
0.00091972917994244
0.000728087102287879
0.000571899524210562
0.000505790290708225
0.000592483548679912
0.000754019168362193
0.000952518241137013
0.00118842226680295
0.00147096242551276
0.00179924564044985
0.00216970982858897
0.00257718635027487
0.00301560530505651
0.00347817908187625
0.00395773289773157
0.00444724807621666
0.00494054335382384
0.0054327574680693
0.00592051931398812
0.00640182394654826
0.00687577540314415
0.00734229702974964
0.00780188210346673
0.00825539877342361
0.00870395078806489
0.00914878031759362
0.0095912020862463
0.0100325571137135
0.0104741787374263
0.0109173645523532
0.0113633507906778
0.0118132862271678
0.0122682042877546
0.0127289923457802
0.0131963579473246
0.013670791928702
0.0141525285503974
0.0146415028610488
0.0151373050167755
0.0156391307511961
0.0161457257116614
0.0166553193139643
0.0171655401280049
0.0176732988993663
0.0181746132152591
0.0186643202417674
0.0191355476557957
0.019578831097476
0.0199690729938968
0.0202937868340802
0.0205292099738463
0.0206360184955546
0.0205472264417741
0.0201395227225306
0.0191905020799054
0.0176966252892932
0.0167311097585853
0.0164044677487648
0.0165965341477064
0.0171878396930918
0.0180822051012819
0.0192212429055809
0.0205778688400867
0.0220862763481378
0.0236663344439209
0.0252740404505858
0.0268791685269868
0.028448725528971
0.029933672117899
0.0312537896484276
0.0323432837776731
0.0331988016386948
0.0338241490286676
0.0342280636409528
0.0344333379594923
0.0344889947091569
0.0345125969517347
0.034771111449184
0.0355035350525201
0.0367622419211632
0.0387972041620827
0.042037897508564
0.0474335511308819
0.0551464423655229
0.0641429488836903
0.0670438384784644
0.0599008741993303
0.0447884388119131
0.0350231093381664
0.0370614919855376
0.032281341133102
0.0201131286488899
0.00939810437524904
0.00283868581654457
0.00168012156618411
0.00107381193568436
0.000385058738544931
0.000124947616352443
6.78391219845194e-05
5.81098066970761e-05
6.23251787916159e-05
7.4328657968891e-05
9.31747653254788e-05
0.000120557006795639
0.000158575951163184
0.000210069167300348
0.000278218837682941
0.000366114680856312
0.00047577578500161
0.000606890609769937
0.000756407831191358
0.000921648265533377
0.00109491472754801
0.00126203782373665
0.00140854622922226
0.00151969732686883
0.00158264622093533
0.00158827646374491
0.00152779664615297
0.00139502735333202
0.0011998150774243
0.000979366014910712
0.000798469261183157
0.000735229550820152
0.000873290041590183
0.00108779288873716
0.00134151140215761
0.00163597011903762
0.00197796814091052
0.00236573678422813
0.00279635326245692
0.00326575541680419
0.00376828653165306
0.00429649554061996
0.00484189614830387
0.00539620720428128
0.00595247201065715
0.00650557440513245
0.0070522413511863
0.00759073231249763
0.0081204552469092
0.0086416101967758
0.00915491242482977
0.00966138979083501
0.0101622437761999
0.0106587546268048
0.0111522171854396
0.0116438951959844
0.0121349867528956
0.0126265951874951
0.0131197024011892
0.0136151425559608
0.0141135753603344
0.0146154586657694
0.0151210206228238
0.0156302318566886
0.0161427781005336
0.0166580336628608
0.0171750355603197
0.0176924575079703
0.0182085816545451
0.0187212640641359
0.0192278868572073
0.0197252848798697
0.0202096245459791
0.0206761838943551
0.0211188156328374
0.0215274770880468
0.0218833782089055
0.0221759859020312
0.022384483008669
0.0224740600516812
0.0223841507806788
0.0220018436095908
0.0211324800224749
0.0198075216268734
0.0190134157068885
0.0188570634750216
0.0192164959052193
0.0199749219124418
0.0210355538159247
0.0223364826280554
0.0238445438900842
0.0254980824885957
0.027225747504991
0.0289840789862717
0.0307412091113709
0.0324627674743596
0.0340998536347239
0.035578558805495
0.0368414567348213
0.0378858960071746
0.0387180812978096
0.0393509434809645
0.039813853713712
0.0401648650113655
0.0405330526028309
0.0411855600555113
0.042346217634633
0.0440484696491138
0.0465388526617233
0.0502432673785147
0.0559669335381575
0.0637006082289198
0.0721328033379451
0.0746292824388534
0.0676003419159833
0.0527743472295222
0.0421066226062636
0.0427890111414334
0.0374876315825233
0.02475801019695
0.0125842515684939
0.00442670048521978
0.00245400402301217
0.001599893842607
0.000611191282284782
0.000203118188575029
0.000106255848176781
8.84425662593e-05
9.35877927339718e-05
0.000110717090486501
0.000137817986352831
0.000177040041030553
0.000231067825492222
0.000303370387193584
0.000397527092672705
0.000516475943585718
0.000661101879063722
0.000828720062108762
0.00101288395878461
0.00120711388420377
0.00140249320955994
0.00158356433709726
0.00173612489188447
0.00184672997028163
0.00190405676309424
0.00190029762308153
0.00182836552434665
0.00168377125509592
0.00147623693950989
0.00123994533311972
0.00105016076801443
0.00100762821942503
0.00119562624398715
0.00145982428140704
0.00176330537168238
0.00210855553830463
0.00250158893125309
0.00294214405589944
0.00342904351496137
0.00395869393239355
0.00452422991363504
0.00511609848965333
0.00572394607838021
0.00633845033619872
0.00695240659363882
0.00756092423503656
0.00816113523834541
0.0087517086191124
0.00933239110295994
0.0099036314746414
0.0104663078166657
0.0110215357766825
0.0115705396134547
0.0121145646397472
0.0126548173422353
0.0131924218714062
0.0137283863259908
0.0142635741268648
0.0147986781809113
0.0153341965572016
0.0158704094835051
0.0164073579708939
0.0169448247241013
0.0174823181115796
0.0180190597804562
0.0185539762722961
0.0190856943862743
0.0196125393205831
0.0201325334719639
0.0206433920928765
0.0211425094096305
0.021626924781795
0.0220932524234884
0.0225375559206178
0.0229552229149947
0.0233345939887165
0.0236644041565665
0.0239349158112123
0.0241280488407267
0.0242126553926267
0.0241332360803251
0.0237858870724477
0.0230001055949062
0.0218355960189632
0.0212037691486787
0.021203833283021
0.0217126942594861
0.0226156529850708
0.023815790181379
0.0252503860428726
0.0268834780409198
0.028657215925504
0.0305063467194065
0.0323882602564389
0.0342703962337868
0.036117727757431
0.0378821277690218
0.0394951191385252
0.0409057547728969
0.042112104564201
0.0431226434123132
0.0439544253113009
0.0446432773999956
0.0452559925413454
0.0459316749016457
0.0469356376325976
0.0484715709907608
0.0505532305414556
0.0534241057396863
0.057490724664157
0.063414204861113
0.071047691234729
0.0788859684636169
0.0809842060338872
0.0740239501913612
0.059787164000837
0.0486572584003309
0.0481510819480533
0.0422887247847619
0.0293946061802254
0.0159936865790061
0.00647163505110089
0.00343904869710299
0.00226848689639886
0.000927098682379616
0.000318005539103868
0.0001611479255661
0.000130073657116027
0.000135541470505971
0.000158855747121663
0.00019609569307402
0.000249677615556729
0.000322669477414875
0.00041878758023381
0.000541353600056658
0.000692224316971563
0.000870109395777138
0.00106923916018314
0.00127991342045138
0.00149308612126885
0.00170023959978266
0.00188674301365322
0.00203970331857346
0.00214718822349696
0.00219904102677677
0.00218814810541604
0.00210841309538171
0.00195673295141802
0.00174386231519641
0.00150494166301312
0.00132372224417575
0.00131297988768269
0.00154654421273606
0.00185517065121562
0.00220186646902158
0.00259128778077078
0.00303088491476259
0.00352284263421493
0.0040666895803039
0.00465722969105437
0.00528478770392388
0.00593731703103958
0.00660313230627843
0.00727266067414748
0.00793906140019966
0.00859800567248657
0.00924715463536325
0.00988558880878924
0.0105133379580494
0.0111310231701041
0.0117396060899073
0.0123402157735262
0.0129340324681116
0.0135222080668656
0.0141058106185257
0.014685783127004
0.015262911078418
0.0158377950295633
0.0164108266553048
0.0169821676851028
0.0175517320458673
0.0181191719789995
0.0186838691018932
0.0192449313732487
0.019801196576676
0.0203512425350634
0.0208934035787458
0.0214257920041603
0.0219463222234974
0.0224527338049099
0.0229426073329275
0.023413363464968
0.0238622306235505
0.024286166264115
0.0246817583177625
0.0250381119845377
0.0253484709252187
0.0256044220104828
0.0257902706977934
0.0258778476970927
0.0258158810819034
0.0255087507820601
0.0248075803430112
0.0237950153413969
0.0233154625098543
0.0234582087487603
0.0241002592391363
0.0251287755803965
0.0264476581753008
0.0279949029556467
0.0297334819334076
0.0316088503514352
0.0335603689130492
0.0355464397996963
0.0375342839180666
0.0394886486055729
0.0413624335015308
0.0430916922364221
0.044630530347621
0.0459777579038991
0.0471438674808827
0.0481497407856845
0.0490371535090541
0.0498807695276488
0.0508278737716785
0.0521403416277673
0.0539966749259791
0.0563971612128833
0.0595819256579422
0.0639295185990116
0.0699672672028026
0.0774317927413138
0.0846803313518462
0.086386705321665
0.0794583168975292
0.0658975284273907
0.0546244580033418
0.0531479753173999
0.0467225223863171
0.0339993216343065
0.0195431568957148
0.00892485732272943
0.00465553440708819
0.00307248663648676
0.001347346871975
0.000481041421293643
0.000237725619665736
0.000185800009958492
0.000190244769348309
0.000220536581961327
0.00026954119714515
0.00033950541096937
0.000433459332632149
0.000554745505702283
0.000705612768410792
0.000885993762664244
0.00109190923726483
0.00131478297939255
0.00154289959439257
0.00176640938647464