/*--------------------------------*- C++ -*----------------------------------*\
  =========                 |
  \\      /  F ield         | OpenFOAM: The Open Source CFD Toolbox
   \\    /   O peration     | Website:  https://openfoam.org
    \\  /    A nd           | Version:  7
     \\/     M anipulation  |
\*---------------------------------------------------------------------------*/
FoamFile
{
    version     2.0;
    format      ascii;
    class       volScalarField;
    location    "20000";
    object      k_conv;
}
// * * * * * * * * * * * * * * * * * * * * * * * * * * * * * * * * * * * * * //

dimensions      [0 2 -3 0 0 0 0];

internalField   nonuniform List<scalar> 
15600
(
-6.89604912083442e-06
-5.37597992615273e-07
-6.98270274130348e-07
5.55995372808002e-08
-8.01963207312952e-08
-1.56534453860056e-07
-3.8019807154574e-08
-4.40433542359604e-09
-6.97231581375963e-10
-2.95732223256968e-10
-5.00782578730148e-11
-1.79279136746874e-11
-2.68727590771834e-11
-3.9985159812536e-11
-5.89219776025615e-11
-8.68312547863724e-11
-1.26480832047479e-10
-1.7976336431717e-10
-2.44876316602961e-10
-3.14281791763598e-10
-3.83109087251547e-10
-3.05852885160506e-09
-8.74325869758725e-09
-1.78984264238209e-08
-3.07807507102952e-08
-4.62709983079735e-08
-6.05041114942961e-08
-6.766440430614e-08
-6.34847144982365e-08
-4.67664764724017e-08
-2.32653486794317e-08
-5.29382285134737e-09
-1.27201260636817e-09
-7.48456215086708e-10
-3.46203239586501e-10
1.42649620645147e-10
4.91903358183108e-10
7.60600011021622e-10
1.00082905564828e-09
1.30874117382032e-09
1.5935740226486e-09
1.69316895346545e-09
1.37403401843169e-09
-1.28511594984919e-09
-4.80631549946605e-09
-9.17094138166151e-09
-1.46048424177672e-08
-2.0866257553487e-08
-2.76759312448384e-08
-3.47809598541541e-08
-4.19936610788971e-08
-4.92033052916415e-08
-5.63711370023664e-08
-6.35177212108402e-08
-7.07102416463556e-08
-7.80525064820425e-08
-8.5679311646879e-08
-9.37541758177513e-08
-1.02470684806665e-07
-1.1205599204562e-07
-1.22777055318462e-07
-1.34948679357154e-07
-1.4894421107459e-07
-1.65208877836929e-07
-1.84276750737243e-07
-2.06792310445725e-07
-2.3353812126558e-07
-2.65471181043089e-07
-3.03770984244856e-07
-3.49904802448365e-07
-4.05717212013782e-07
-4.73556666623956e-07
-5.56457935796633e-07
-6.58411693264397e-07
-7.84783340127034e-07
-9.43033530998728e-07
-1.14399858998026e-06
-1.40440441950793e-06
-1.75400107986906e-06
-2.25924623512222e-06
-3.09487497801295e-06
-4.17323976963811e-06
-2.4093559435421e-05
-7.09193183240581e-05
-0.000215528657982886
-0.00036820289626172
-7.97084089486705e-05
-1.71660016558964e-05
-3.75143388711719e-06
6.94859901668058e-08
1.12070310332431e-08
-2.93246826243746e-08
-8.24415028406769e-08
-1.45838806334947e-07
-2.00040944101905e-07
-2.46252468380442e-07
-2.83883531393989e-07
-3.03126359541966e-07
-8.97167669144415e-07
-4.61739664243506e-06
-9.76397188662126e-06
-1.40317388004753e-05
-1.6875126763253e-05
-1.83159979823863e-05
-1.85365050626524e-05
-1.77540698026018e-05
-1.6358659798669e-05
-1.45020433879705e-05
-1.29602745947115e-05
-1.31262333286728e-05
-1.3788414857098e-05
-1.79960365433315e-05
-2.46147751604618e-05
-5.17404292060767e-05
-0.000124498399594321
-0.000366853619419046
-0.00023278087961511
-1.00250453636088e-05
-7.7764488919847e-06
-1.58049420929217e-06
-0.000105868102187379
-4.26816935154086e-05
-5.72310796560407e-05
4.65475005897482e-06
-1.30977570612365e-06
-3.40883332409381e-06
-8.76472316415944e-07
-1.00019378209916e-07
-1.76780909399753e-08
-7.2467656642256e-09
-2.11554243226875e-09
-1.67137122967645e-09
-2.4004988045367e-09
-3.50612126400888e-09
-5.10527783509738e-09
-7.47883424693891e-09
-1.08782221910585e-08
-1.55367655935647e-08
-2.14751623852822e-08
-2.83818488433724e-08
-3.66414487049921e-08
-9.53033170491704e-08
-2.24436580135865e-07
-4.27134819403241e-07
-7.10655012375893e-07
-1.0563278543797e-06
-1.40519687584187e-06
-1.59965228287706e-06
-1.55704402586011e-06
-1.235160476587e-06
-7.33954920634679e-07
-2.96653521772944e-07
-1.10301035150062e-07
-6.66965798642712e-08
-3.03410215485185e-08
1.25840091323264e-08
4.30345162594925e-08
6.51850804803647e-08
8.74034708002623e-08
1.16248987527675e-07
1.45717503875129e-07
1.62990556924094e-07
2.0525346085525e-08
-1.6368612142542e-07
-4.18294969179227e-07
-7.61249570066814e-07
-1.18183951166207e-06
-1.66254132919398e-06
-2.18391262514623e-06
-2.72874668442596e-06
-3.28430182279003e-06
-3.84292539714562e-06
-4.40165438239688e-06
-4.96142299990127e-06
-5.52629414449092e-06
-6.10286946129993e-06
-6.69998346112293e-06
-7.32859882925289e-06
-8.0019525103456e-06
-8.73583468979797e-06
-9.54907757521509e-06
-1.0464168991567e-05
-1.1508076031087e-05
-1.27132701990688e-05
-1.41190377019266e-05
-1.57731526195025e-05
-1.77340357460615e-05
-2.00736156477362e-05
-2.28811439901913e-05
-2.62684411864246e-05
-3.0377177316022e-05
-3.53893127565846e-05
-4.15423935533933e-05
-4.91527177720063e-05
-5.86518550367208e-05
-7.06494226966062e-05
-8.60492221885431e-05
-0.000106281841621089
-0.000133889485390071
-0.000174414116357025
-0.000243647005178443
-0.000446043177927595
-0.00098306921782251
-0.00187028311128166
-0.00333147252804326
-0.00419821223287531
-0.00125766275876836
-0.000312820514961581
-7.17223337475068e-05
8.40156116671859e-06
3.1646722591866e-06
-5.42427609788932e-07
-4.99168823386371e-06
-1.00262565210372e-05
-1.45759878838805e-05
-1.89650940457058e-05
-2.31241168176954e-05
-2.87189146637711e-05
-9.06390684252118e-05
-0.000171146304063144
-0.000270039494996377
-0.000350112671561917
-0.000401670674898012
-0.000425937443060861
-0.000426386939368078
-0.000407551813480867
-0.000376829235161361
-0.000338703587975091
-0.000309534522144632
-0.000312897910954346
-0.000333204275799569
-0.000425510391053874
-0.000590923569103318
-0.00118033121514346
-0.00278727461869257
-0.00747971237249126
-0.00537941552533213
-0.000708947971695532
-0.000551232018931971
-0.00014585438731087
-0.000427179650590749
-0.000378313002731512
-0.000529933641109871
2.69388650905458e-05
-3.55997065843719e-06
-2.09626189129424e-05
-5.58128871211975e-06
-6.26812051516907e-07
-1.23013172500899e-07
-5.15547609238427e-08
-2.09867389651698e-08
-1.94743533263242e-08
-2.67100332075603e-08
-3.78985932962559e-08
-5.43634734482261e-08
-7.90613651619596e-08
-1.1501770960605e-07
-1.65659458206203e-07
-2.33440348544361e-07
-3.19387380314406e-07
-4.35206761839362e-07
-8.35253349770321e-07
-1.68760031431387e-06
-2.97890002537821e-06
-4.75257517736562e-06
-6.8989184669266e-06
-9.19155615831946e-06
-1.05605763783836e-05
-1.04842367359499e-05
-8.72190299216036e-06
-5.75527717884577e-06
-2.90315858979853e-06
-1.24552489055785e-06
-7.47336472608793e-07
-3.20562436535935e-07
1.66637406249768e-07
5.13921484591379e-07
7.75613127217274e-07
1.08388709587791e-06
1.51407682377459e-06
2.02711792271376e-06
1.49481859882428e-06
4.86442675975665e-07
-9.50479689753875e-07
-3.16099786713304e-06
-6.14547287333684e-06
-9.81587825922635e-06
-1.40311303285104e-05
-1.86339210458573e-05
-2.34811635448244e-05
-2.84604507515394e-05
-3.34955096436353e-05
-3.85446558787028e-05
-4.35962486045307e-05
-4.86640299528415e-05
-5.37832862679523e-05
-5.90089394048031e-05
-6.44148856964977e-05
-7.0095394587239e-05
-7.61674737500151e-05
-8.27752348142147e-05
-9.00952847595955e-05
-9.83442340354831e-05
-0.000107788025046576
-0.000118754103494061
-0.000131647079930751
-0.000146969190539477
-0.000165347796899284
-0.000187572411707902
-0.00021464622703949
-0.000247858197616617
-0.000288887163615277
-0.000339954612709641
-0.000404055284628228
-0.000485317193192665
-0.000589603180873211
-0.000725557534581784
-0.00090654259279049
-0.0011549306939871
-0.00151304178344216
-0.0020780396393238
-0.00338062868774278
-0.00494520830862421
-0.00671046415412643
-0.00806336600262143
-0.00789546985585613
-0.00357826630524773
-0.00116313444917558
-0.000288872331115424
7.34173804280409e-05
5.23896558625637e-05
1.28201002275595e-05
-3.54710810327895e-05
-9.11674822701407e-05
-0.000147399720266533
-0.00020921498953664
-0.000272935370013891
-0.000540810387719225
-0.000913239366475525
-0.00136690099407148
-0.00187402254458941
-0.00228269288151459
-0.00254809588838346
-0.00267646633458198
-0.00268154556382826
-0.00258432712049337
-0.00242153530033721
-0.00222339871856656
-0.00208468572663824
-0.00212397907846582
-0.00229020342598778
-0.00288943193232696
-0.00401934401716573
-0.00762632031733834
-0.0170903120277997
-0.0406160763985537
-0.0309672693536777
-0.00621577959270874
-0.0046511974531318
-0.00140351743826934
-0.00234008274688775
-0.00149043876547821
-0.00231702813949741
-3.57463641711007e-06
9.04400757017464e-06
-7.32137294509986e-05
-2.03202549720893e-05
-2.24988648529228e-06
-4.78147299725248e-07
-2.07975526153505e-07
-1.02096439126227e-07
-9.95707980860296e-08
-1.32360754454183e-07
-1.83287914640196e-07
-2.59767040369303e-07
-3.75406715280872e-07
-5.46182661795543e-07
-7.91908068298168e-07
-1.13248844516287e-06
-1.58872050841914e-06
-2.23721483033524e-06
-3.80122769639171e-06
-6.99128831107242e-06
-1.16482048837396e-05
-1.7887931165618e-05
-2.53361236007229e-05
-3.31914845049732e-05
-3.85273828324506e-05
-3.86481144486848e-05
-3.31968613424754e-05
-2.3433123859804e-05
-1.32826489459435e-05
-5.99739491132997e-06
-3.57037829188846e-06
-1.40567967060687e-06
1.01684208036924e-06
2.73492913915559e-06
4.09808462029882e-06
5.8764924704559e-06
8.42780614979077e-06
8.36957812233625e-06
6.00383442347775e-06
2.84434969457667e-06
-2.94346089219178e-06
-1.15464369254169e-05
-2.28037306729148e-05
-3.62802751113998e-05
-5.14073678195693e-05
-6.76018565195982e-05
-8.43459118309913e-05
-0.000101225248372062
-0.000117937940569676
-0.000134288267163959
-0.000150173110587668
-0.000165568958301223
-0.000180520373190865
-0.000195134283845261
-0.000209577435716637
-0.000224080820041991
-0.000238946859819257
-0.000254564122052498
-0.000271424938911019
-0.000290151178990236
-0.000311525398081746
-0.000336531926564135
-0.000366408329712445
-0.000402710988493851
-0.000447400180521277
-0.000502948393583376
-0.000572482654150147
-0.00065996849509792
-0.00077045438635469
-0.000910394717879887
-0.00108808589734741
-0.00131426311435168
-0.00160295956380382
-0.00197274441509058
-0.0024486032994467
-0.0030650888637239
-0.00386719945926382
-0.00522976715098994
-0.00643036778142018
-0.00748204311734186
-0.0079558991533718
-0.00702192028507785
-0.0051089454329611
-0.00321820150151472
-0.00127913690890602
-0.00029940651996585
0.000214315967598884
0.000204772779893683
3.24888569704869e-05
-0.000191676027466365
-0.00045703625883662
-0.000744742565277572
-0.00108165111130812
-0.00164259222890734
-0.00268358921597049
-0.00374491826214827
-0.00493236528796857
-0.00617396807280927
-0.00722040929438018
-0.0079732711064383
-0.00843287166371595
-0.00860295643872556
-0.00850570414189027
-0.00821286957809734
-0.00780819025215067
-0.00756719570038558
-0.00783438450357358
-0.00856260740176492
-0.0107295955250284
-0.0148164671064727
-0.0265922206676848
-0.0548169740036854
-0.111262221030455
-0.08653344719581
-0.0229742412944922
-0.0171338037812312
-0.00538007682371911
-0.00594348241285998
-0.0035230964934259
-0.0067729935170457
-0.00049890321297705
4.80183317848288e-05
-0.000185844439042274
-5.4695343424914e-05
-6.00057069081484e-06
-1.34738749011396e-06
-6.10581540512864e-07
-3.36914685812106e-07
-3.35824943894314e-07
-4.37292041956887e-07
-5.94958287254908e-07
-8.35633606191891e-07
-1.20156618541639e-06
-1.74735784532817e-06
-2.54386029306785e-06
-3.67207553516528e-06
-5.23044658671784e-06
-7.4860812662514e-06
-1.18926066119735e-05
-2.05187634214628e-05
-3.26080909492618e-05
-4.8269023047731e-05
-6.64268880651138e-05
-8.43012352160975e-05
-9.85878948876522e-05
-9.90172435504836e-05
-8.67898598750276e-05
-6.42372249837859e-05
-3.92756407648022e-05
-1.94580554181497e-05
-1.074496757198e-05
-3.67205667603361e-06
4.14081339812658e-06
9.61663632355551e-06
1.42135410853149e-05
2.0667386074245e-05
2.34768786273338e-05
1.9886353292496e-05
1.62154619713773e-05
7.68877818587957e-06
-6.04730232768527e-06
-2.45933967486953e-05
-4.71428355221377e-05
-7.27493804819501e-05
-0.000100482188615843
-0.000129466014184551
-0.000158892224083594
-0.000188048876994299
-0.00021635293388001
-0.000243379180814137
-0.000268868131324178
-0.000292724724161334
-0.000315007185886689
-0.000335921010162554
-0.000355814765190165
-0.000375188627190971
-0.000394707017661026
-0.000415225842003547
-0.000437822611253505
-0.000463839803610412
-0.000494931429333359
-0.000533119789492197
-0.000580856848629751
-0.0006410918486796
-0.000717345807567687
-0.000813788330010075
-0.00093532098260946
-0.00108765944008555
-0.00127741781689701
-0.001512183055861
-0.0018005760169418
-0.00215227513521829
-0.00257797568852044
-0.0030891500608075
-0.00369774176399369
-0.00442063075256713
-0.00534455376176793
-0.00621303107946898
-0.0067683422529422
-0.00696115324059682
-0.00647443975310515
-0.00477419337012872
-0.00260664212439192
-0.00174391266291759
-0.000648659951112246
-0.000146647742237276
0.000129458216544525
4.72943751983993e-05
-0.000367354419431933
-0.000945924791593128
-0.00165211219432714
-0.0024596714145704
-0.0033661502672924
-0.00528146192560994
-0.00691240752089226
-0.00864232075129942
-0.0104184153237071
-0.0121844059175644
-0.0137883311998848
-0.015123346696744
-0.0161946198681706
-0.0169796466865605
-0.0174578545724681
-0.0176751338362844
-0.017718796206595
-0.0180070411314287
-0.0191712311011328
-0.0213782747510831
-0.0267198450642435
-0.0363691509384415
-0.0609618136851079
-0.111779342751634
-0.18653713116995
-0.146039725337887
-0.0512932793470999
-0.0398746650884215
-0.0118040139863674
-0.00988613986363637
-0.00475804407626845
-0.0140081704949419
-0.0022676139164076
0.000245521173785704
-0.000380209872839119
-0.000121256330185182
-1.32828949985603e-05
-3.0884273390917e-06
-1.46222701865709e-06
-8.75616164929169e-07
-8.84230729819414e-07
-1.1350915784705e-06
-1.52483172096639e-06
-2.12658625876659e-06
-3.04446142880908e-06
-4.42114749845332e-06
-6.44602772706339e-06
-9.34789528772342e-06
-1.34154937063153e-05
-1.92930091011748e-05
-2.92151885076906e-05
-4.78831588355478e-05
-7.27572700982136e-05
-0.000103438045069579
-0.000137222833265102
-0.000168792865663596
-0.000191622309651038
-0.000193286703067336
-0.000171055115057874
-0.00013122329573312
-8.51039061743629e-05
-4.55257246314834e-05
-2.33124809865251e-05
-5.99310295020882e-06
1.30735416237882e-05
2.62307495436876e-05
3.80528506949091e-05
4.63517892674062e-05
4.22423672372687e-05
4.15319492421799e-05
3.52154259232035e-05
2.32071274350838e-05
5.59007001761028e-06
-1.7838751052025e-05
-4.75606545822229e-05
-8.37191306953093e-05
-0.000125627683133255
-0.000171777654398116
-0.000220213876699277
-0.000269012443677655
-0.000316600016345145
-0.000361902062200301
-0.000404340968996653
-0.000443776556347254
-0.000480422667893531
-0.000514782749044778
-0.000547601168083626
-0.000579843514523099
-0.000612689427738835
-0.000647546907574895
-0.000686069399188085
-0.000730184831840929
-0.00078212155817593
-0.000844436876789902
-0.000920039339031736
-0.00101220500218925
-0.00112458593158455
-0.00126120428102789
-0.00142643259655014
-0.00162494660253884
-0.00186164285490156
-0.00214149099312581
-0.00246928839047846
-0.00284924980700179
-0.00328431910554581
-0.00377473069573011
-0.00431326060019795
-0.00486340545622489
-0.00560434939534963
-0.00592909929943507
-0.00607564811117061
-0.00590436865969881
-0.00520502997953587
-0.00363681360551818
-0.00190233633453348
-0.00127690186259677
-0.000699749676820469
-0.000680638006814584
-0.000782305726128195
-0.00109221464871691
-0.00185315227253602
-0.002878867385393
-0.00411569335225934
-0.00555161670178786
-0.00790644854756369
-0.00986535950536909
-0.0118836401446559
-0.0138963311049638
-0.0158199876437475
-0.0176776882918871
-0.0194564529711153
-0.0210840479678024
-0.0226156009885134
-0.0240721260549646
-0.0254670211099378
-0.0268728359487095
-0.0283751645441797
-0.0303147281918436
-0.0333599161405966
-0.0381757033656637
-0.0476886401375725
-0.0636268359289047
-0.0985854572023764
-0.158558388783973
-0.219207933288817
-0.177390315167455
-0.08186590422596
-0.06892301070212
-0.0196174981746305
-0.0149828790329985
-0.00331810858039405
-0.0210097611843898
-0.00575420207762182
0.000889507863727317
-0.000655487503142631
-0.000232732861451297
-2.56986704009525e-05
-6.09771085665111e-06
-3.03149575345916e-06
-1.93559663316395e-06
-1.97511028712342e-06
-2.50940623948607e-06
-3.33883257439951e-06
-4.62797156405899e-06
-6.59529778308538e-06
-9.54925072554454e-06
-1.39016189014998e-05
-2.01571042212032e-05
-2.89462227118733e-05
-4.14491445944006e-05
-6.01797396293606e-05
-9.39148052949496e-05
-0.000135883015410291
-0.000183987777140407
-0.000232674070010369
-0.000273888673979255
-0.000298075726798787
-0.000298807763956995
-0.000264895841657737
-0.00020867632964692
-0.000142107874247478
-7.98828021576428e-05
-3.78293838357563e-05
-3.62185303260311e-06
3.38975627525353e-05
5.93639525069196e-05
7.37539814230765e-05
6.96993201332497e-05
7.51419724954381e-05
7.61483100074841e-05
7.16204219606305e-05
5.95722539982097e-05
3.64022878065106e-05
-1.33623862353156e-06
-5.48476551738217e-05
-0.000122192900027866
-0.000199051214210197
-0.000280363384431409
-0.00036165380141232
-0.000439706900741232
-0.000512617372613617
-0.000579578390633923
-0.000640574027781252
-0.000696127030949238
-0.000747106222085994
-0.000794612668092149
-0.000839911684155428
-0.000884409055106489
-0.000929644714162248
-0.000977306893246315
-0.00102924707643257
-0.00108750164365326
-0.00115430692301757
-0.00123211103252617
-0.00132357500429983
-0.00143156180267279
-0.00155911005323989
-0.00170938433029556
-0.00188559784887822
-0.00209089126894993
-0.00232815407223148
-0.00259975766326321
-0.00290716857462475
-0.00325039764154255
-0.00362729339707252
-0.00403298418486068
-0.00446105442299058
-0.0049256358610816
-0.00525908700426731
-0.00541460597382508
-0.00542143721264796
-0.00520422883234593
-0.0046033638570758
-0.00336651603526291
-0.00211949012609586
-0.00160635254419059
-0.0014369574589128
-0.00184505962805108
-0.00237160755015344
-0.00301790985366658
-0.00414681955445799
-0.00560728680258804
-0.00728768766056328
-0.00956819094171133
-0.0119992473657348
-0.0141201572831045
-0.0162425976874754
-0.018253582485078
-0.0200959660570175
-0.0218734550424892
-0.0236221634823244
-0.0253006872536769
-0.0270022224852469
-0.028802180238804
-0.0307903968090758
-0.03314339949727
-0.0360307507317803
-0.0396927003526164
-0.0446134734779623
-0.0522434455673488
-0.0649236845284224
-0.0846618593624361
-0.12189345619968
-0.175709229633365
-0.213255009035855
-0.18327494632157
-0.107974271858694
-0.0968570919788832
-0.0332743589658189
-0.0250492609104437
-0.00166669616064274
-0.0250036716710691
-0.0102869919116704
0.0026055047160128
-0.000961418067170264
-0.000394779124360503
-4.43792235241923e-05
-1.06673788890594e-05
-5.62458027468558e-06
-3.80068789436463e-06
-3.9196591954942e-06
-4.94142783536921e-06
-6.52314908639011e-06
-8.98609555089038e-06
-1.27329712084693e-05
-1.83352421840769e-05
-2.6546604593472e-05
-3.82718061709136e-05
-5.45866856261032e-05
-7.71577833799125e-05
-0.000107316299275587
-0.000158829569173329
-0.000217090623483648
-0.000277203241368777
-0.000330868542957946
-0.000369523409406657
-0.000385539878415672
-0.000378832617734807
-0.000336007633072835
-0.000268986871797572
-0.000189487914617244
-0.000109380060687893
-4.51720694183544e-05
1.24654484233447e-05
7.33048146935143e-05
0.000104482532670398
9.59405307200789e-05
0.000108265706822291
0.000116715716276564
0.000119256172124583
0.000110335903664349
8.26743877766115e-05
3.03611088862928e-05
-4.75429707585093e-05
-0.00014625145331141
-0.000257632518343327
-0.000373278334993472
-0.000486616726635295
-0.000593430827793521
-0.000691596603470934
-0.00078047746459659
-0.000860409233704847
-0.000932290758812307
-0.000997334210592709
-0.00105690510923853
-0.00111244618928817
-0.00116543979752852
-0.00121740520670155
-0.00126990641166098
-0.00132457271216289
-0.00138311725212706
-0.00144735710112619
-0.0015192256611222
-0.00160077828888015
-0.00169418562394389
-0.00180171176133733
-0.00192567391061214
-0.00206837645128474
-0.00223201535710444
-0.00241854184303657
-0.00262947628782619
-0.00286565284530945
-0.00312687155938186
-0.00341141591053618
-0.00371540488225987
-0.0040323310501181
-0.00435661755913832
-0.0047346626919987
-0.00488865028535653
-0.00499883124283336
-0.00501287433030787
-0.00488440485505681
-0.00447196743230992
-0.00357381995227744
-0.00276572215996149
-0.00236748041433664
-0.00253933393239305
-0.00330186976539017
-0.00424447737336295
-0.00550509909820835
-0.0066778148102418
-0.00840094064869031
-0.0106636577691873
-0.0132558780254852
-0.0154057144149723
-0.0175788716436381
-0.0196704710636697
-0.021580429145819
-0.023297451922895
-0.0249744992903462
-0.026642467227075
-0.0282850127806931
-0.0300115438968261
-0.031926367072445
-0.0341644823793507
-0.036967837696378
-0.0405476354967748
-0.045075626654402
-0.0509899834502094
-0.0603848292043095
-0.0741296012822686
-0.0944258589735931
-0.128372993345066
-0.17181700744416
-0.194279834163862
-0.177909224335131
-0.128477462287157
-0.117977191117373
-0.0545490713892334
-0.04046053483895
-0.00346985584529075
-0.0263932760102452
-0.0143241290629192
0.00528250689337546
-0.00116248551705756
-0.000591864281854592
-6.82031488659401e-05
-1.6670894330424e-05
-9.51136448806287e-06
-6.80190323150811e-06
-7.10398284156686e-06
-8.90193457914052e-06
-1.16658283736068e-05
-1.59549183320647e-05
-2.24271769709218e-05
-3.19987801929375e-05
-4.5834664463395e-05
-6.5244553351771e-05
-9.16289295012514e-05
-0.000126734588364958
-0.000170312240164249
-0.000234612485153507
-0.000300915318632304
-0.000360524354431266
-0.000405338940516353
-0.000429981230504618
-0.000431426540904376
-0.000413007781380802
-0.000376242992334839
-0.000297613800288722
-0.000212044363230714
-0.000120468209218905
-3.59083036908276e-05
5.12744659213671e-05
0.000126611032251895
0.000120733449079207
0.000132630513951813
0.000145986299636514
0.000152388062857342
0.000144319683226269
0.000110909842210569
4.43719139627629e-05
-5.55149441619515e-05
-0.000181333674060094
-0.000321752463830705
-0.000466099078072061
-0.000606494075033426
-0.000738191674027459
-0.000858850763097498
-0.000967826314541945
-0.00106551553648838
-0.00115293838584686
-0.00123142578011766
-0.00130244511424823
-0.00136748900372535
-0.00142802935567528
-0.00148549832597632
-0.00154129575932172
-0.00159680389201505
-0.00165341100619942
-0.00171253362538839
-0.00177563872308426
-0.00184425991266582
-0.00192000668010936
-0.00200456279145932
-0.00209967045924339
-0.00220709758814617
-0.002328583187325
-0.00246575884016783
-0.00262004104815464
-0.00279249124178947
-0.00298363421371718
-0.00319321955629493
-0.00341987610154401
-0.00366048213664219
-0.00390866068669174
-0.00415302992805265
-0.00444018818978283
-0.00459401198474619
-0.0047305744986197
-0.00482059664865426
-0.00482748920100243
-0.00461471941977076
-0.00402445135552037
-0.0036092394088814
-0.00334136538005155
-0.00378936117605756
-0.00482459649345635
-0.00608551615232102
-0.00766215583819424
-0.00954343953609443
-0.0115785438810483
-0.0137857199211453
-0.0159592685016731
-0.0181643317287143
-0.0203185904299784
-0.0223370940375399
-0.0241355942061203
-0.0257432285976848
-0.0273339390969753
-0.0289197448792836
-0.030505272180557
-0.032204558525877
-0.034133352188677
-0.0364427497630817
-0.0393885784138014
-0.0431534536266089
-0.047830825369643
-0.054142905255
-0.0639866544199508
-0.077323724603851
-0.0962897725798318
-0.125461028808281
-0.160079554482037
-0.174942518943286
-0.169238270832827
-0.154480535526152
-0.133231662714259
-0.0777422682818185
-0.0580593262692935
-0.0100268472973897
-0.0260196775185236
-0.014996136201755
0.00562338061876722
-0.000998595862125443
-0.000767096276337359
-8.99252756865726e-05
-2.29230490369427e-05
-1.47720678215279e-05
-1.12648663563883e-05
-1.19590848996635e-05
-1.49138331971855e-05
-1.93926397160168e-05
-2.6276519129934e-05
-3.65128861804852e-05
-5.13606112517712e-05
-7.23097242481772e-05
-0.000100820321657284
-0.000138132952859431
-0.000185345901630784
-0.000242224115973175
-0.00030689047316823
-0.000369519453620012
-0.000417172467867336
-0.000445214645850961
-0.000452731688799083
-0.000440430021709544
-0.000412688538387066
-0.000374233249732421
-0.000315621580034202
-0.000210293442748586
-0.000109878136795457
-7.28188944033604e-06
0.00011256715533532
0.000139269596110063
0.000149678333589515
0.000161151768925168
0.000169361224079605
0.000161780475307786
0.000125310627574008
4.97716710824289e-05
-6.51470354476283e-05
-0.000210128014915745
-0.000372004379120489
-0.000538714509148822
-0.000701713698978412
-0.000855609496699725
-0.000997517929621779
-0.00112627633304869
-0.00124195730317934
-0.00134538888234909
-0.00143783887521429
-0.00152075896096968
-0.0015956417063529
-0.00166392940951579
-0.00172698009608268
-0.00178605729505504
-0.00184234281195575
-0.00189695698453066
-0.00195098690424235
-0.00200551536526678
-0.00206165059059332
-0.00212055278755148
-0.00218345562748684
-0.00225167974307884
-0.00232663469985735
-0.00240980722214323
-0.00250273256750377
-0.0026069486378225
-0.00272393226359124
-0.00285501927092252
-0.00300130751065353
-0.00316353830834174
-0.00334192568855683
-0.00353574944728089
-0.00374121719783635
-0.0039341501405319
-0.00420041770687199
-0.00438721004084488
-0.00458711246629355
-0.0047805273958611
-0.00493090384569198
-0.00490406865490908
-0.00458895804834147
-0.0045307612401654
-0.00440194762804928
-0.00506577143014037
-0.0063032937791926
-0.00779778995879209
-0.00958185724114661
-0.0116093460648321
-0.0137750719572745
-0.0159739636631619
-0.0181964424594156
-0.0204039214678307
-0.0225139567299491
-0.0244542990537493
-0.0261568698777498
-0.0276795510250213
-0.0292002537536419
-0.0307143748783581
-0.0322432044536822
-0.0339003555556498
-0.035804268966818
-0.0381065821450242
-0.0410475204241093
-0.0447472572714276
-0.0492163923563243
-0.0557429731001124
-0.0652135891021609
-0.0774936047594794
-0.0944804098438066
-0.119152738217772
-0.147087030241553
-0.158266545086159
-0.160260234460308
-0.162139146706061
-0.144610178933881
-0.0979482645315619
-0.0746332194809754
-0.0208991048442942
-0.0232912768840342
-0.0147909486880732
0.00611819661466819
-7.7570394916798e-05
-0.000808031733193053
-8.94385199688877e-05
-2.59615282968093e-05
-2.10116745044875e-05
-1.74019249092994e-05
-1.88897634323181e-05
-2.34663141922582e-05
-3.02335796968871e-05
-4.04599744361382e-05
-5.53270998805161e-05
-7.6281605890278e-05
-0.000104838618128141
-0.000142114251732456
-0.000188544154307578
-0.000243807625641653
-0.000304714334012198
-0.000363589714886065
-0.000414586775235738
-0.000446148865482951
-0.000457549100064372
-0.000450804783078507
-0.000428228788704006
-0.0003938933052841
-0.000350795673054997
-0.000294876909603953
-0.000213254562889446
-9.02211730548629e-05
3.87404886406998e-05
0.000144324281928254
0.000156903547805022
0.000166792123462663
0.00017388456504147
0.000167551150044985
0.000131496566574392
5.30499319752365e-05
-6.92699523128237e-05
-0.000225724658786397
-0.000401847082431286
-0.000585213759687471
-0.000766781533250554
-0.000940589277499327
-0.00110275950208163
-0.00125124383152143
-0.00138538124982095
-0.0015055663857249
-0.00161282156325108
-0.0017085017517407
-0.00179405816778345
-0.00187091032115112
-0.00194036940145815
-0.00200361375464252
-0.00206168701956757
-0.00211551680543534
-0.00216594176005164
-0.00221374673596679
-0.00225970124231147
-0.00230460057233101
-0.00234930692981455
-0.00239478825322883
-0.00244215219484595
-0.00249267162541194
-0.00254779943127752
-0.00260917060381491
-0.00267859226723622
-0.00275802424462589
-0.00284955533411705
-0.00295538051232612
-0.00307778494512553
-0.00321914397424775
-0.00338201665281252
-0.00357023399890597
-0.00382108348575972
-0.00401542566017725
-0.00425445905564073
-0.00453380993291731
-0.00483672769974765
-0.00512288574643321
-0.00526293066210126
-0.00519569023846734
-0.00546468591068876
-0.00547633926599837
-0.00630569481249769
-0.00769156086086069
-0.00935296395171438
-0.0112735891610381
-0.0133930586987155
-0.0156007160092046
-0.0178257322461965
-0.0200617584429658
-0.0222483201192784
-0.0243073242595271
-0.0261762026877649
-0.0278015252664769
-0.029259269072628
-0.0307227800468823
-0.0321766988812267
-0.0336548047689664
-0.0352682533369874
-0.0371338584203376
-0.0393961382079551
-0.042265871663691
-0.0457923724692863
-0.0499106658094798
-0.056701874511201
-0.0653405044614548
-0.0763953770052449
-0.0913382443805003
-0.112161438912319
-0.134961859962718
-0.144271017710514
-0.151946299100683
-0.167090069013547
-0.153597565128018
-0.114011615550651
-0.0884142406995311
-0.0349056476833248
-0.0170541769085453
-0.0150327130542272
0.007246567945959
0.00210190223676009
-0.000566396449245804
-2.56688356324313e-05
-1.79619858228922e-05
-2.68672737564295e-05
-2.51208170320623e-05
-2.81422843853225e-05
-3.48642467412433e-05
-4.44127059470843e-05
-5.84836732528697e-05
-7.8323436014783e-05
-0.000105275766198546
-0.000140494092279591
-0.000184331108922283
-0.000236128139415978
-0.000294085658153453
-0.000352740752511949
-0.000401441730556069
-0.000439139531818997
-0.000456364977247686
-0.000454823882335499
-0.000437624194275688
-0.000407368427362662
-0.000367532666056005
-0.000319958429776842
-0.000260481036649294
-0.000177535331972825
-6.23916160475763e-05
6.02485921794989e-05
0.000151268785634693
0.000161848986250147
0.000169825936194122
0.000166168118197256
0.000133410868518148
5.71883023339392e-05
-6.63756675753493e-05
-0.00022757912270577
-0.000411912794972545
-0.00060649187614478
-0.000802538989471389
-0.000993460039217415
-0.00117443471907813
-0.00134215089462987
-0.00149496762203036
-0.00163255055544025
-0.00175551471277637
-0.00186499136158049
-0.00196234217372049
-0.00204894623192669
-0.00212609001608915
-0.00219490706313995
-0.0022563633497875
-0.00231126392475005
-0.00236027793293179
-0.00240397311416189
-0.00244285919623107
-0.002477437222097