/*--------------------------------*- C++ -*----------------------------------*\
  =========                 |
  \\      /  F ield         | OpenFOAM: The Open Source CFD Toolbox
   \\    /   O peration     | Website:  https://openfoam.org
    \\  /    A nd           | Version:  7
     \\/     M anipulation  |
\*---------------------------------------------------------------------------*/
FoamFile
{
    version     2.0;
    format      ascii;
    class       volScalarField;
    location    "20000";
    object      k_diff;
}
// * * * * * * * * * * * * * * * * * * * * * * * * * * * * * * * * * * * * * //

dimensions      [0 2 -3 0 0 0 0];

internalField   nonuniform List<scalar> 
15600
(
0.00542383041073564
0.00407349895373654
0.00178530188995036
0.00053075891763675
0.000124927438609148
0.000141650312645253
6.96769497828573e-05
1.43208794533537e-05
4.50829139549054e-06
3.24895456056468e-06
2.81846140839983e-06
2.79192986338961e-06
2.96579795322363e-06
3.30675897781167e-06
3.83404278898619e-06
4.55137169404626e-06
5.48816209893344e-06
6.67686835753781e-06
8.14741571023454e-06
9.91278991365673e-06
1.19567667788395e-05
1.42471819351478e-05
1.67832977950375e-05
1.92764468264974e-05
2.14528501990273e-05
2.29559268719289e-05
2.33883325031828e-05
2.240367010906e-05
1.99356519803646e-05
1.62406634912478e-05
1.19497189725735e-05
8.04614541562913e-06
5.23063910106212e-06
3.72200773612188e-06
3.15720071116599e-06
3.43448438775927e-06
4.30734861950555e-06
5.66820671151538e-06
7.48784596405988e-06
1.00139403379857e-05
1.34844415523779e-05
1.81345797819139e-05
2.41679345835329e-05
3.17639945918254e-05
4.10456249395668e-05
5.20359803202269e-05
6.46674927211998e-05
7.88043231227385e-05
9.42703585128636e-05
0.000110878283453058
0.000128452291340377
0.000146842753638359
0.000165933173128307
0.00018564187205825
0.000205920605513764
0.000226752049227638
0.00024814722128993
0.000270143567574285
0.000292803846842544
0.000316215987271066
0.000340493754569075
0.000365778281520107
0.000392240321403814
0.000420083285891878
0.000449547089252071
0.000480912955679422
0.00051450942910691
0.000550719956703541
0.000589992659638267
0.000632853128137813
0.000679921561758834
0.000731936103386859
0.000789785316199386
0.000854554303373583
0.000927591697360649
0.00101061037876564
0.00110584889913394
0.00121634424816359
0.00134642862823342
0.00150285376387384
0.00169795168184426
0.00195962767067631
0.00229259372143196
0.00267241192249859
0.00304034475795154
0.00283768124107785
0.00140527664475998
0.000838973448567929
0.00062998581031063
0.000561663158071267
0.00058770658899842
0.000665448296431241
0.000784914565569041
0.000952030327677899
0.00116966170311707
0.00143450463580146
0.00174666064651427
0.00210747958187163
0.00251195629791287
0.00294880521342787
0.00339307224388364
0.00380052134932806
0.00415942950475523
0.00447091612589984
0.00474001361741231
0.00497716832433783
0.00520335970095663
0.00546044570335709
0.00584616162139257
0.00645323047380782
0.00731608004814883
0.00863010659460663
0.0105563300503572
0.0141301132129279
0.0204411668788621
0.0316036564571456
0.0304454012375536
0.017663286101412
0.0093777219471223
0.0062389741312669
0.0294711567622959
0.0221699784563566
0.00978096431327032
0.00299686122282733
0.000718254751630706
0.000779246716082708
0.000396105520652695
8.63719965336487e-05
2.62556142144073e-05
1.81081732285161e-05
1.5560601261029e-05
1.53262978058708e-05
1.62218374556105e-05
1.80315958480773e-05
2.08560638234643e-05
2.47133485650205e-05
2.97588693223527e-05
3.61687220636903e-05
4.4108806813777e-05
5.36580215645043e-05
6.47354695192647e-05
7.71199503180278e-05
9.08467194873119e-05
0.000104385824383975
0.000116254994583616
0.000124553200595776
0.00012716482985696
0.000122252457310165
0.000109342644290126
8.97012087709672e-05
6.65530600318111e-05
4.51106497913547e-05
2.93085909762365e-05
2.07048619943121e-05
1.74069832511937e-05
1.88701330303127e-05
2.36919632903883e-05
3.1194255646452e-05
4.12199481089225e-05
5.51418673361804e-05
7.42619894180554e-05
9.9858202180118e-05
0.000132899437513105
0.000174478254393359
0.000225214648459119
0.000285179163351702
0.000353967131600926
0.000430806569086455
0.000514714276109362
0.000604654537885382
0.000699661554574551
0.000798916753588579
0.000901783953447105
0.00100781611417453
0.00111674587383401
0.00122847034282903
0.00134303586691803
0.00146062644945997
0.00158155655591901
0.00170626901073766
0.00183533711882512
0.00196947117354593
0.00210952853455541
0.00225652760249017
0.00241166566154965
0.00257634144406228
0.00275218355985428
0.0029410866927547
0.00314525870242693
0.00336728281435151
0.00361020154129999
0.00387763141689974
0.0041739227503359
0.00450438527280814
0.00487561235620651
0.00529595879871999
0.00577627799101921
0.00633110134539389
0.00698062805891386
0.00775458545189279
0.00870027841225213
0.0098560302293053
0.0110505407479289
0.012132675934637
0.0125384370918528
0.0107084987372997
0.00635166966418069
0.00424506565884332
0.00336974481324545
0.00310086449965375
0.00326357203012747
0.00370569793621435
0.00437693966200428
0.00530959553311008
0.0065163824264342
0.00797861376542879
0.00969819422671192
0.0116801439840097
0.0138399513794066
0.0161509480235267
0.0184733568081715
0.0206095138891403
0.0225126603414397
0.0241890298215272
0.0256627567544784
0.0269878994244531
0.0282761559319031
0.0297608965414484
0.031964961327998
0.0353620986960933
0.0401652689724577
0.0474026252640814
0.0580318982963553
0.0774180736164825
0.110805566720211
0.16522944737309
0.158336031887441
0.0941980590594903
0.0504903809540207
0.0339273861601891
0.0698227177325838
0.052698315403547
0.0235041199783575
0.0075039105582993
0.001817885432207
0.00187991019709905
0.000990300415620483
0.00022880207130695
6.77970973735532e-05
4.47518347511485e-05
3.80709870047279e-05
3.72883981271661e-05
3.93237629954404e-05
4.35668233472815e-05
5.02508493089262e-05
5.94149760679228e-05
7.14188075252029e-05
8.66797009292007e-05
0.000105597191610684
0.000128372001839825
0.000154818878902509
0.000184192118785433
0.000216549883009908
0.000248310536551019
0.000275905050130889
0.000294925924536174
0.000300496932769408
0.000288968999629492
0.000259210640897582
0.000214074885528994
0.000160573035906805
0.000110147734421785
7.1985192090076e-05
5.05461810100218e-05
4.22497517226383e-05
4.59348531472302e-05
5.79620617365251e-05
7.64826046753604e-05
0.000101279752412725
0.000135805009778498
0.000183249156139189
0.000245604771269924
0.000325808176004072
0.000426205949061596
0.000547492932162754
0.000689202603581737
0.000849738638073088
0.00102673413380796
0.00121748159890805
0.00141931343509539
0.00162986076429414
0.00184718748337661
0.0020698254200858
0.00229675124061611
0.00252733623535484
0.00276129176000824
0.00299862109675375
0.00323958346134536
0.00348467021068589
0.00373459337623206
0.00399028404252935
0.00425290066043883
0.00452384529349523
0.00480478904029703
0.00509770637729867
0.00540492084824749
0.0057291642199637
0.00607365263997594
0.00644218481206834
0.00683926694316435
0.00727027125591734
0.00774163285122316
0.00826108882689137
0.00883795495045217
0.00948342056006845
0.0102108005343965
0.0110355973056216
0.0119750161849469
0.0130459825848144
0.0142586110832427
0.0155891942414456
0.0165727902033266
0.0173436789359519
0.0174877230680761
0.0163011061995105
0.013042594743724
0.0101586076807437
0.0084206507167396
0.00751997861381876
0.00739405504250123
0.00787628315379382
0.00896246621069378
0.0105757186383459
0.0127870075330473
0.0156207478535189
0.0190392767647779
0.0230622369040309
0.0275026338497727
0.0322983420365502
0.0373818725737961
0.0424642102464488
0.0472517342812088
0.0516727839875416
0.0557211581426329
0.0594256360118797
0.0628860491160004
0.066336915013978
0.0703190103001257
0.0759935920606818
0.0843730978209887
0.096048467887963
0.113218190042983
0.138217647575188
0.181948674590426
0.252680818097668
0.351989410371923
0.335206863193776
0.211385954921972
0.115754062469884
0.0799042735757924
0.111564811435777
0.0864183983438697
0.0397861023799373
0.0135943317844445
0.00331986495289963
0.00322345291184684
0.00176590204187987
0.000432784488481731
0.00012591368225027
7.94578657860857e-05
6.68331472975551e-05
6.5073607859076e-05
6.83622139146182e-05
7.54719999146745e-05
8.67820075468031e-05
0.00010234670906095
0.000122750410880733
0.000148684055025424
0.000180810717330596
0.000219455142659051
0.00026424050781661
0.000313361402463688
0.000366550885059786
0.000417892732046848
0.000461220807820335
0.000489405096737584
0.000494852173808742
0.000473242451090067
0.000424277085292505
0.000352339971908989
0.000267810941567444
0.000187092211642603
0.000124490961830706
8.72346137005369e-05
7.32523691923883e-05
8.11219660288397e-05
0.000103651417322828
0.000137518953987606
0.000183181687063506
0.000247006660779651
0.000331076289388008
0.000439396203803404
0.000576483332579406
0.000741995539657045
0.000934087278589272
0.00114901267166796
0.00138199789900839
0.0016281111520848
0.00188291714552367
0.00214282026865353
0.00240514372148509
0.00266805248532061
0.00293040921035405
0.00319162772432402
0.0034515504502529
0.00371036129191354
0.00396853068483098
0.00422678944981394
0.00448612427733414
0.0047477918939889
0.00501334641556123
0.00528467972674306
0.00556407061135426
0.00585424329349588
0.00615843130084641
0.00648044505071376
0.00682473725251272
0.00719645805457161
0.0076014875577387
0.00804642401663439
0.00853849690468299
0.00908535290858822
0.00969463685480023
0.0103732405086428
0.0111260228534257
0.0119536732141662
0.0128491769584992
0.01379197335781
0.0147384384578453
0.0156099855842144
0.0159489428163903
0.0161203595336932
0.0157657806804735
0.0146800056342123
0.0125876945813425
0.00993586191247922
0.00962064897869525
0.0098843415470079
0.0101677697767408
0.0109210039970098
0.0120819216618843
0.0139057643137329
0.0164792006749166
0.0199107719907293
0.0242414455764839
0.0294431478307689
0.0354011053667999
0.0417480379504361
0.0487760720399704
0.0562462028050056
0.0638204927930997
0.0713126656835889
0.0786577609791117
0.0858003953578313
0.09272981519156
0.0995399285605685
0.106527203593074
0.114504711713291
0.125151950035539
0.13988198042506
0.159790874343314
0.187776607058715
0.227425183795418
0.291514437216288
0.383277879577867
0.482485053666198
0.455153223532591
0.311833740093617
0.173000342406803
0.125373313286777
0.131955327150884
0.109759338096949
0.0543970942112467
0.0209711181094511
0.0052217236726163
0.00467673013720728
0.00267392486019508
0.00069682690610287
0.000200455799390663
0.000120845251513861
0.000100342283698515
9.70805073315588e-05
0.000101560805885009
0.000111692056106741
0.000127976120673827
0.000150457477251879
0.000179914949877055
0.000217278007694529
0.000263416051375703
0.000318673667579184
0.000382246772567644
0.000450592104341859
0.000522126568668132
0.000588834837483981
0.000641743462199527
0.000671523838133072
0.000669705429426788
0.000631143141824418
0.000562881288857053
0.000469079432910282
0.000362058107001778
0.000259483470331876
0.000177877063269124
0.000126279972142609
0.000108579960579985
0.000125182214112854
0.000163198148261714
0.000218150607557639
0.000292616688810248
0.00038903990962363
0.000508308255198949
0.000657351312717902
0.000830371711743719
0.00102212705870435
0.00122657799989962
0.00143857885403224
0.00165473747662494
0.00187343221410194
0.00209433028675381
0.00231781658758205
0.00254455698514521
0.00277527408216875
0.00301067802552938
0.00325149345131063
0.00349852143013005
0.00375271143076534
0.00401522572106416
0.00428749548838986
0.00457126536342834
0.00486862913344953
0.00518205289512588
0.00551438589960669
0.00586885169724078
0.00624901494627512
0.00665871225876169
0.00710193558510904
0.0075826513364994
0.00810453516269289
0.00867059939772904
0.00928268436978887
0.00994078393326457
0.0106421696598094
0.011380279674467
0.0121433336523279
0.0129126426330603
0.0136605824692143
0.0143482025269136
0.0149220904998841
0.0153055696159177
0.0153286973247507
0.0150681694112379
0.0145728660284526
0.0136668558555184
0.0122822658461242
0.010268177354311
0.00818380287647889
0.00825423086617668
0.00911846833982647
0.0101323384284917
0.0116172131155987
0.0135101233345738
0.0159630129992139
0.0192393248987168
0.0234544634517606
0.0286395699402743
0.0348281815452216
0.0411222093537164
0.0485725221572199
0.0567675422953122
0.0655333107382473
0.0746130928791428
0.0840353334872549
0.0938207496450133
0.103934848289375
0.114378647713198
0.125249285078669
0.136848195867455
0.150110137382052
0.166837851728956
0.188429412452713
0.216309947773332
0.252905160803121
0.302046530276483
0.371986865717098
0.454500032988791
0.515027255825064
0.488812980310935
0.370921001080135
0.198121681187583
0.144512339277448
0.118575188658843
0.110787742491997
0.0615866463286983
0.0287086779750939
0.00771331008629511
0.00614129962455264
0.00367379491744375
0.00102201299170982
0.000292748241741514
0.00016856286723925
0.000137927201083528
0.0001325183211352
0.0001379889582124
0.000151096492502236
0.000172397236955805
0.000201866289092916
0.00024038094002
0.00028897982702932
0.000348550628066262
0.000419183157275933
0.000499202021715486
0.000582688537404548
0.000664895485996774
0.000736818571312373
0.000787078440585935
0.00080574085688688
0.000785735610590584
0.000725648388343797
0.000638192375626376
0.000532706355978294
0.000418716758197376
0.000310862163069354
0.000222980174718851
0.000164735759026275
0.000148988792968993
0.000182187854132226
0.000242158441905325
0.000323728794125999
0.00042293406474213
0.000533935741191588
0.000668407977547225
0.000812965938071906
0.00096206807452807
0.0011133787107183
0.00126889098692494
0.00143367028943549
0.00161356765276863
0.00181328117313688
0.00203538825886731
0.00228042161969627
0.00254748823020632
0.00283501495320285
0.00314133255263193
0.00346504875690108
0.00380522907024315
0.00416145561942805
0.00453380876647579
0.00492281083175831
0.00532934538146899
0.00575456245595558
0.00619976606447544
0.00666628311416663
0.00715530527881842
0.00766769968297113
0.00820378124734572
0.00876304361608661
0.00934384743521397
0.00994306882288104
0.0105557181999406
0.0111745446721481
0.0117896520774089
0.0123881584691377
0.0129539415610625
0.0134675138351315
0.0139060768255552
0.0142438214270022
0.0144527790714057
0.0145064759988891
0.0143995069198083
0.0138959527391793
0.0134875854787781
0.0128413395524086
0.0119613668331747
0.010803219105625
0.00923994868569496
0.00776886188565514
0.00813941414701583
0.00900238549720784
0.0101377696348458
0.0118330802139439
0.0141278212430407
0.0169516517207542
0.0206098414796649
0.0251502614689378
0.0305260611703956
0.0360090970793382
0.0426997139695304
0.0501017710470808
0.0581977278129021
0.0668498412757078
0.0759459154506424
0.0857259480647495
0.0963265124679325
0.107836492221211
0.120388089012071
0.134197787680288
0.149640628737054
0.167682988068697
0.189871421535195
0.217138502737216
0.250601515869256
0.291192920123496
0.34168118308717
0.402504225959662
0.45876818265499
0.483759119119365
0.464728253585361
0.397838560183785
0.208561482996864
0.135624144540864
0.0963649353042054
0.0978383922871942
0.0597940510950622
0.0348682076815155
0.0112388813040374
0.00754317375852857
0.00471627848423436
0.00140795765349996
0.000404477106531751
0.000222519618512078
0.000179067601554635
0.000170719478478966
0.000176822376413091
0.000192641515456311
0.000218656031228475
0.000254657972945085
0.000301435133468856
0.000359875988816891
0.000430523801764548
0.000512725986591379
0.000603307827233821
0.000693753573377587
0.000773627131657749
0.000835602196930269
0.000867463256044753
0.000861471346956399
0.000815033229107422
0.00073353287188815
0.000630104832637448
0.000525508722487857
0.000422174815395141
0.000328790859931082
0.000252955793060257
0.000201528011857842
0.000197267112436573
0.000255373603742868
0.000339894072347473
0.000434174680166364
0.000522492621888613
0.000626668098966339
0.000728656988254907
0.000827746296319629
0.000930826785442131
0.00105029123126012
0.00119960215511768
0.00138883830025817
0.00162210305822002
0.00189774720004874
0.00221034252346614
0.00255309325359805
0.00291957440793959
0.00330461790155778
0.00370451563851895
0.0041168762564115
0.00454034012368798
0.00497428712455183
0.00541857331921332
0.00587331115046652
0.0063386794557727
0.00681475515225551
0.00730135223285379
0.00779786286225739
0.00830309451645436
0.00881510407179213
0.00933103174468755
0.00984694240316115
0.0103576856527721
0.0108567885834508
0.0113363992207531
0.011787298789435
0.0121990027495922
0.0125599678570365
0.0128579211946374
0.0130803195915806
0.0132149312573621
0.0132504557460664
0.0131767285276655
0.0129827315882503
0.01263306782663
0.0122501131031197
0.0118237141190222
0.0112633573157609
0.0105507261816705
0.00965501530032395
0.00849921334088844
0.00750059609885665
0.00825704663003076
0.00925699443717529
0.0105408986946706
0.0123552533307515
0.0148549118998866
0.0177915738321863
0.0214107280616213
0.0257235190316146
0.0302521585171075
0.0353467917877531
0.0413368316048476
0.0478965343425334
0.0550503322256308
0.0627161308716373
0.0709022411994061
0.0799680742196889
0.0900778719089756
0.101404523979538
0.114194185177816
0.128805707500768
0.145750484872216
0.166054832495191
0.190944049629605
0.220829564136695
0.255736054722825
0.295618216602419
0.341348496772465
0.387672603169833
0.420311705532826
0.421288137252862
0.398027324838129
0.376507132756318
0.224937394963159
0.128821030116241
0.089237827597865
0.0887010438081987
0.0542691439639325
0.0370979261256421
0.0166724503066116
0.0088675497544408
0.00574206919911726
0.00185078601252889
0.000537212565463351
0.000282627511296651
0.000223159305305778
0.000210894585516658
0.000217073762363027
0.000235058904392518
0.000265036417968114
0.000306429113314501
0.000359639540590757
0.000425009262696415
0.000502217250066801
0.00058923782135104
0.00068078796025445
0.000766587287704906
0.000828281461838268
0.000864883397285958
0.000865960618611457
0.00082864719798371
0.000756065073151838
0.000658394978299904
0.000548772876841233
0.000454038561783767
0.000374197587117572
0.000310134968988832
0.000262969995509663
0.000235018714446015
0.000254251449015251
0.000337758186495176
0.000427788617285362
0.0004851346114617
0.000558571291067166
0.000622868614201071
0.000684636896286663
0.000759090538164562
0.000866327149252172
0.00102413447902622
0.00124190443786036
0.0015185679831594
0.00184476642257137
0.00220764990203717
0.00259504649052588
0.00299766502280653
0.00340942226726514
0.00382686314668555
0.00424832798966337
0.00467324424117418
0.00510160277061156
0.0055336107389204
0.0059694572258566
0.00640915288492487
0.00685240620627799
0.0072985203330558
0.00774629810794238
0.00819395328602711
0.00863902879119761
0.00907832678123748
0.00950785837541449
0.00992282153097737
0.0103176177836942
0.0106859171301133
0.0110207803382525
0.0113148454144054
0.0115605826832876
0.011750620310538
0.0118781396918618
0.0119373387171735
0.011923956150335
0.0118358137232554
0.0116728843162285
0.0114328426609625
0.0110584814845961
0.0107938889421083
0.0104298018167681
0.00997470875883999
0.00940605763144613
0.00871955156868542
0.00787201215611571
0.00715518168261232
0.00816062790408991
0.00925892461422577
0.0106079260185964
0.0123742874374029
0.0145538235478111
0.0175753798274936
0.0208646384419763
0.0242903573227672
0.0279552572068225
0.0325574350521009
0.0375736041953895
0.0430879170580685
0.0491334718038033
0.0556664370248524
0.0627538513183895
0.0707823754356784
0.079892349476065
0.0902788455711951
0.102222348696615
0.11613344006189
0.132578201714835
0.152587702782146
0.177142221810496
0.206261510292539
0.238853612775673
0.275001973054894
0.313718735709836
0.347091737705939
0.362637180153248
0.344657707672524
0.313536670652094
0.312499513399651
0.232842883768095
0.135492835355053
0.0935582394032757
0.0877232925571149
0.0510373847424483
0.0347736438632896
0.0240708238173647
0.0102265128471582
0.00669352154936318
0.00234235931361047
0.000692125905034029
0.000348698960583355
0.000269412019347099
0.000252014456038313
0.000257460129270611
0.000276706367957699
0.000309332848858399
0.000354137382914619
0.000410765590372479
0.000478561730426997
0.000555836952911816
0.000638723735247709
0.000719639068455289
0.000786960914165323
0.000820250056260361
0.000823699077148882
0.000792527768419078
0.000728806236019875
0.000639459781604904
0.000536496276668215
0.000433005031716233
0.000342461979252903
0.00029671999348309
0.000266213729038364
0.000254919724959711
0.00026192284341202
0.000315078327266306
0.000404822201194533
0.000439981905076666
0.000484307626451078
0.0005226305125356
0.00055985575303678
0.000617464057884976
0.000719972177283814
0.000886696376746132
0.00112471920777311
0.00142685227328663
0.00177632331284477
0.00215430096074715
0.00254576042018985
0.002941321003813
0.00333642921482946
0.00372962186821782
0.00412105082035827
0.00451149918277147
0.00490184485356834
0.0052927854775859
0.00568471318437036
0.00607765100145599
0.00647121592027633
0.0068645860587817
0.00725646754782134
0.00764506038675874
0.00802802693073666
0.00840246948358065
0.00876492296714656
0.00911137133955021
0.00943729422086161
0.00973775128180992
0.0100075091027488
0.0102412135547686
0.0104336082918016
0.0105797963566185
0.0106755401111484
0.0107175912479995
0.0107040436787098
0.0106347129532275
0.0105116407757908
0.0103401661249581
0.0101296505628439
0.00982839785865946
0.00959108564623184
0.00928518527039726
0.00890800815951521
0.00844452798834985
0.00791632770417458
0.00728335508435317
0.00670610727793347
0.00783319432715864
0.00893587056672262
0.0102278641107376
0.011827806006262
0.0137322497083803
0.0159379407658379
0.0186105446804744
0.0215883573842217
0.025000156010277
0.0287536957791692
0.0328868600787403
0.0374673169892484
0.0425365190120734
0.0480708158638807
0.0541567718590227
0.061163608586836
0.069199245716851
0.078450795852469
0.0891873001306007
0.101804365222173
0.116841335659819
0.135254115151067
0.157818204974239
0.184052317509362
0.212607888093797
0.243704078236359
0.275148351045345
0.297916829557249
0.30051922299846
0.268750086734832
0.234133699294216
0.22778939981523
0.218368129892297
0.143062084006052
0.0983436572322144
0.0891830807640789
0.0527608666283945
0.0317576923673351
0.0295836854265535
0.0119344897359229
0.00754234554715955
0.00287177761643592
0.000869903578370976
0.000420426895029852
0.00031681444956269
0.000292755548627776
0.000296346212037133
0.000315528838733473
0.000348872018567948
0.000394278111784498
0.00045031309351825
0.000515042359641294
0.000585262759389676
0.000655405642189856
0.000716217437672532
0.000754137516609972
0.000760503048713407
0.000734520268496167
0.000680123276176005
0.000601738720368049
0.00050721193215006
0.000408248182189344
0.000317063113880348
0.000242726115438637
0.0002010093831664
0.000217001042667539
0.000239675608697188
0.000282859550456229
0.000371875677629272
0.000396815685193418
0.000420109331931179
0.000436636167847981
0.000458099692757583
0.000502582894846921
0.000597965979169348
0.000764579303602701
0.00100762247634952
0.00131530642859001
0.00166486617604804
0.00203319823794958
0.00240409000384399
0.00276961203913238
0.00312773198070908
0.00347946140041425
0.0038268219221965
0.00417181071541717
0.0045159758596902
0.00486031762310308
0.00520530542290273
0.0055509288731497
0.00589673955843849
0.00624187676212626
0.00658507637995868
0.00692466873620601
0.00725857218893633
0.00758428835266757
0.00789890717035887
0.00819912713359541
0.00848129827657887
0.00874149250428443
0.00897560630002304
0.00917949800386873
0.00934915933190427
0.0094809186199191
0.00957166869036577
0.00961911009591462
0.00962199498468
0.00958035420112909
0.00949569200550067
0.00937125102991947
0.00921369635365459
0.00904937891549863
0.00879098281906465
0.00858005280168505
0.00831411383780798
0.00798902254791145
0.00760157152084196
0.00719138764764584
0.00670019546359149
0.00617431776768851
0.00734061953067794
0.00837956783748203
0.00953660734239578
0.0109095653179467
0.0125066531648376
0.0143408840298379
0.0165120664390364
0.0189956200313565
0.0217519212727337
0.0248076465241884
0.0282097058353198
0.0320176991255054
0.0362772326286564
0.0409758747638694
0.0462042333722389
0.0523001149792191
0.0593438364938362
0.0675046334025143
0.0770242107373951
0.0882569944721998
0.101681990404972
0.118145111528071
0.138242706060862
0.160786088504273
0.185038381791493
0.210886599023997
0.235417053015695
0.249208626189983
0.241489155798732
0.200678500231704
0.166975454261741
0.165217676840256
0.187771709001565
0.141188143213872
0.0982888453035615
0.087623477879254
0.0594634940804729
0.0285910921115435
0.0338568870224413
0.0144934549511196
0.00832601622344728
0.00343114045066316
0.00107114202183365
0.000497474653678112
0.000364178263210772
0.00033152399424617
0.000331792135490205
0.000349185189739004
0.000380814900421144
0.000423528153226353
0.000474743976460303
0.000531389541353084
0.000589163776227814
0.000641562479383193
0.000679000141021778
0.000690479623930285
0.000673543925709921
0.000628132457134527
0.000561676581675958
0.000478561580011756
0.000386163403633065
0.000295569312732628
0.000218303061321902
0.000163418481656794
0.000139810183679529
0.000154829733111783
0.000220939005530899
0.00030480273409746
0.000378949600972523
0.000370646280396183
0.000370464276850969
0.000376329211451545
0.000408916892854371
0.000492398790278183
0.000649203460821613
0.000884521341196198
0.00118392822713769
0.00152048569335804
0.00186748731166287
0.00220793548855394
0.00253548474551828
0.00285070771583215
0.00315698720023557
0.003458051335262
0.0037569088915203
0.00405561269389822
0.00435534089098773
0.00465656766574819
0.00495921576417397
0.00526276829533291
0.00556633903595146
0.00586871123611645
0.00616835570212191
0.00646343662558384
0.00675181435137275
0.00703105033134962
0.00729842198665429
0.00755095158119594
0.00778545523561687
0.00799861537934971
0.00818707999321912
0.0083475895806573
0.00847712968170872
0.00857310460770081
0.00863352272039806
0.00865718067601997
0.00864382689801971
0.00859427647552469
0.0085104220756171
0.00839498318097659
0.00824996773252164
0.00804367756932502
0.00789584258115732
0.00770237170929075
0.00746136313952329
0.00717145649219991
0.00684104458349172
0.00651912402719616
0.00611878127756715
0.0055928837395126
0.0067479653726158
0.00768727053655959
0.00867612074674721
0.00981083042548082
0.011111186628484
0.012598193730598
0.0143668084084617
0.0163759925483732
0.0185977053151786
0.0210848853171963
0.0238864087155816
0.0270560328043379
0.0306406913238774
0.0346356915390651
0.0391307562186529
0.0444302617249733
0.0505935631125449
0.0577706990669516
0.0661735908047287
0.0761098767371689
0.0879917957257873
0.102550968626098
0.120225198954899
0.138900023683126
0.159215583041448
0.18006937184322
0.19819319671737
0.204106888453711
0.18783676439471
0.141527046041637
0.111651365762324
0.11420852622726
0.151590193427783
0.129132289489193
0.0930455571447308
0.0812252067081474
0.0699569784003888
0.0265395690186219
0.0356596535928784
0.018441319504251
0.00916020922039198
0.00402623222307213
0.00129779913941665
0.000579772245687533
0.000410308245863765
0.000366609686963082
0.000361771040098923
0.000375423945805285
0.000402819513757707
0.000439840359858729
0.00048306875818351
0.000528807154673439
0.000572263867383682
0.000606674923072597
0.000623081224468976
0.000613914789279888
0.000581782048072376
0.000525781891911165
0.000454596113256756
0.000371752959560135
0.000284171309752372
0.000202789879100671
0.000138905603245012
0.000101404657157047
9.8179964568975e-05
0.000132577189040544
0.000207984381561804
0.000295620642993463
0.000352110477841548
0.000325213268473922
0.00031507472657789
0.000332542560736457
0.000400939419252011
0.000540463993094988
0.000758872091580892
0.00104192705402178
0.00135985458606513
0.00168261702259167
0.00199157410753304
0.00228130205863047
0.00255451712238376
0.00281679913359146
0.00307348877207341
0.00332858417172503
0.0035846382488648
0.0038430215392812
0.00410423148051977
0.00436814307182022
0.00463418455465323
0.00490144763167288
0.00516875255757378
0.00543468167622314
0.00569759555794323
0.00595563899492119
0.00620674571556352
0.00644864564919242
0.00667888122494031
0.00689483575545739
0.00709377868580934
0.00727293027118856
0.00742954800105852
0.0075610351895597
0.0076650686511292
0.0077397401550688
0.00778370056849165
0.00779629208233501
0.00777764645425148
0.00772871796760546
0.00765118814512425
0.00754707266935517
0.00741734586160001
0.00724014069255573
0.00710307602180172
0.00691972433519176
0.00669456627095629
0.00643063767369306
0.00614550985879205
0.00589044129942562
0.00554678882607049
0.00499195453285249
0.00610508990419384
0.00693054681710673
0.00774523125823922
0.00865440184578592
0.00968606439072573
0.0108663136626294
0.0122846147569911
0.0138941819005745
0.0156758353401418
0.0176927401287077
0.0199927094029941
0.0226242631153149
0.0256342617437103
0.0290244663368629
0.0328823698993018
0.0374806971388099
0.0428633948492195
0.0491628979697022
0.056563333659295
0.0653272719870811
0.0758033459073769
0.0886156093529567
0.104056117952181
0.118896775313539
0.135781089217101
0.151987546755064
0.164175914135267
0.162978528010759
0.139449002081434
0.0903511482283231
0.0661464168165685
0.0730937043724397
0.11657177383796
0.110730227459839
0.084052456579
0.070884810127792
0.0823463447677213
0.02613421244452
0.0343423225508291
0.024215079973563
0.0101896147569135
0.00468615926336341
0.00155633835761218
0.000668192499911092
0.000454367350901792
0.000396534839187908
0.000384615629716094
0.000392727974290923
0.000413946788963585
0.000443525346410944
0.000477687473806972
0.000512487606588051
0.000542796557551758
0.000561776396481463
0.000561637122340154
0.000538267976691663
0.00049724421730235
0.000435835705355047
0.000363328923241812
0.000282502677018245
0.000200193942255472
0.00012757122759185
7.59102535671463e-05
5.36791529933433e-05
6.7511782835548e-05
0.000117258356159841
0.000199303567421446
0.000272018904657765
0.000311575553307686
0.000275878547264977
0.000274348849551986
0.000323713755193295
0.000441661468254794