/*--------------------------------*- C++ -*----------------------------------*\
  =========                 |
  \\      /  F ield         | OpenFOAM: The Open Source CFD Toolbox
   \\    /   O peration     | Website:  https://openfoam.org
    \\  /    A nd           | Version:  7
     \\/     M anipulation  |
\*---------------------------------------------------------------------------*/
FoamFile
{
    version     2.0;
    format      ascii;
    class       volScalarField;
    location    "20000";
    object      nut;
}
// * * * * * * * * * * * * * * * * * * * * * * * * * * * * * * * * * * * * * //

dimensions      [0 2 -1 0 0 0 0];

internalField   nonuniform List<scalar> 
15600
(
1.10610590657365e-10
8.28036225728521e-11
3.20653030684107e-11
6.47376702463057e-12
9.25434678631468e-13
8.20446814466342e-13
3.98066005726538e-13
9.30419248990771e-14
3.61368149515863e-14
3.36915639028038e-14
3.89652767331015e-14
5.25366020037328e-14
7.70170113494314e-14
1.16934499421997e-13
1.8004422543884e-13
2.7754458589114e-13
4.25971721819962e-13
6.47782791178076e-13
9.71892773097936e-13
1.43214925259017e-12
2.0664376742727e-12
2.95099603850034e-12
4.20394909946646e-12
5.89594989921176e-12
8.10122624288225e-12
1.08456348737307e-11
1.40537740734587e-11
1.74735795720552e-11
2.04505264524403e-11
2.19183562608201e-11
2.10946141240807e-11
1.82370995457037e-11
1.45724058104086e-11
1.1679251295763e-11
9.80566002799637e-12
1.04964004640636e-11
1.316307070802e-11
1.7321441895434e-11
2.28820654219862e-11
3.06015998513046e-11
4.12075628202276e-11
5.54193782501044e-11
7.38599960073173e-11
9.70839832065866e-11
1.25462601477866e-10
1.59066999078938e-10
1.97691948176705e-10
2.40922224976933e-10
2.88219407758524e-10
3.39010854387531e-10
3.92759196112736e-10
4.4900720564543e-10
5.07399057144712e-10
5.67685485302799e-10
6.29719551213193e-10
6.93448976222842e-10
7.58908285128719e-10
8.26212987161758e-10
8.95556212664013e-10
9.67208328260622e-10
1.04151904594475e-09
1.11892217797772e-09
1.19994262202255e-09
1.28520576416307e-09
1.3754493719935e-09
1.47153846262943e-09
1.57448388428152e-09
1.68546575589529e-09
1.80586365097141e-09
1.93729610044073e-09
2.08167347034632e-09
2.24126989467965e-09
2.41882331678495e-09
2.61767744879645e-09
2.84198785534275e-09
3.09703182433203e-09
3.38970500715395e-09
3.72936109144435e-09
4.12934922717944e-09
4.61052024112681e-09
5.21109877868978e-09
6.01609137666792e-09
7.09651323291231e-09
8.40142688026436e-09
9.96576929934669e-09
9.95801750772904e-09
4.66271516254533e-09
2.38923707982934e-09
1.43918126670168e-09
9.92327845848062e-10
7.93293476134723e-10
6.82623017837907e-10
6.12312714979846e-10
5.72363226395041e-10
5.53149481252831e-10
5.42494002786596e-10
5.35228645873586e-10
5.29033247988666e-10
5.21655253863145e-10
5.11631525470174e-10
4.92820488830966e-10
4.5620578116662e-10
4.0629092245283e-10
3.49456751591601e-10
2.91086866308316e-10
2.35348930431028e-10
1.85253891425588e-10
1.42737524456072e-10
1.10689900694453e-10
8.97397513919786e-11
7.62812958507782e-11
6.9539473054373e-11
6.89119936621307e-11
8.11117102831822e-11
1.18963115632248e-10
2.35935075648074e-10
3.72610439104435e-10
3.16723264276682e-10
1.90731135007992e-10
1.27104685944898e-10
2.11798792482608e-08
1.58686628220423e-08
6.20321528784888e-09
1.29577494459831e-09
1.89761190600613e-10
1.60754282889828e-10
8.01115504103098e-11
1.97833627355486e-11
7.3993965227081e-12
6.58829442456243e-12
7.532994418436e-12
1.00823466168981e-11
1.47115921541723e-11
2.22678454314712e-11
3.42157339293336e-11
5.26699425742012e-11
8.07576012781913e-11
1.2273882666889e-10
1.84121702884046e-10
2.71390872136582e-10
3.91709805229897e-10
5.59233246679519e-10
7.96753063908988e-10
1.11826475549138e-09
1.53839779436151e-09
2.06317583120166e-09
2.68002531612889e-09
3.34349517760808e-09
3.9313123959311e-09
4.23726896011494e-09
4.09960542736449e-09
3.55365879436645e-09
2.83105102822899e-09
2.25438873922894e-09
1.88448418841984e-09
2.0198126920831e-09
2.53629182518294e-09
3.33799330888695e-09
4.40797203337332e-09
5.8924554796979e-09
7.92920793168863e-09
1.06543352449451e-08
1.41849148668221e-08
1.86243380338998e-08
2.40428234701661e-08
3.04530488644478e-08
3.78153897681069e-08
4.60507971510506e-08
5.50567909435313e-08
6.47241851147344e-08
7.49501953956383e-08
8.56469832123328e-08
9.67457492336199e-08
1.08197772419256e-07
1.19973633746268e-07
1.32061764820173e-07
1.44466925608954e-07
1.57209061950939e-07
1.7032260640329e-07
1.8385634839322e-07
1.97873765131848e-07
2.12453857758201e-07
2.27692408604194e-07
2.43703696099368e-07
2.60622689949803e-07
2.78607816727524e-07
2.97844451423061e-07
3.18549360411538e-07
3.40976476772211e-07
3.65424527528634e-07
3.92247336487739e-07
4.21867952448515e-07
4.54798460278276e-07
4.91668331313007e-07
5.33265869932327e-07
5.80600777658942e-07
6.35005215633316e-07
6.98305236556894e-07
7.73126863883962e-07
8.63581192831176e-07
9.77203310593593e-07
1.13119639482478e-06
1.3313798029105e-06
1.56792731581074e-06
1.82911927498631e-06
1.79054631170439e-06
8.64126268451247e-07
4.46196271877246e-07
2.70659658132186e-07
1.88139738118363e-07
1.5122543701749e-07
1.30637894454136e-07
1.17573102200128e-07
1.10253563025424e-07
1.06808443246803e-07
1.04912771289265e-07
1.03621032540186e-07
1.02494520462809e-07
1.01074704187383e-07
9.90015446623276e-08
9.51416077580851e-08
8.78720085911674e-08
7.81319839745522e-08
6.71334495861081e-08
5.5887508295614e-08
4.51776239103532e-08
3.55707945614431e-08
2.74432485336308e-08
2.13421415691842e-08
1.73578591643058e-08
1.48021287646184e-08
1.35355413425756e-08
1.34721588199494e-08
1.59278903976205e-08
2.34158532707079e-08
4.57650074475464e-08
7.11701290401528e-08
5.98712958860501e-08
3.60797473089511e-08
2.42848049135082e-08
4.66145779614593e-07
3.48796898313922e-07
1.36698261614415e-07
2.97216156595839e-08
4.4685397713487e-09
3.62927691506899e-09
1.85924013807004e-09
4.83898256421867e-10
1.75935537688527e-10
1.4961081264853e-10
1.69044432887691e-10
2.24718258770011e-10
3.26487829515331e-10
4.92609360911559e-10
7.55157587515678e-10
1.16047981482369e-09
1.77711159311536e-09
2.69868797541661e-09
4.04680500721544e-09
5.96569455250922e-09
8.61461360289062e-09
1.22984801038895e-08
1.75263252406408e-08
2.46193931703672e-08
3.39115854728276e-08
4.5559605403317e-08
5.93230425577855e-08
7.42659144331977e-08
8.7723577418362e-08
9.50898363678401e-08
9.2535966841559e-08
8.04994799575605e-08
6.39629009743356e-08
5.05911811754257e-08
4.20296381443001e-08
4.5059212307194e-08
5.66674895672143e-08
7.45759515665093e-08
9.83584202533472e-08
1.31268938816657e-07
1.76242643637515e-07
2.36133780257555e-07
3.13113476993982e-07
4.09501023215797e-07
5.26635145352423e-07
6.64634058582785e-07
8.22548240113664e-07
9.98599443329196e-07
1.19051221972896e-06
1.39586435845757e-06
1.61236433269584e-06
1.83803418622707e-06
2.07129768910029e-06
2.31100232901661e-06
2.55640115186746e-06
2.80711926848552e-06
3.06311818239701e-06
3.32466828719326e-06
3.59233077727717e-06
3.86695229917027e-06
4.14966964819921e-06
4.44192609077279e-06
4.74549723447829e-06
5.06252777947525e-06
5.39557972691735e-06
5.74769450525173e-06
6.1224728909326e-06
6.52417807500231e-06
6.95787109698788e-06
7.42959065376108e-06
7.94659659719899e-06
8.51770355702069e-06
9.15374747330741e-06
9.86824958835609e-06
1.06783810574572e-05
1.16064042441336e-05
1.26819477917464e-05
1.39457456512175e-05
1.54560506966284e-05
1.73014772427348e-05
1.96312754473204e-05
2.26683507717912e-05
2.62928914229301e-05
3.03712694732394e-05
3.42650195330127e-05
3.22058640272812e-05
1.65726799072172e-05
9.0998091278969e-06
5.70360905799105e-06
4.04899734321743e-06
3.27127968089909e-06
2.83796267004441e-06
2.56340796483892e-06
2.41270471932741e-06
2.34526283564982e-06
2.31032487249741e-06
2.28792996752097e-06
2.26788807849314e-06
2.23413539198155e-06
2.18560646816226e-06
2.09661869347251e-06
1.93451275381529e-06
1.72038264840083e-06
1.47963454826729e-06
1.23356645441551e-06
9.98962820554801e-07
7.88189310989447e-07
6.09798444762591e-07
4.75903019928543e-07
3.88267281540482e-07
3.32044645375514e-07
3.04274666733325e-07
3.0368211526544e-07
3.59255749824279e-07
5.25558741183477e-07
1.00105232891971e-06
1.52782775359883e-06
1.27348773647116e-06
7.64832802633704e-07
5.28209026430928e-07
3.68297415824191e-06
2.76246742128073e-06
1.08577160111645e-06
2.50269218697467e-07
3.89711296640725e-08
3.03996906496184e-08
1.6028464114737e-08
4.39186315737732e-09
1.56288975684418e-09
1.26737989679413e-09
1.4126772213444e-09
1.86419779146343e-09
2.69559142441626e-09
4.05210808521094e-09
6.19417576593045e-09
9.4983118152153e-09
1.45210774450911e-08
2.20250097407875e-08
3.30053199468299e-08
4.8653492424731e-08
7.02915033405662e-08
1.00339291693664e-07
1.42980824090699e-07
2.00931034081196e-07
2.7696423573292e-07
3.72483261558842e-07
4.85620382437432e-07
6.09371625477692e-07
7.22305477047518e-07
7.86632574285576e-07
7.69388153066503e-07
6.71451926150656e-07
5.32256296393611e-07
4.17845575527567e-07
3.45249335255415e-07
3.71481572926621e-07
4.68541112934933e-07
6.16074986719994e-07
8.09886799231963e-07
1.07597690930164e-06
1.43558564043367e-06
1.90421761195588e-06
2.497834924139e-06
3.23143002306029e-06
4.11077616449907e-06
5.13388729713459e-06
6.29138472071559e-06
7.56817382094779e-06
8.9457998300432e-06
1.04049668828339e-05
1.19275459309958e-05
1.34978874525171e-05
1.51034244728464e-05
1.67347809544838e-05
1.83855839341057e-05
2.00521704118008e-05
2.17332883429385e-05
2.34298686920215e-05
2.51448754300949e-05
2.6883257092522e-05
2.86519748986829e-05
3.04601211117168e-05
3.23191041867701e-05
3.42429142770586e-05
3.62484633400165e-05
3.83560177283089e-05
4.0589741028608e-05
4.29783743005745e-05
4.55561060622439e-05
4.83636871632002e-05
5.14498930166326e-05
5.48734536568828e-05
5.87056546950339e-05
6.30338830006293e-05
6.79665515414793e-05
7.36400474152689e-05
8.02289289797228e-05
8.79612726694108e-05
9.71416591813741e-05
0.000108186396262133
0.000121672630020018
0.000137354340179957
0.000155421429586624
0.000174194595626515
0.000187795289435992
0.000167385007317656
9.42814131799859e-05
5.82342416430286e-05
3.92634922385594e-05
2.92708765485165e-05
2.40881462259432e-05
2.11688272075992e-05
1.93328354874872e-05
1.83804457810056e-05
1.80234068896928e-05
1.78896004462851e-05
1.78375403210804e-05
1.77301258222715e-05
1.75025241467775e-05
1.71543380934814e-05
1.64825511958535e-05
1.52570875267207e-05
1.36359691584094e-05
1.1798195647458e-05
9.89945798486024e-06
8.06879870657074e-06
6.4067292584651e-06
4.98864516831657e-06
3.91771164128229e-06
3.21168820909705e-06
2.75690828259923e-06
2.53128979975792e-06
2.5299293475023e-06
2.98248088554637e-06
4.30386775944635e-06
7.88935779394277e-06
1.1711161818835e-05
9.62374967821914e-06
5.66125640413969e-06
4.04899639493373e-06
1.60403143486601e-05
1.22867478358711e-05
4.88832923865536e-06
1.22642557027976e-06
2.00987160745409e-07
1.50635792411526e-07
8.17621925774917e-08
2.35521951704402e-08
8.25383025486413e-09
6.37459277203806e-09
6.99472775686605e-09
9.15666037449333e-09
1.31720332066853e-08
1.97197896394615e-08
3.00473736125152e-08
4.5958779953905e-08
7.01190561366709e-08
1.06189335391304e-07
1.58974751983395e-07
2.34290434061286e-07
3.38642959421348e-07
4.83312961248619e-07
6.88399208301651e-07
9.67374015761863e-07
1.33357169462421e-06
1.79389640177904e-06
2.33895991362818e-06
2.93715022088595e-06
3.48902620025545e-06
3.8132169641279e-06
3.74559823616331e-06
3.2782640722222e-06
2.59601919827981e-06
2.02131460377733e-06
1.66401875821651e-06
1.8055973560144e-06
2.28493648649262e-06
2.99181427883029e-06
3.89950874853813e-06
5.1201919474556e-06
6.70475924491045e-06
8.69892622303203e-06
1.11614177905638e-05
1.41254609394832e-05
1.75989532225472e-05
2.15633636457562e-05
2.59732763271836e-05
3.07621266044906e-05
3.5851597822723e-05
4.11620339034584e-05
4.66205713174352e-05
5.21661385095868e-05
5.77513590776398e-05
6.33424456064051e-05
6.8917979740163e-05
7.44674021671593e-05
7.99895856906354e-05
8.54917683089557e-05
9.09888300631989e-05
9.65029774505431e-05
0.000102063693948449
0.000107708002482332
0.000113480896473115
0.000119435992788189
0.0001256363218754
0.000132155303381993
0.000139077903179225
0.000146502005416401
0.000154540097668301
0.000163321324135464
0.000172994102091911
0.000183729448098369
0.000195725341397053
0.000209212432189878
0.000224461615955893
0.000241793875605319
0.000261593127387539
0.000284322079368478
0.000310537333319778
0.000340910460962958
0.000375223839814806
0.000413305869354169
0.000453590172345561
0.000488229471591691
0.000496536133329174
0.000422454498300928
0.000262729306565913
0.000181724269192609
0.000133599988434157
0.000106536218089492
9.11554269671857e-05
8.22836129294291e-05
7.68533860168874e-05
7.44334439793854e-05
7.403649996696e-05
7.43237762450295e-05
7.47134111043149e-05
7.46209027629877e-05
7.40985126200442e-05
7.30374797963908e-05
7.06083261002073e-05
6.59610984796585e-05
5.96788518524425e-05
5.23738075716981e-05
4.46178592823402e-05
3.69301303757685e-05
2.97617584406984e-05
2.35027700691007e-05
1.86857600572407e-05
1.54552022758257e-05
1.33495467876235e-05
1.22896611824907e-05
1.22845525287142e-05
1.43618516047825e-05
2.02388523586271e-05
3.52798803237422e-05
5.0545020180667e-05
4.12469168624296e-05
2.32263953671008e-05
1.69585273809977e-05
4.63684706313054e-05
3.70595140710445e-05
1.5126148453058e-05
4.25461820382418e-06
7.5384819634783e-07
5.44455531385727e-07
3.04238217484208e-07
9.20104728587262e-08
3.19352180076908e-08
2.34725761953472e-08
2.52938390430958e-08
3.28195095041074e-08
4.69444689239704e-08
6.99609522516008e-08
1.06207985391023e-07
1.61959797807465e-07
2.46475913375334e-07
3.72505700685824e-07
5.56881108587578e-07
8.20207314090099e-07
1.1857791005098e-06
1.6915886718568e-06
2.40657572140297e-06
3.37859737322361e-06
4.652292738681e-06
6.24925915438415e-06
8.13301125159877e-06
1.01873975850527e-05
1.20961330856191e-05
1.32395164702725e-05
1.30479644728403e-05
1.14578319928724e-05
9.08074817900238e-06
7.02378119819536e-06
5.77505166301359e-06
6.34089394995317e-06
8.02119415903338e-06
1.03674509170108e-05
1.3252639515305e-05
1.69100808287193e-05
2.13793829037958e-05
2.68122417728576e-05
3.3313766370906e-05
4.09668880396339e-05
4.98006223684433e-05
5.97687738614694e-05
7.0743918994443e-05
8.253762943316e-05
9.49326629468279e-05
0.000107715489552107
0.000120698788065028
0.000133733216227275
0.000146709950545587
0.000159558109665246
0.000172239722325281
0.000184744517639252
0.000197085315912824
0.000209294604697273
0.000221422090654783
0.000233533293266724
0.000245708727351494
0.000258043745165869
0.000270648615930551
0.000283648953996358
0.000297186228917523
0.000311418448601416
0.000326520944597412
0.000342687295070049
0.00036013053497165
0.000379084683609175
0.000399806883849905
0.000422580230244071
0.000447717587867081
0.000475566288538347
0.000506513467632598
0.000540990392285083
0.000579472593062411
0.000622466186534681
0.000670441753873371
0.000723556388791405
0.000780237302353595
0.00083898337546524
0.000893037706269537
0.000924319788102117
0.000896495006618315
0.000747509028327645
0.000505591080289478
0.000378703124699682
0.000298179477684844
0.000252049883673427
0.000224775884848298
0.000209162369566122
0.000200345067117143
0.000197805061725833
0.000199339333444455
0.000201999614431625
0.000203949370669732
0.000204871568327628
0.000204684826493123
0.000202973075351795
0.0001976690392128
0.000186845673225068
0.000171817375495697
0.000153802464967184
0.000134018791400386
0.000113673148415726
9.39508540490913e-05
7.60689105898498e-05
6.18279608270683e-05
5.19771117302686e-05
4.54035992456227e-05
4.2009314968313e-05
4.19660016822245e-05
4.83913437031252e-05
6.58909342965268e-05
0.000107983426517022
0.000148138235819976
0.000122720981911637
6.60973142270248e-05
4.77845696047066e-05
0.000100650904527287
8.47461203703661e-05
3.56368716109279e-05
1.14479261132147e-05
2.28551934553711e-06
1.59828094822464e-06
9.19462074773729e-07
2.91589915807079e-07
1.00763157793624e-07
7.04750696125546e-08
7.43811898023433e-08
9.55610048712698e-08
1.35830760799399e-07
2.0138867294715e-07
3.04413341205372e-07
4.62504371296804e-07
7.0158804397428e-07
1.05741031120957e-06
1.57741302333525e-06
2.32027100378229e-06
3.35288395002071e-06
4.77733076359994e-06
6.77819136797124e-06
9.4872783792815e-06
1.301361137598e-05
1.7394486356293e-05
2.24995314857713e-05
2.79718745432472e-05
3.3014263973289e-05
3.60467320030981e-05
3.55874806299882e-05
3.14014720263313e-05
2.500661219406e-05
1.93148993241324e-05
1.59171376827945e-05
1.76607068941671e-05
2.20939737136379e-05
2.77777900481002e-05
3.42051253893189e-05
4.17101669634657e-05
5.0592358764088e-05
6.11845433070429e-05
7.38102332555531e-05
8.87370463733753e-05
0.000106054546652145
0.000125627391799439
0.000147113915128261
0.000170047042761364
0.000193925442301365
0.000218288699535382
0.000242759198662242
0.000267057290971764
0.000290996986345533
0.000314473316434895
0.000337446902925646
0.000359930201219827
0.000381976222759657
0.000403670437764031
0.000425124993063206
0.000446475114196344
0.000467876667130697
0.000489504888439385
0.00051155348196131
0.000534234227649636
0.000557776643882013
0.000582427841972134
0.00060845245695131
0.000636132699107921
0.000665768713431093
0.000697679186791777
0.000732202426501201
0.000769697593064814
0.000810545771789255
0.000855149363034505
0.000903927173107321
0.000957299080482283
0.00101565003835263
0.00107925559799057
0.00114813983025384
0.00122061643264955
0.00129403721105521
0.00136299611410122
0.0014142161445353
0.001420476640343
0.00133811491937375
0.00111520100905533
0.000805246832350902
0.000637778206161254
0.000528285525534451
0.000466108579024923
0.000429425551196589
0.000409333971544375
0.000399670946769287
0.00039981863097764
0.000405891358288494
0.0004125343009816
0.000417746460846802
0.000421095183769637
0.000422282555742836
0.000420353706737347
0.000411611820554415
0.00039294771758339
0.00036656148699333
0.000334213857574716
0.000297754169290679
0.000259112466780491
0.00022035310092686
0.000183921533977462
0.00015384341662412
0.00013228574750251
0.000117466277567392
0.000109595267382366
0.000109473274615259
0.000124112049779845
0.000162399845804297
0.000249158596205413
0.000326328093238262
0.00027931125834417
0.000148272261483592
0.000104021774106611
0.000181341798036257
0.000160547274493428
6.88868122443187e-05
2.51198947757499e-05
5.93274818004623e-06
4.05088494047283e-06
2.39963199654366e-06
7.97091875355877e-07
2.75592515093238e-07
1.83523513460042e-07
1.89158917131621e-07
2.40321199609749e-07
3.39182203120806e-07
4.99928315485654e-07
7.51811895237427e-07
1.13705244968164e-06
1.71764318473971e-06
2.57900735472931e-06
3.83484043813199e-06
5.62650173932268e-06
8.11511937092167e-06
1.15291862302362e-05
1.62657224910796e-05
2.26104837216223e-05
3.07433343314837e-05
4.06460573520373e-05
5.18997496836071e-05
6.35910860300871e-05
7.40362834001937e-05
8.01928942491531e-05
7.91106794743367e-05
7.02526250749181e-05
5.65434224543906e-05
4.39655789967794e-05
3.64837391421995e-05
4.05804019908235e-05
4.94338123261479e-05
5.9453785446286e-05
6.96434178691362e-05
8.13696444773497e-05
9.53938965915225e-05
0.000112580766838722
0.000133680931777583
0.000159152334885486
0.000188963129368349
0.000222598884361296
0.000259197935490037
0.000297764779135807
0.000337348482218733
0.000377158354237482
0.000416605197114487
0.000455297565768386
0.000493011531160448
0.000529655288554209
0.000565235574764051
0.00059983148548199
0.000633574764714335
0.00066663654338058
0.000699218258334823
0.000731546129922931
0.000763867421823199
0.000796448342399931
0.000829572437343073
0.000863539608225772
0.00089866517121574
0.000935279091777288
0.000973725236813964
0.00101436060690311
0.00105755463975668
0.00110368823499548
0.00115315231821186
0.00120634481031708
0.00126366442976565
0.00132549761045626
0.00139219237540161
0.0014640070342266
0.00154101335822895
0.00162292116175752
0.00170880064045845
0.00179483103309529
0.00187637910276907
0.00194352696075329
0.00197735581731451
0.00194558214628537
0.00180513994315533
0.00151800655859581
0.00115265013905378
0.000950903466033738
0.000817966807373213
0.00074401539133469
0.000701623637828157
0.000679976955425091
0.000672097048203907
0.000677154883509674
0.000689023744633737
0.000700713379374719
0.0007104054573139
0.000717198549433297
0.000720514557268034
0.000718638422179929
0.000706159153477289
0.000678982164490637
0.000640188665978349
0.000591964096562707
0.000536704507046772
0.000476984913264543
0.000415709482967588
0.00035669882552743
0.000306715963437428
0.000269885269741806
0.000243914468772252
0.000229871990584034
0.000229870206899963
0.000256439827566001
0.000323214534952212
0.000466743596903228
0.00058636559025817
0.000519746693325349
0.000281940298450586
0.000192262467640416
0.000290165720988315
0.000268781537440477
0.00011617805433317
4.66699877340233e-05
1.36114559803254e-05
9.19587713808835e-06
5.61602046719469e-06
1.95208138393426e-06
6.78415091353956e-07
4.30702902743973e-07
4.32181810744274e-07
5.42132137056035e-07
7.58997958634715e-07
1.11105845358691e-06
1.66055654894712e-06
2.49713157271307e-06
3.75167366358175e-06
5.60378666925859e-06
8.2919037190796e-06
1.21108874842004e-05
1.73903234087996e-05
2.45601061783677e-05
3.4296643573022e-05
4.7077797950214e-05
6.3029421415654e-05
8.18259923434093e-05
0.000102377612107487
0.000122780269003445
0.000140092407286422
0.000149753440338635
0.000147186885912983
0.000131544546050009
0.000107434942318649
8.47129005609938e-05
7.11159492062545e-05
7.84012313586481e-05
9.17615067381495e-05
0.000104709564132707
0.000117900009552616
0.000133878456212413
0.00015425155679609
0.000180559041220293
0.000213854652240079
0.000254427210479366
0.000301635303175562
0.000354125224228788
0.000410191898872443
0.000468156276253365
0.000526597334536413
0.000584455771157567
0.000641026566367988
0.000695906266294795
0.000748921390595473
0.000800065503388115
0.000849447591710014
0.000897255790613819
0.000943731858727553
0.000989155120524161
0.0010338319385645
0.00107808963774758
0.00112227247308004
0.00116673939368202
0.00121186225234055
0.00125802456144436
0.00130562016059017
0.00135505185988775
0.00140672983530632
0.001461069545654
0.00151848902687889
0.00157940475593815
0.00164422524694948
0.00171334018154976
0.00178710191408062
0.00186579319134673
0.00194957121206178
0.00203837018054232
0.00213173193258048
0.00222850739310972
0.00232634611037133
0.00241954354296108
0.00250073998224469
0.00255622249040538
0.00256345491010844
0.00248913187611431
0.00229489509448615
0.00195413971102282
0.00154310542891843
0.00131268341445633
0.00116160893325473
0.00107952815174613
0.00103421586864806
0.00101386076568129
0.0010096006915141
0.00102037389100078
0.00103836882179483
0.00105590000128412
0.0010707451956774
0.00108155803342395
0.00108738379176007
0.00108557233735831
0.00106910119120661
0.00103316264106136
0.000981614615717198
0.000916994916879418
0.000842198993895768
0.000760408488944907
0.000675347862047885
0.000592307000474711
0.000520939473781447
0.000467412367818092
0.000429011539629366
0.000408177540398599
0.000408907809199073
0.000450143055985623
0.000549897999352577
0.000754899835659846
0.000917167584882432
0.00083667671173061
0.000474080076386096
0.000318600793375866
0.000428851761242747
0.000413207913299888
0.000179101573659026
7.6088786975287e-05
2.78998642874455e-05
1.90977899171365e-05
1.20743982849506e-05
4.3897542580246e-06
1.54031425422181e-06
9.34249897398878e-07
9.09683923538255e-07
1.12456622814445e-06
1.55983399654113e-06
2.26503149393418e-06
3.35990671679436e-06
5.01635004684541e-06
7.48306579638665e-06
1.10978779854742e-05
1.63039750651273e-05
2.36370292268526e-05
3.3665395654721e-05
4.70518653026479e-05
6.46825505695424e-05
8.7129501496754e-05
0.000114131023540287
0.000144621239091072
0.000176399100821807
0.000206258617830702
0.00022994355559361
0.000241707730573441
0.000236208496174979
0.000212104565846524
0.000175817323531395
0.000141035388192154
0.000120198202068907
0.000130146237588929
0.000145316960598237
0.000159623280098538
0.000175684996304689
0.000197308291438804
0.000226956843991186
0.000266607618853983
0.000317115866614433
0.00037794203885383
0.000447240721328736
0.000522469903772592
0.000600995425944851
0.000680551023990295
0.000759419580607635
0.000836453292005545
0.000910981730605217
0.000982701876678555
0.00105156894962274
0.00111771398554035
0.0011813816816966
0.00124288995661446
0.00130260274519233
0.00136091388670322
0.00141823689950923
0.00147499940722783
0.00153163945524165
0.00158860345534372
0.00164634435427987
0.00170532008028247
0.00176599162899408
0.00182882072655397
0.00189426674808529
0.00196278239176894
0.00203480763302016
0.00211076060656755
0.00219102380701409
0.00227592229201691
0.00236568913265663
0.0024604097527187
0.00255993228437234
0.00266372247249121
0.00277062814091228
0.00287847879166913
0.0029832189151109
0.00307754403533096
0.00315147156069785
0.00318866816495261
0.00316510960798998
0.00304918148780309
0.00280818408803009
0.00242293671960942
0.0019737268709389
0.00171920967508686
0.00155435841558671
0.00146681433902379
0.00142061482143716
0.0014028562472471
0.00140325373007027
0.0014202608831485
0.00144483849985476
0.00146862052274522
0.00148896420759837
0.00150408575681516
0.00151253522443084
0.00151061894401919
0.00148988774274919
0.00144505439450997
0.00138060624952177
0.00129940560914675
0.00120483244295653
0.00110068211968853
0.00099153423832146
0.000884265668874383
0.000791422241644386
0.000721028462291391
0.000670007107955221
0.000642529029150924
0.000644837752856646
0.00070239779417396
0.000836863982369771
0.00110286027405059
0.00130593098854395
0.00121618775452316
0.000725686184792932
0.000487469859416642
0.00059898750704898
0.000595235569551348
0.000260649741232378
0.000112819383727468
5.07442345338834e-05
3.66150908973442e-05
2.42105292571632e-05
9.21476206759691e-06
3.27915059308595e-06
1.90582933652402e-06
1.79480957525012e-06
2.18165867472762e-06
2.99345539298269e-06
4.30550574134277e-06
6.32847817268469e-06
9.36347976979122e-06
1.38400858002772e-05
2.03310302578182e-05
2.95690768812773e-05
4.23991229306896e-05
5.96324052219294e-05
8.20549724295489e-05
0.000110522801739506
0.000145392602608136
0.000185582632544537
0.000228869509434416
0.00027169461429985
0.000309560206246872
0.000337199784863161
0.000348275383947839
0.000337522510711798
0.00030412820749286
0.000255315287138013
0.000208340561799513
0.000180698945337368
0.000190450953860525
0.000205404150594848
0.000220928802642207
0.00024158398476041
0.00027216350340517
0.000315697836601996
0.00037403375466195
0.000447033458121503
0.000532610523623105
0.000627349755115181
0.000727531798095268
0.000829821559713978
0.000931651998544334
0.00103125866067536
0.00112758636664258
0.00122011657343615
0.00130871652679663
0.00139350843004714
0.00147477963089193
0.00155291793762287
0.00162837190574125
0.00170162481461598
0.00177318003987711
0.00184355192875971
0.00191326104035313
0.00198283087891833
0.00205278589271367
0.00212364936767219
0.00219594120763932
0.00227017496646715
0.00234685391198488
0.00242646566917844
0.00250947464131774
0.00259631135660206
0.00268735683828519
0.00278291962479366
0.00288320112485142
0.00298824321998221
0.00309784817401714
0.00321145623231133
0.00332795861279483
0.00344541526482915
0.00356064707288894
0.0036676685246352
0.00375810521660893
0.00381985886289132
0.00383521071349532
0.00378032352624148
0.00362656502490698
0.00334612403140033
0.00292380550608684
0.0024424524701883
0.00216751912234214
0.0019922864591684
0.00190115035624329
0.00185548659734842
0.00184114869510624
0.00184676506502209
0.00187027097705852
0.00190162104205242
0.001931842882683
0.00195783673258923
0.00197736052926976
0.00198835742083568
0.00198604711853365
0.00196076308277785
0.00190690921643746
0.00182944928949111
0.00173156829203894
0.00161713011050753
0.00149057233910998
0.00135739324351826
0.00122617984922346
0.00111229955844228
0.00102531656589315
0.000961923469468109
0.00092822102922768
0.000932899174985523
0.00100751209465466
0.00117653887926021
0.00150012204638127
0.00174195267743945
0.0016458556827382
0.0010338691191613
0.000700897475406247
0.000802263773854763
0.000812340836947104
0.000365813669486077
0.000156439765062373
8.25685666623102e-05
6.48258653797523e-05
4.56342111647209e-05
1.82540382406903e-05
6.61937417094419e-06
3.70121299888443e-06
3.36050894087249e-06
4.0057579767759e-06
5.42688223017835e-06
7.71759912025894e-06
1.12184014571956e-05
1.64139238095952e-05
2.39819227312799e-05
3.48000240336104e-05
4.99458396518394e-05
7.05692944326095e-05
9.76001721024441e-05
0.000131668217336075
0.000173219752537039
0.000222012148006525
0.000275812129799234
0.000331039123893196
0.000382828722889031
0.000425683105797121
0.000453814722045601
0.000460947175398876
0.000442553554956247
0.000398931878364545
0.000338587469395333
0.000281148852298215
0.000247404053889403
0.000254742310512689
0.000269289232539624
0.000287930881051973
0.000316745900869355
0.000361122708319075
0.000424098444932577
0.000506510625179485
0.000606366579580801
0.000719623179579241
0.000841387753734182
0.000967122337993459
0.00109317895019082
0.00121699461451121
0.00133695625446913
0.00145221455480342
0.00156245919189176
0.00166775032589037
0.00176838161955847
0.00186479208319768
0.00195750395751126
0.0020470862230007
0.00213413096759319
0.00221924063109313
0.00230302002118941
0.00238607216498951
0.00246899516825905
0.00255237989000723
0.00263680713195275
0.00272284425746604
0.00281104059801122
0.00290192126116228
0.00299597873638027
0.00309366120553136
0.00319535633407633
0.0033013681588489
0.00341188405173427
0.0035269267038505
0.00364628417413668
0.00376940732035247
0.00389525966446834
0.00402209861705837
0.0041471620644701
0.00426623779479844
0.00437188171818377
0.00445470283137905
0.00450133431086084
0.00449372710150107
0.00440928909078985
0.00422261206432987
0.00390938324600183
0.00345604599201648
0.00294764189595845
0.00265528890344674
0.00247228782871298
0.00237889518599289
0.00233477162735177
0.00232437172629172
0.00233553027786292
0.0023656169539772