/*--------------------------------*- C++ -*----------------------------------*\
  =========                 |
  \\      /  F ield         | OpenFOAM: The Open Source CFD Toolbox
   \\    /   O peration     | Website:  https://openfoam.org
    \\  /    A nd           | Version:  7
     \\/     M anipulation  |
\*---------------------------------------------------------------------------*/
FoamFile
{
    version     2.0;
    format      ascii;
    class       volScalarField;
    location    "20000";
    object      p;
}
// * * * * * * * * * * * * * * * * * * * * * * * * * * * * * * * * * * * * * //

dimensions      [0 2 -2 0 0 0 0];

internalField   nonuniform List<scalar> 
15600
(
-8.06946502828687e-09
0.0124061340800331
0.00666304888713547
0.0608538782493742
0.0799052513590557
0.0961543327171764
0.102352788168431
0.107022812313527
0.109388219133974
0.111362459972567
0.112675487087444
0.113912701963284
0.114933094434488
0.115903607635087
0.116830427990324
0.117752446858534
0.118682373604872
0.119635030282871
0.120618590662278
0.121633593085726
0.122677139204504
0.123712721313542
0.124705234928568
0.125615556171976
0.126406303964928
0.127050426205849
0.127542100453248
0.127910186714614
0.128223105607915
0.128564095018755
0.129016240315457
0.129667170923934
0.130531044972693
0.131608947598829
0.132749556076512
0.133915675916141
0.135013724714031
0.136056655260605
0.136994202762856
0.137835606054449
0.138551413473021
0.139138241060193
0.139591905058396
0.139927372306669
0.140168980568293
0.140351827473662
0.140514122628062
0.140693209616256
0.140921228616221
0.141223437390567
0.141617761081477
0.142115579709515
0.142722949654424
0.143441984255586
0.14427211688537
0.145211181057352
0.146256284776332
0.147404511794795
0.148653487795111
0.150001852820669
0.151449673792393
0.152998824404574
0.154653352793594
0.156419852016529
0.158307844038541
0.16033018503628
0.162503497398635
0.164848631829577
0.167391161675178
0.170161910197924
0.17319751042435
0.176540993578363
0.180242401379441
0.184359425162475
0.188958012766361
0.194112784101554
0.199907496494533
0.206435606243738
0.213796692673033
0.222089104357914
0.231427508141471
0.241930274761573
0.253444697352762
0.265722409665397
0.279945183499436
0.292887996901557
0.293713236863311
0.29354138018371
0.292239814703943
0.290611337590499
0.288714587006306
0.286780118408256
0.284895114851148
0.28350511546191
0.283207856320703
0.284426307682135
0.287510257921979
0.292689840684323
0.300092106089509
0.309866711272567
0.321866207505352
0.335441292270034
0.350168501259742
0.365649807501603
0.381530124869502
0.397464629714634
0.413162200903142
0.428285812160188
0.442568706036119
0.455930461679318
0.465989088057054
0.471990630835836
0.466613602675923
0.448177960115436
0.391924611752845
0.289910189448859
0.0753909485184856
-0.0891086427886516
-0.122446704037733
-0.0272883585031513
1.24126995997955e-06
0.0124773000263328
0.00655488101267382
0.0601145466106161
0.079352670243369
0.0957314135328929
0.102132741240505
0.10688377158446
0.109311830000101
0.111313881121525
0.112648573992781
0.113896058308713
0.114927045168604
0.115903374351666
0.116834499261885
0.117758915976421
0.118690000814635
0.119642608525852
0.120625296739088
0.121638902829788
0.122681986192753
0.12371996073454
0.124718430608486
0.125638704657936
0.126443126076269
0.127103389176745
0.127611163544402
0.1279916826428
0.128310286458297
0.128649468195759
0.129092684508076
0.129730619319361
0.130580606897651
0.131646035108549
0.132775983858524
0.133940768726654
0.1350370145801
0.136078130977127
0.137014475356911
0.137855080617292
0.138570352664941
0.139156957558182
0.139610629969194
0.139946262972769
0.140188099924344
0.140371172615435
0.140533639396644
0.140712816869736
0.140940828691406
0.141242923082323
0.141637018884022
0.142134492923441
0.14274140149519
0.143459861058337
0.144289310819413
0.145227591955418
0.146271820769156
0.147419088597062
0.148667026551312
0.150014276444767
0.151460901724574
0.153008765682541
0.154661897304966
0.156426859770097
0.158313132263572
0.160333512893247
0.162504548062342
0.164846991679342
0.167386296289417
0.170153136796903
0.173183966326703
0.176521600043259
0.180215821833968
0.184324017118671
0.188911772935447
0.194053279704959
0.199831779843768
0.206340164180171
0.213677390031296
0.221940700978242
0.231243383866449
0.241705108135002
0.253173065567103
0.265376426890698
0.279487579522406
0.292546958616662
0.293555992155456
0.2933999032734
0.292058705563195
0.290396578541572
0.288476481679456
0.286535110661996
0.284671489764811
0.283351957586884
0.28317055150722
0.284537146022515
0.287789736314557
0.293145474474219
0.300724768025337
0.310662462343085
0.322780257468032
0.336425816291032
0.351189352519167
0.366677626248251
0.382539507045151
0.398434182585662
0.414072350608992
0.429118593558411
0.443312287796787
0.456512517005044
0.46633049765979
0.471903863688878
0.465929800191212
0.446424225225889
0.388703522828637
0.28467798085772
0.0708752558293935
-0.0897809025266721
-0.121830712745032
-0.0271404511447811
2.30522280239315e-05
0.0125955422063574
0.00651722182713141
0.0594247987893476
0.0788067567375519
0.0953025119620356
0.101904047648384
0.106740105185086
0.109231967531589
0.111263423023132
0.112620304459366
0.113878616691439
0.114920346619975
0.115902788227793
0.116838363282095
0.117765312955137
0.118697642562116
0.119650254319162
0.12063207640577
0.121644193828931
0.122686561995134
0.123726525145191
0.124730494732028
0.125660271295225
0.12647801543466
0.127154267502764
0.127678221015973
0.128071402577995
0.128395795674762
0.128732881698765
0.12916632335128
0.129790261000875
0.130625647593017
0.131679092252356
0.132799431278761
0.133966869072536
0.135061479606618
0.136101098758647
0.1370365632682
0.137876886371665
0.138592035918853
0.139178740093043
0.139632522438884
0.139968201927304
0.140209942252606
0.140392787525556
0.140554931414833
0.140733741083056
0.140961372249426
0.141263084652968
0.141656790026966
0.142153849185592
0.142760300799622
0.143478247120467
0.144307118298313
0.145244751385048
0.146288262016197
0.147434742340154
0.148681823596315
0.150028144866233
0.15147376184883
0.153020522902197
0.154672432663622
0.156436018206253
0.15832070834501
0.16033923382216
0.162508053682241
0.164847811134314
0.167383820878162
0.170146588374097
0.173172360313286
0.176503701607216
0.180190092747155
0.184288550081941
0.188864210259017
0.193990704246591
0.199750555393259
0.206235754575275
0.213544146759902
0.221771011664148
0.231025919157401
0.241427568092131
0.252828445258283
0.264917421128253
0.278786737725103
0.291928733713463
0.29323148775851
0.293168291172315
0.291816544462613
0.290133832571282
0.288195699234595
0.286250993676613
0.28441301622822
0.283170146519133
0.283111123448258
0.284631970158494
0.288058688350724
0.293595422979801
0.30135530455237
0.311456270864146
0.323688763669669
0.337401293908282
0.352199030430292
0.367693040345413
0.383535975425698
0.399390676146042
0.414969434918246
0.429938581356122
0.444041046269472
0.457076052192746
0.466645159680576
0.47178275358616
0.465197526175399
0.444619782539538
0.38547115284718
0.279717364734024
0.0672413605545442
-0.0892857317732412
-0.120726329537541
-0.0269876329222416
7.60725022329006e-05
0.0127844607113837
0.00657763542215077
0.0587820661450182
0.0782892410206688
0.094884432175016
0.101676535728099
0.106596665296587
0.109151681901549
0.111212764777175
0.112591775027881
0.113860997045226
0.114913364114606
0.115901962043253
0.116841992674051
0.117771502501267
0.118705107750223
0.119657769929653
0.120638785965667
0.12164947577604
0.122691085384649
0.123732847443273
0.1247420404098
0.1256810026755
0.126511771679474
0.127203803217218
0.127743828766873
0.128149553915233
0.128479351348978
0.128813331982498
0.129235230747093
0.129843095540155
0.13066258308987
0.131704782773793
0.132818052597129
0.133993970403985
0.135087155209163
0.13612550912195
0.137060340520312
0.13790071785229
0.138615932272836
0.139202681754581
0.139656185404941
0.139991223124642
0.140231982825603
0.140413676783314
0.140574686937564
0.140752535183339
0.140979451548319
0.141280698295667
0.141674140775744
0.14217107394731
0.142777471352074
0.143495382083043
0.144324198196016
0.145261732296798
0.146305085519756
0.147451341142924
0.148698122925555
0.15004405999041
0.151489192083548
0.153035342354898
0.154686477827372
0.156449072388466
0.15833248277581
0.1603493451575
0.16251599748972
0.16485293072204
0.167385270544337
0.170143289655664
0.173162949060624
0.176486462617102
0.180162876503473
0.18424866328922
0.188808270987946
0.193914442676744
0.199648505626205
0.206100795317025
0.213366968877906
0.221539195614299
0.23072086354608
0.241022834129132
0.252305375725289
0.264209619224616
0.277688632890989
0.290848917060817
0.292625056997569
0.292758271315899
0.291445697328479
0.289765239413314
0.287819855854349
0.285879898099485
0.284077292225751
0.282922758578551
0.282997222999042
0.28468236811859
0.288291696214238
0.294016173656477
0.301960729888847
0.312224056478644
0.324566001263981
0.338341724263961
0.353172047791767
0.368671906907764
0.3844974643866
0.400314689270707
0.415837044705181
0.43073248377978
0.444745010797321
0.45761482278622
0.466933451518736
0.471636777139098
0.464444415559105
0.44282399236292
0.382360144296903
0.275274727997784
0.0649063583484955
-0.0871477353759378
-0.118818841828046
-0.0268319182774663
0.000172142583078553
0.0130983738042185
0.00679283387585414
0.0581511548202437
0.0777734903972946
0.0944598186164991
0.10144138344882
0.106447498459575
0.109067695673764
0.11115976936218
0.112561818553727
0.113842454754575
0.114905837149746
0.115900886508195
0.116845571939009
0.117777772225848
0.118712731219452
0.119665481133533
0.120645703476128
0.121654959740459
0.122695731421177
0.123739176581979
0.124753528486777
0.125701732985045
0.126545756873512
0.127254004205668
0.127810726136689
0.128229536224125
0.12856488162757
0.128895037939165
0.12930350514715
0.129892544663308
0.130693782839763
0.131724557987366
0.132833157138329
0.134023533599704
0.135115332083791
0.136152710251917
0.137087295762249
0.137928248573735
0.13864384763346
0.139230598917004
0.139683317654847
0.140016784803152
0.140255403288133
0.140434812830305
0.14059381084683
0.140770205711693
0.14099633058336
0.141297405210774
0.141691167994672
0.142188762759996
0.142796024964498
0.14351489587239
0.144344692075833
0.145283177730025
0.146327424178846
0.147474495081109
0.148721997117582
0.150068538429145
0.151514128416348
0.153060545792821
0.154711694744843
0.156473963785605
0.158356597509687
0.160372088579897
0.162536594872922
0.164870384350195
0.167398308751202
0.170150305042449
0.173161921601118
0.176474861303911
0.180137529478969
0.184205580699169
0.188742402438387
0.193819341944813
0.199515816774306
0.205919452379882
0.213122365461312
0.221212511161914
0.230283352655702
0.240430554725009
0.251524893863811
0.263173737213757
0.276179384283402
0.289295994511315
0.291670770880323
0.292093102081335
0.290877747644756
0.289230576703245
0.287296221956173
0.285378174490296
0.283632725734789
0.282591223944045
0.282822430786109
0.284692790655224
0.28850230121569
0.294428106477124
0.302565826045629
0.312992663740258
0.325439371461593
0.339274529048494
0.354135345526917
0.369640316371687
0.385449026945057
0.401230101474885
0.416697653684159
0.431520694735946
0.445441022493109
0.458137523006382
0.46719155755787
0.471439724310765
0.463613057587895
0.440924171714565
0.379178057886165
0.271009842731803
0.0634960954186608
-0.0834941107571626
-0.115894464279872
-0.0265703791346118
0.000341387749329784
0.0136002072146325
0.0072423726491318
0.0575427339189324
0.0772476910725873
0.0940238215040291
0.101196157514426
0.106290983531978
0.10897899882635
0.111103796945722
0.112530057509137
0.113822744079269
0.114897644654534
0.11589952387946
0.116849121126117
0.117784175996217
0.118720580674465
0.119673448259466
0.120652859804673
0.121660620714368
0.122700385162462
0.123745272839966
0.124764559142751
0.125721867103455
0.126579152314138
0.127303830854363
0.127877764657669
0.128310341919167
0.128651806581474
0.128978294215469
0.129372526713919
0.129940811782337
0.130721550856937
0.131740341184725
0.132846327177433
0.1340562868726
0.135146879061357
0.136184153204727
0.137119424921975
0.137961850905059
0.13867823789359
0.139264657732717
0.139715424796341
0.140045553079184
0.140280118996841
0.140455666953504
0.140611736148455
0.140786534190313
0.141012431429572
0.141314443252645
0.14170999790141
0.142209929621773
0.142819818910406
0.143541422926533
0.144373938036864
0.145315056175483
0.146361806945047
0.147511227359829
0.148760900091411
0.150109402276788
0.151556697786029
0.153104499213866
0.154756618808757
0.156519322444206
0.158401696370206
0.160416033580124
0.162578244283882
0.164908292233793
0.16743065712418
0.170174820551034
0.173175770527524
0.176474514307583
0.180118583338322
0.184162517558811
0.188668265089212
0.19370529923907
0.199350532048858
0.20568814663169
0.212805936503586
0.220786761640467
0.22971302468091
0.239664470940314
0.250527678908652
0.261902351972435
0.274449009138266
0.287452707062943
0.290407810803716
0.291152924215442
0.290081723360588
0.288502785296336
0.286607568422334
0.284738880867609
0.283082233156019
0.282185266377389
0.282599601946169
0.284676299665294
0.28870089802854
0.294836612335358
0.303169318259928
0.313753773211486
0.326295006137809
0.340181643278195
0.35506744870544
0.370574157905791
0.386364728224959
0.402109868445862
0.417523639576812
0.432274844916703
0.446098351530544
0.458608572942025
0.467376253847017
0.471136357851934
0.462629510278075
0.438813878638476
0.375756275732004
0.266626448682496
0.0625565287411386
-0.0787572483246437
-0.111983373331668
-0.0260708093876744
0.000621419808315326
0.0143383028553533
0.00799934491952147
0.0569976157511797
0.0767049192468903
0.0935757452287011
0.100941012243757
0.106127276220649
0.108885576311425
0.111044834782571
0.112496470716598
0.113801838330236
0.114888749941897
0.115897844578111
0.11685261299166
0.117790687923569
0.118728626660115
0.119681629888217
0.12066018492368
0.121666330621107
0.122704796175803
0.123750657891132
0.124774294657191
0.125740057932672
0.126609958546445
0.127350556694861
0.127941584745424
0.128388426432583
0.128736965570382
0.1290611394135
0.129442245234849
0.129989829374722
0.130748987925689
0.131755427427519
0.132860240960803
0.134093144725342
0.135183246105172
0.136222227572694
0.137159567437957
0.13800422458766
0.138721005115718
0.139305323915703
0.139751275083825
0.140074846134169
0.140302650047398
0.14047276113203
0.140625673231476
0.1407998453043
0.141027344119894
0.141332613162124
0.141732471387573
0.14223724174741
0.142852134393742
0.143578668812167
0.144415905211703
0.145361466638597
0.146412351265462
0.147565579304841
0.148818714603555
0.150170301669122
0.151620249411751
0.153170186674943
0.154823807789047
0.156587221533735
0.158469312647883
0.160482122097174
0.162641250108795
0.164966282809036
0.167481241785055
0.170215052592382
0.173202025212437
0.17648233396566
0.180102476940097
0.184115695849731
0.188582291864426
0.193569640159586
0.199151930996054
0.205409763511972
0.212426582272655
0.220280131489766
0.229043280869703
0.238783150419472
0.249406423267122
0.26052462279994
0.272652883880174
0.285457271610955
0.288914479144325
0.28997105913879
0.289070196946758
0.287589563198472
0.285765679696309
0.283979191094333
0.282446247059934
0.281725070890842
0.282345883008685
0.284644570799155
0.288892190756916
0.295238800271749
0.303760607388079
0.314490029040737
0.327110730766019
0.341036622351364
0.355937543578652
0.371438360050813
0.387205574871309
0.402911575867568
0.418269674394199
0.432946578878358
0.446664331615852
0.45896940611036
0.467420983457023
0.470649349383368
0.461399816203035
0.436372094069907
0.37192325303824
0.261871245594344
0.0616774479841571
-0.0734513194843133
-0.1073045929859
-0.0252443725871765
0.00103617549747629
0.0153270951882212
0.00910110867709307
0.0565729153485275
0.0761378397611533
0.0931132650728401
0.100675487368653
0.105956437880295
0.108787400397293
0.110982860407804
0.112461041202404
0.113779712406865
0.114879122202666
0.115895825604708
0.116856028251818
0.117797289226213
0.118736843780586
0.11968998025031
0.120667585906708
0.121671902200006
0.122708591284572
0.123754626977342
0.124781520113254
0.125754389821197
0.126635404025108
0.127390514344969
0.127997799103909
0.128459198875389
0.128816363280558
0.129140932311244
0.129512243063204
0.130041731072235
0.130780133730857
0.131774693440432
0.132878921801394
0.134135680706347
0.135226705223642
0.136269865256596
0.137210314592976
0.138056614654775
0.138771201621943
0.13934917561767
0.139785470757855
0.140098362662467
0.140316989614753
0.140481272545168
0.140632367070561
0.140808387540005
0.141040495385777
0.141352114531969
0.141759188138727
0.14227140415604
0.142893568620442
0.14362697674607
0.144470585070299
0.145421983364871
0.146478169070897
0.14763616795071
0.148893538027566
0.15024879497988
0.151701787997849
0.153254049604537
0.154909136566088
0.156672974470897
0.158554214509576
0.160564608030087
0.162719402423422
0.165037758267929
0.167543186169427
0.170263997893404
0.173233762834472
0.176491755289838
0.180083369348857
0.184060477079073
0.188481666824938
0.193412169380956
0.198923463683716
0.205092714146429
0.211999166335899
0.219716052350536
0.228308759848732
0.237834800262472
0.248220771812981
0.259098229365152
0.270828589492856
0.283349735120066
0.287240896079985
0.288587287118036
0.287873182723294
0.286515742474317
0.284793854989789
0.283121627339593
0.281744518403752
0.281225835238967
0.282071498257881
0.284602934407778
0.289077343279259
0.295632619457689
0.30433525442891
0.315195983734455
0.327881200648853
0.341833365159316
0.356737263451234
0.372220895951398
0.387954588710715
0.403612255060119
0.418906018375077
0.433498549193397
0.447093290884819
0.459165300975503
0.467260408626537
0.469900542855077
0.459828461066075
0.433481221674007
0.367538702390064
0.256603448433593
0.0606369217952246
-0.0679643625022618
-0.102128380668299
-0.0240811589200633
0.00158901265896184
0.0165412157555069
0.010539148346151
0.0563307136649715
0.0755399422525503
0.0926326616971191
0.100397911011181
0.105778243093834
0.108684353467127
0.110917802705467
0.112423731449485
0.113756328721153
0.114868726176388
0.115893445685265
0.116859353665164
0.11780396825839
0.118745210572623
0.119698445708172
0.120674935205386
0.121677063374678
0.122711235580198
0.123756218082672
0.124784670343535
0.12576255342682
0.126652396175312
0.127419951499597
0.128042323806185
0.128518721895901
0.128886941770796
0.129216010069078
0.129582622482428
0.130098790819067
0.130819219713765
0.13180367623606
0.132907017768535
0.13418583912524
0.135279653459341
0.136329054202782
0.137271968184492
0.138116598096338
0.138823501469155
0.139388761916368
0.139809914222557
0.140108864871001
0.140317705644771
0.140477755041582
0.14062996087296
0.140811263164001
0.141051352788438
0.141372343862144
0.14178920515395
0.142310995406731
0.142942166303026
0.143683849118233
0.144534952077205
0.145493076326893
0.146555251452749
0.147718530721105
0.148980478834717
0.150339587197774
0.151795643248924
0.153350075703672
0.155006291755572
0.156770018018605
0.15864965315465
0.160656637131301
0.162805840224814
0.165115970781227
0.167609999301289
0.170315592082044
0.173265543603772
0.176498191402982
0.18005778766075
0.183994799302
0.188366076255898
0.193234702941843
0.198669502427294
0.204744379318867
0.211534572508089
0.219109331508704
0.227528249544435
0.236840670452526
0.246989420990936
0.257628900105651
0.26896782055327
0.281141043330409
0.285415248476849
0.287030830822025
0.286517578067002
0.285305366667106
0.283712916027779
0.282183796580343
0.280990312577844
0.280695912361359
0.281780938948303
0.284553574233773
0.289257590212378
0.296019460816052
0.304895793560834
0.315876442280399
0.328614024879262
0.342581431919033
0.357476808276204
0.372931217484697
0.388618841031581
0.404214822134837
0.419429525978629
0.433919536454168
0.44736491074688
0.459166426130229
0.466854353877015
0.468838933734059
0.457852833213078
0.430073934374931
0.362553390049001
0.250837818964887
0.059427729209773
-0.0624710589435422
-0.0966733880239732
-0.0226277573891403
0.00227255863776375
0.017926263141627
0.0122744544558942
0.0563290976094605
0.0749115426889775
0.0921307006415863
0.100105150416001
0.105592143529626
0.10857627679727
0.110849583738661
0.112384507515614
0.113731652784313
0.114857526004164
0.115890683476826
0.116862576074955
0.117810711691008
0.118753697940082
0.119706950252515
0.120682054521893
0.12168144832704
0.122712057460617
0.123754331944792
0.124782132947943
0.125762440619968
0.126658504120984
0.127436435354572
0.12807312839691
0.128565726663575
0.12894834100485
0.129287069142736
0.12965494965838
0.130163524270049
0.130870018030887
0.131847340048254
0.13294852388385
0.134245250527605
0.135343564472906
0.136399080580036
0.137340998946472
0.138177748817872
0.138869590110601
0.139415574116558
0.139817529169835
0.140101576518872
0.140302244194306
0.14046116817764
0.140618072145875
0.140808073241003
0.141059102645842
0.141391902726161
0.141820511837265
0.142353436297702
0.142994849156575
0.143745780530977
0.144605138250108
0.145570569517434
0.146639159968719
0.147808005775918
0.149074687062529
0.150437674447919
0.151896692925538
0.153453063303945
0.155110036248698
0.156873129940738
0.158750478710355
0.160753196973224
0.162895761170321
0.165196407824849
0.167677544484999
0.170366165552399
0.173294260519499
0.176499197006554
0.180024050898615
0.183917852722599
0.188235693642279
0.193038513830233
0.198392531133125
0.204368509632266
0.211037912573143
0.218466308642265
0.226708542074795
0.235806321385289
0.245713830958867
0.256109954215262
0.267062223587701
0.278843049408081
0.283459016007162
0.285324321488738
0.285024639903168
0.283977405464813
0.282539017470388
0.281178492821687
0.280192720859412
0.280140940883826
0.281477674970967
0.284498938856954
0.289435349749807
0.29640245076126
0.305446745673719
0.31653805481839
0.329318357851653
0.343292152859584
0.358169114034333
0.37358326012063
0.389212405117417
0.404732398298806
0.419850940065936
0.434216153138944
0.447480709736521
0.458968835346675
0.466193160677207
0.46744968493215
0.455455593804896
0.426143791875303
0.356998193046972
0.244672924080059
0.0581355505113818
-0.0570017330255915
-0.0910779392095257
-0.0209455334529414
0.00307773271810934
0.0194155922088256
0.0142611679477337
0.0565980654267594
0.0742778578965362
0.0916075709983205
0.0997923959270147
0.105397004589872
0.108462936880891
0.110778119630149
0.112343342202762
0.113705656046538
0.114845485367569
0.115887516384307
0.11686568073909
0.117817502076647
0.118762265953496
0.119715393758684
0.120688723927916
0.12168464314495
0.122710381634208
0.123748017267581
0.124772754224133
0.125752898177142
0.126652908985403
0.127439855209929
0.128091073136318
0.128602074035703
0.129003164712061
0.129357002300239
0.129732174280832
0.130238580542
0.130935560303189
0.131909402943491
0.133005069549952
0.13431504119252
0.135417756081967
0.136476030254973
0.137410869744618
0.138231943769001
0.138901438763794
0.139423267594296
0.139804445458053
0.140074886421867
0.140270385294628
0.140431729328166
0.140596683961424
0.140798241614258
0.141062533385781
0.141408997016616
0.141850831056945
0.142396069649477
0.143048669056089
0.143809603061991
0.144677810715638
0.145651007176827
0.146726348960206
0.147900984723076
0.149172515563651
0.150539393652996
0.152001281184239
0.153559388320285
0.155216804206279
0.156978831323951
0.158853329956463
0.160851076491242
0.16298613790753
0.165276259698936
0.167743263327065
0.170413444132095
0.173317955761023
0.176493162491853
0.179980930325111
0.18382882427774
0.188090159266739
0.192823734623654
0.198093209341541
0.203966260065485
0.210510793494241
0.217788865402381
0.225851062125205
0.234731744212846
0.244391844920134
0.254536253042033
0.265109321981164
0.276469065894749
0.281391030318617
0.283487217403222
0.283412078168144
0.282547286180539
0.281285388882453
0.280116307992037
0.279359479990486
0.279566252368829
0.281165521717804
0.284442026777776
0.289613412811368
0.296784622069696
0.305991813287075
0.317185719543319
0.330000653104799
0.343973449353378
0.358823334954261
0.374187221197993
0.389746188378003
0.405176180046338
0.420181125840133
0.434398106703213
0.44744891922273
0.458579352289688
0.465282442297342
0.465738084119961
0.452645501995714
0.421715328356085
0.350932563701399
0.238214312803265
0.0568474710063854
-0.0515404675720329
-0.0854165976783992
-0.0190874582936791
0.00399646866382758
0.0209461324706284
0.0164620795599481
0.0571262720905532
0.0736869755955666
0.0910727313669437
0.0994538413494268
0.105190668391226
0.108343916635847
0.110703298552059
0.112300207691469
0.113678313192496
0.114832565852792
0.115883919823881
0.116868652110151
0.117824319898154
0.118770868778897
0.119723666668506
0.1206947233967
0.121686285573528
0.122705726330741
0.123736781061948
0.12475623673307
0.125734115499303
0.126636600468677
0.1274322080122
0.128099122355057
0.1286313920794
0.129055253577857
0.129429352123765
0.129817354467041
0.130326327542041
0.131018001842464
0.131992260123643
0.133075910189589
0.134395123294935
0.135499055500827
0.136554115591466
0.137474276911523
0.138271911053869
0.138913327284368
0.139408504972465
0.139769548653751
0.140029048233297
0.140222782181945
0.140389826846519
0.140565631037435
0.140781012986195
0.141060379526351
0.141421961912224
0.141878202115293
0.142436722747823
0.143101304967229
0.143872894269104
0.144750479858841
0.145731857739122
0.146814264054075
0.147994905677838
0.149271408016049
0.1506422060496
0.152106898486221
0.153666582204894
0.155324180108797
0.157084771949794
0.158955934296623
0.160948092800048
0.163074888828903
0.165353556903632
0.167805308497228
0.170455712209182
0.173335055082355
0.176478665695634
0.179927168788277
0.183726637816329
0.187928596692865
0.192589707122377
0.197771108939209
0.20353741362731
0.209953121759445
0.217076875863604
0.224955183952627
0.233615402170405
0.243021456760218
0.252905522820444
0.263109756340203
0.274031536382845
0.27922767635432
0.281536690143828
0.281695266767999
0.281028275431244
0.279963373287295
0.279006596766969
0.278497703498785
0.278976981212828
0.280848260439789
0.284385798388852
0.289794323506322
0.297168405395576
0.306533629067495
0.317822728149442
0.330665197655342
0.344630522960729
0.359445398854298
0.374749635638118
0.390227113466385
0.405553254440287
0.420427026631215
0.434471841801467
0.447275549156196
0.458004032659378
0.46412865803991
0.463712153730829
0.4494359186029
0.416816905479271
0.344413873702836
0.231550761168141
0.0556325359569768
-0.0460699737387328
-0.0797267088787854
-0.0170923472080729
0.00502190474842421
0.0224719461789379
0.0188515629351093
0.0578869765374463
0.0731850675582498
0.0905476400139195
0.0990854133981676
0.104969518475896
0.108218421719713
0.110624941646072
0.112255064753463
0.113649599414414
0.114818726740882
0.115879868710379
0.116871477895889
0.117831150833211
0.118779468737144
0.119731680297202
0.12069989506008
0.121686175248403
0.122697958512162
0.123720745743791
0.124733194953382
0.125707432375995
0.126611780829853
0.127416510490047
0.128100822206713
0.1286573209192
0.129107924535496
0.129506794314339
0.129912447284716
0.130428211615329
0.131118498928064
0.132096665180004
0.133159618716618
0.134483328263019
0.135583047168053
0.136627258276321
0.13752476016348
0.138292312532757
0.138902017906836
0.139370228505431
0.139713255578434
0.139965010644374
0.140160220996693
0.140335769370998
0.140524694485332
0.140755710049872
0.141051605447588
0.141429496645162
0.141901134412053
0.142473772392234
0.14315104333377
0.143933880995662
0.144821335230422
0.145811289729295
0.146901064804339
0.148087928417683
0.149369531721752
0.150744292535823
0.15221174458956
0.153772868262699
0.15543041500383
0.157189234298597
0.159056608759398
0.16104259993983
0.163160406776659
0.165426732291086
0.167862153751366
0.170491485521209
0.17334411820274
0.176454314163781
0.179861428230341
0.183610019343341
0.187749807876918
0.192335319441699
0.197425200946301
0.203081035680179
0.20936399623149
0.21632935325911
0.224019626608156
0.232455669743646
0.241601641096581
0.251217766954782
0.261065774746683
0.271541652305214
0.276983173079778
0.279487998555728
0.279887774627624
0.279432096209566
0.278582975503188
0.277857615100112
0.277613745685972
0.278377792817374
0.280529383066282
0.284332954394765
0.289980284835323
0.297555734428199
0.307074135232557
0.318451463667067
0.331315108047266
0.345267095720618
0.360039440615525
0.375274919478365
0.390659642734525
0.405867906116359
0.420592456366318
0.434440418846778
0.446963060736324
0.457245207829575
0.462734495047746
0.461376252504086
0.445836677807097
0.411472371152982
0.337492993417172
0.224758086466361
0.0545473184235349
-0.0405781746685906
-0.074027459656996
-0.0149860750311584
0.00614825286058604
0.0239717022753306
0.0214107121301571
0.0588525409114322
0.072806360655784
0.0900599727351716
0.0986898009752707
0.104728446480038
0.108084999331717
0.110542732981641
0.112207847865189
0.113619489249501
0.114803928493108
0.115875343245956
0.116874157932234
0.117837998736952
0.118788057057639
0.119739402168612
0.120704198522801
0.121684341598967
0.122687336108221
0.123700591221623
0.124704900293246
0.125674800864953
0.126581025573971
0.127395741259264
0.1280991909597
0.128682527985087
0.129163212759478
0.129590601578957
0.130018002902772
0.130544250034563
0.131236788206477
0.132220928077939
0.133254641331471
0.134576640411548
0.135665094035689
0.13669001534963
0.137557319209322
0.138289793719387
0.138866211872124
0.139308783351425
0.139636689272453
0.139883918127417
0.140083475438028
0.140269858189488
0.140473743136893
0.140721851976005
0.141035463616658
0.141430656527961
0.14191854058995
0.142506029918483
0.143196625075247
0.143991256555159
0.144889039225977
0.145887946724493
0.146985384658718
0.14817868242514
0.149465516482243
0.150844286087083
0.152314457366602
0.153876890030285
0.155534157997114
0.157290872134178
0.159154010077303
0.161133255208053