/*--------------------------------*- C++ -*----------------------------------*\
  =========                 |
  \\      /  F ield         | OpenFOAM: The Open Source CFD Toolbox
   \\    /   O peration     | Website:  https://openfoam.org
    \\  /    A nd           | Version:  7
     \\/     M anipulation  |
\*---------------------------------------------------------------------------*/
FoamFile
{
    version     2.0;
    format      ascii;
    class       surfaceScalarField;
    location    "20000";
    object      phi;
}
// * * * * * * * * * * * * * * * * * * * * * * * * * * * * * * * * * * * * * //

dimensions      [0 3 -1 0 0 0 0];

internalField   nonuniform List<scalar> 
30950
(
1.09279778873665e-05
-1.07687267773815e-06
8.31551533722404e-06
2.61246612415668e-06
-9.45098045233133e-07
9.26061816597087e-06
-4.03077104730046e-06
3.08567601358755e-06
-3.34538845355429e-06
-6.85382790737982e-07
-1.99943032138462e-06
-1.34595866627979e-06
-1.33536654323241e-06
-6.6406442921542e-07
-9.91130143369221e-07
-3.44236759130397e-07
-8.25343628775137e-07
-1.65786694916448e-07
-7.32072361057713e-07
-9.32712965934987e-08
-7.18467243830323e-07
-1.36051380417911e-08
-7.32583520389877e-07
1.41162162447573e-08
-7.85231552758662e-07
5.26479304553875e-08
-8.68896640199869e-07
8.36649759808271e-08
-9.80322511150346e-07
1.11425770484533e-07
-1.11576586889767e-06
1.35443273981041e-07
-1.26975083030605e-06
1.53984887062806e-07
-1.43114335030701e-06
1.61392444052239e-07
-1.58029593519036e-06
1.49152499681584e-07
-1.68720878770572e-06
1.06912754684561e-07
-1.70903389117735e-06
2.18249909824754e-08
-1.61708336160238e-06
-9.19506626751184e-08
-1.38083271746711e-06
-2.36250812530951e-07
-9.67949834831893e-07
-4.12883110705967e-07
-3.55484232332987e-07
-6.12465923618235e-07
4.58647905278157e-07
-8.14132589957222e-07
1.44058826034744e-06
-9.81940967235558e-07
2.51139115319748e-06
-1.07080366702766e-06
3.55729853776247e-06
-1.04590829106453e-06
4.42559771832897e-06
-8.68300164813121e-07
4.95034376757062e-06
-5.24747054477675e-07
5.07679449594474e-06
-1.26451730405911e-07
4.87183639523369e-06
2.04957096846565e-07
4.67074482497278e-06
2.01090566822419e-07
4.49172076647277e-06
1.79023121757432e-07
4.4646489027793e-06
2.70709418605607e-08
4.42700305287312e-06
3.76449908664333e-08
4.35625339317263e-06
7.07488759443924e-08
4.10335748345384e-06
2.52895191657437e-07
3.6366275249976e-06
4.66729314705639e-07
2.88354971542467e-06
7.53077250259727e-07
1.80342811492499e-06
1.08012112582221e-06
3.70728312023527e-07
1.43269939891552e-06
-1.39943154186592e-06
1.77015949431304e-06
-3.46172388222657e-06
2.06229199086853e-06
-5.74675002653322e-06
2.28502576577187e-06
-8.17683392614693e-06
2.43008345176448e-06
-1.06778939265617e-05
2.50105944507536e-06
-1.3188273878213e-05
2.51037925634095e-06
-1.56622001683511e-05
2.47392543152882e-06
-1.8069778691205e-05
2.40757748871459e-06
-2.0394744095204e-05
2.32496419259914e-06
-2.26315054657592e-05
2.23675998789074e-06
-2.47822561127314e-05
2.15074910314671e-06
-2.68545869848081e-05
2.07232917817935e-06
-2.88596840788991e-05
2.00509526029149e-06
-3.08110626683352e-05
1.95137662443179e-06
-3.27237207504118e-05
1.91265599359494e-06
-3.46135945240513e-05
1.88987156940728e-06
-3.6497212653421e-05
1.88361581808448e-06
-3.83914697896364e-05
1.89425472818332e-06
-4.03134601503921e-05
1.92198786824177e-06
-4.22803283566803e-05
1.96686564356492e-06
-4.43091065845697e-05
2.02877561104837e-06
-4.64165154299215e-05
2.10740619202757e-06
-4.86187103407639e-05
2.20219223998497e-06
-5.09309575785507e-05
2.31224456939529e-06
-5.33672240604784e-05
2.43626383635792e-06
-5.59396617139908e-05
2.57243505038606e-06
-5.86579595036007e-05
2.71829524705247e-06
-6.15285209350984e-05
2.87055896622063e-06
-6.4553401756998e-05
3.02487844981462e-06
-6.77288920210501e-05
3.17548800064408e-06
-7.10435062002509e-05
3.31461203952712e-06
-7.44750860294461e-05
3.43157782804119e-06
-7.79866961980202e-05
3.51160832060558e-06
-8.15196728509733e-05
3.5329749724023e-06
-8.49809209337513e-05
3.46124658335467e-06
-8.8228068327947e-05
3.24714608915685e-06
-9.10479445343556e-05
2.81987510740602e-06
-9.30524094463293e-05
2.00446403056489e-06
-9.34881113962695e-05
4.35701303867706e-07
-9.13666769171665e-05
-2.12143486936712e-06
-8.51591347743418e-05
-6.20754227588099e-06
-6.72593474165915e-05
-1.78997870854768e-05
-3.44798632792488e-05
-3.2779483403717e-05
-2.01111659107368e-05
-1.43686967029002e-05
-1.46563744552057e-05
-5.45479073374587e-06
-1.29400680756597e-05
-1.71630558382513e-06
-1.31610498095176e-05
2.20982528367329e-07
-1.4370827381667e-05
1.20977827941391e-06
-1.60018460235027e-05
1.6310192092824e-06
-1.80533232384524e-05
2.05147759576903e-06
-2.03096688144465e-05
2.25634572554798e-06
-2.23245679053455e-05
2.0148990104889e-06
-2.38685917521602e-05
1.54402359004371e-06
-2.48502997926264e-05
9.81707682867578e-07
-2.52637294856809e-05
4.13429307022787e-07
-2.51479845999938e-05
-1.15745244050442e-07
-2.43903174540116e-05
-7.57667434557657e-07
-2.28659097087065e-05
-1.52440793048629e-06
-2.07835304507458e-05
-2.08237932469333e-06
-1.83574697004698e-05
-2.42606070036687e-06
-1.57578309121052e-05
-2.59963863322859e-06
-1.31178315658107e-05
-2.63999910628585e-06
-1.05466211226848e-05
-2.57121014284227e-06
-8.11784763946191e-06
-2.4287731595635e-06
-5.91033595241648e-06
-2.20751137870797e-06
-3.92529866516489e-06
-1.98503701110939e-06
-1.96794475871182e-06
-1.95735364277442e-06
-2.45018516410944e-08
-1.94344270577908e-06
2.26321159543234e-06
-2.28771326869298e-06
4.95738481074901e-06
-2.69417293523777e-06
9.33058347875684e-06
-4.37319826679125e-06
1.66053731757779e-05
-7.27478942267624e-06
2.98644776857454e-05
-1.32591029015525e-05
3.77285141533519e-05
-7.86403420419291e-06
2.98541509956137e-05
7.87436311518257e-06
1.39729384609696e-05
1.58812064215147e-05
4.12202705278136e-06
3.54947470321763e-05
-1.93002834434015e-06
2.70374148487466e-05
1.10698023529688e-05
1.08732765905481e-06
3.52107116543148e-05
-1.07525566294419e-05
1.49255652454563e-05
-9.70263021395351e-06
-1.73530829969915e-06
-6.08170051723338e-06
-4.96688839299613e-06
-4.06015819713133e-06
-2.68560680000265e-06
-3.05869934203107e-06
-1.34569558815882e-06
-2.54088245253316e-06
-6.8360357537201e-07
-2.27644496003246e-06
-3.57708739184509e-07
-2.22785439751359e-06
-6.21956184104859e-08
-2.28744983897605e-06
7.37117431755477e-08
-2.45451459035834e-06
2.19712750501022e-07
-2.71919398425364e-06
3.48344422017673e-07
-3.06632264835341e-06
4.58554477413774e-07
-3.4857398260259e-06
5.54860493143346e-07
-3.95925775575235e-06
6.27502861026598e-07
-4.45393131116313e-06
6.56066045817518e-07
-4.91350990447155e-06
6.08731138131874e-07
-5.2528485271591e-06
4.46251417044729e-07
-5.36122918963841e-06
1.30205682993845e-07
-5.16040752061686e-06
-2.92772318196033e-07
-4.57174255163721e-06
-8.24915793963552e-07
-3.51003030586783e-06
-1.47459541211801e-06
-1.90999081358501e-06
-2.21250554262847e-06
2.47612915164306e-07
-2.97173655874727e-06
2.90001990594739e-06
-3.63434836656456e-06
5.87371464233741e-06
-4.04449904239e-06
8.89330602855598e-06
-4.06550060079448e-06
1.15607028320504e-05
-3.53569820923195e-06
1.34091718435354e-05
-2.37321761892573e-06
1.41575412550245e-05
-8.74822963211694e-07
1.38980798244207e-05
4.64416520147392e-07
1.33225271041762e-05
7.76641203977967e-07
1.26258074533196e-05
8.75740733018087e-07
1.22259044377248e-05
4.26971968740644e-07
1.1785698694019e-05
4.778488729961e-07
1.11064882772996e-05
7.49957551269707e-07
9.81490759686841e-06
1.54447424763867e-06
7.75989911975377e-06
2.52173628737049e-06
4.76629090913342e-06
3.74668407017365e-06
7.40062959661913e-07
5.10634777065142e-06
-4.33082946494048e-06
6.50359055787033e-06
-1.03450788308713e-05
7.78440757345563e-06
-1.71152326948961e-05
8.83244447506867e-06
-2.44056338159392e-05
9.57542533780535e-06
-3.19769528830869e-05
1.00014007295008e-05
-3.96195650603708e-05
1.0143669532991e-05
-4.71719417562092e-05
1.00627535195824e-05
-5.45244506290416e-05
9.82643150422852e-06
-6.16140509138252e-05
9.4971746000788e-06
-6.84147784660275e-05
9.12568820731438e-06
-7.49277587271027e-05
8.7497363660603e-06
-8.1172575926345e-05
8.3955620966716e-06
-8.71806531394878e-05
8.08040188545448e-06
-9.2990551968507e-05
7.81498930433321e-06
-9.86448295433936e-05
7.60564915483604e-06
-0.000104188025053357
7.45584621907773e-06
-0.000109665401867048
7.36724287966748e-06
-0.000115122150085906
7.34035833836891e-06
-0.000120602833371845
7.3749321477318e-06
-0.000126150926403146
7.47007489637187e-06
-0.000131808334823781
7.62426795872204e-06
-0.000137614821022428
7.83525563916641e-06
-0.000143607279408575
8.09985838180019e-06
-0.000149818815854352
8.41372250393517e-06
-0.000156277590306116
8.77101289455584e-06
-0.00016300538055167
9.16404805032752e-06
-0.0001700158135896
9.58286218955959e-06
-0.000177312188806064
1.00146647329404e-05
-0.000184884773711539
1.04431383424985e-05
-0.00019270737611549
1.08474755574106e-05
-0.000200732871085826
1.12009779373116e-05
-0.000208887154807842
1.14688910188283e-05
-0.000217060662217857
1.16050808130643e-05
-0.00022509605638284
1.15469984031078e-05
-0.000232769924049721
1.1206838921864e-05
-0.000239764549003745
1.0455868206419e-05
-0.000245620766664485
9.10336082526565e-06
-0.00024966025431722
6.85936025867055e-06
-0.00025085864811415
3.20285576797459e-06
-0.000247516308517247
-2.90663987504351e-06
-0.000236645483406438
-1.29922610464554e-05
-0.00021379399055676
-2.90590356848607e-05
-0.000170262949466478
-6.14308280222213e-05
-0.000106084382106133
-9.6958049444101e-05
-7.14665987721248e-05
-4.89864780054331e-05
-5.70472847489488e-05
-1.98741024787398e-05
-5.18992871638933e-05
-6.86430086955078e-06
-5.19771586462266e-05
2.98856209868346e-07
-5.46205244283633e-05
3.8531461147859e-06
-5.83950202085234e-05
5.40551690455774e-06
-6.29564427457991e-05
6.61290193983893e-06
-6.76111809582822e-05
6.91108567797211e-06
-7.13631800909986e-05
5.7668998727131e-06
-7.37511931916152e-05
3.93203846220361e-06
-7.46652984295283e-05
1.89581476977825e-06
-7.41575988850949e-05
-9.42682947106188e-08
-7.23057442323834e-05
-1.96759786370022e-06
-6.89099147745153e-05
-4.15349478625648e-06
-6.38074460453627e-05
-6.6268745078156e-06
-5.74699262569574e-05
-8.41989695726183e-06
-5.040138379774e-05
-9.49460104547127e-06
-4.29988254597221e-05
-1.00021949431696e-05
-3.55810780492127e-05
-1.00577446150469e-05
-2.84054671847686e-05
-9.74681926211322e-06
-2.16569647329928e-05
-9.1772740413151e-06
-1.55095887170362e-05
-8.35488601497904e-06
-9.92124986313355e-06
-7.57337469465952e-06
-4.49187239414154e-06
-7.3867301355935e-06
9.76222941565077e-07
-7.41153715449624e-06
7.22143377509643e-06
-8.53292315234348e-06
1.47894134075408e-05
-1.02621518403116e-05
2.65148774008757e-05
-1.60986623870284e-05
4.61648868801523e-05
-2.69247988906301e-05
7.98647068038829e-05
-4.6958919905667e-05
0.00010387652958493
-3.18758537181803e-05
8.90767233148149e-05
2.26741665985108e-05
5.00281922658727e-05
5.49297292905452e-05
1.95086348812111e-05
6.4160263531393e-05
1.39793606418212e-07
4.92287926886103e-05
2.60012779524382e-05
6.80257716857589e-06
7.76369337566626e-05
-1.63257384986807e-05
3.80538861593384e-05
-1.62492581162305e-05
-1.81178766426685e-06
-1.05837834599536e-05
-1.0632362939038e-05
-7.10174755618954e-06
-6.1676425566116e-06
-5.38291143079252e-06
-3.06453155532084e-06
-4.46079936679e-06
-1.60571556827742e-06
-4.00289520546608e-06
-8.1561283367849e-07
-3.90167726556119e-06
-1.63413455836944e-07
-4.00759448653232e-06
1.79629089293998e-07
-4.29241212640638e-06
5.0453051399488e-07
-4.74814844275484e-06
8.04080846883475e-07
-5.34522455632958e-06
1.05563068243957e-06
-6.06644423137828e-06
1.27608024871918e-06
-6.87953806329112e-06
1.4405967700669e-06
-7.72920601630944e-06
1.50573407634466e-06
-8.52308923982597e-06
1.40261443860996e-06
-9.12258526291681e-06
1.0457475123852e-06
-9.35511969288394e-06
3.62740174530571e-07
-9.09583007657467e-06
-5.52061891175139e-07
-8.2250588814227e-06
-1.69568697587256e-06
-6.61358749304957e-06
-3.08606683792127e-06
-4.16068193693897e-06
-4.66541122060828e-06
-8.30440213982713e-07
-6.30197854050825e-06
3.29831010750661e-06
-7.76309915530251e-06
7.98700205893806e-06
-8.733191752682e-06
1.28447793438739e-05
-8.923279011048e-06
1.72895757039244e-05
-7.98049610699345e-06
2.05957184682877e-05
-5.67936232547209e-06
2.22036132618811e-05
-2.48272003963093e-06
2.21092232462427e-05
5.58804024658617e-07
2.11657828503894e-05
1.72007899625239e-06
1.97858648833475e-05
2.25565613555403e-06
1.87096728496836e-05
1.50316150065042e-06
1.74565186300058e-05
1.73100076235361e-06
1.5607966249499e-05
2.59850774837097e-06
1.25917727704649e-05
4.56066569329354e-06
8.12103198304907e-06
6.99247518983727e-06
1.94920418987144e-06
9.91851010969144e-06
-6.02014551997847e-06
1.30756958188946e-05
-1.57071217177816e-05
1.6190565136452e-05
-2.68471209381705e-05
1.89244051457562e-05
-3.90511903892965e-05
2.10365121613632e-05
-5.18862200425239e-05
2.24104530222421e-05
-6.49484142286633e-05
2.30635926657621e-05
-7.79115233862601e-05
2.31067760984945e-05
-9.05448156906932e-05
2.26960428488658e-05
-0.000102708606242504
2.19902186791601e-05
-0.000114337875926823
2.1126440507578e-05
-0.000125422653304903
2.02104614259551e-05
-0.000135990205174627
1.93172837199249e-05
-0.000146091032142085
1.8496384220836e-05
-0.00015578884601122
1.77782106117186e-05
-0.000165153868934656
1.7180006810687e-05
-0.00017425858436563
1.67103589181487e-05
-0.000183175140386155
1.63723963449488e-05
-0.000191973776505699
1.61658729028239e-05
-0.000200721815402982
1.60883909657655e-05
-0.000209482901360843
1.61360116941274e-05
-0.000218316269455161
1.63034364733754e-05
-0.000227275899343875
1.65838912633775e-05
-0.000236409453995682
1.69688036817427e-05
-0.000245756932457517
1.74473302521586e-05
-0.000255348982218267
1.8005765734037e-05
-0.000265204823254188
1.86268475027251e-05
-0.000275329735317835
1.92889538290692e-05
-0.000285712045035337
1.99651658021909e-05
-0.000296319519839872
2.06221336469724e-05
-0.000307095017925852
2.12186307840224e-05
-0.000317951144808042
2.17035970703132e-05
-0.000328763525273134
2.2013353334907e-05
-0.000339362070750061
2.2067431754417e-05
-0.000349519195570228
2.17622012399971e-05
-0.000358933461776749
2.0961260583294e-05
-0.000367206750237391
1.94801237390215e-05
-0.000373809997994151
1.70591127174609e-05
-0.000378025290044558
1.33186500413264e-05
-0.000378861607544716
7.69567534578064e-06
-0.000374954222152346
-7.04531602266888e-07
-0.000364297773158494
-1.35630903744399e-05
-0.000343632657754243
-3.36573774349014e-05
-0.000308671109694847
-6.40205841695449e-05
-0.00025365846111965
-0.000116443476385285
-0.000181063202154129
-0.000169553307190444
-0.000136048220708065
-9.40014572780652e-05
-0.000114314818076888
-4.16075024318895e-05
-0.000105378640942878
-1.58004751895575e-05
-0.000104122428427111
-9.57353562491314e-07
-0.000106749553183992
6.48027346733664e-06
-0.000111128195179898
9.78416135449988e-06
-0.000116457874168317
1.19425832826559e-05
-0.000121628073507592
1.20812873412277e-05
-0.000125309908485065
9.44873722607657e-06
-0.000126927072845307
5.54920531198332e-06
-0.000126394616791497
1.36336135047852e-06
-0.000123810991338651
-2.67789096606535e-06
-0.000119259412956765
-6.51917334424229e-06
-0.000112511202643174
-1.09017021151658e-05
-0.000103451092678671
-1.5686981453249e-05
-9.27309297690049e-05
-1.91400568751608e-05
-8.10513004878571e-05
-2.11742274229947e-05
-6.89657121784328e-05
-2.20877804935008e-05
-5.69289555404474e-05
-2.20944986869804e-05
-4.53078914691695e-05
-2.13678809943618e-05
-3.43763026810755e-05
-2.01088607311804e-05
-2.43686397137903e-05
-1.8362547132203e-05
-1.51685476480243e-05
-1.67734651779347e-05
-6.2371397376067e-06
-1.6318136715372e-05
2.86325447923001e-06
-1.65119301607856e-05
1.31260406567115e-05
-1.87957080998798e-05
2.57042225977702e-05
-2.28403328359355e-05
4.45339608616816e-05
-3.49284005764545e-05
7.53859848370645e-05
-5.77768229592545e-05
0.000125239823177575
-9.68127564664905e-05
0.000163815513336695
-7.04515395734523e-05
0.00014852816188962
3.79615154796369e-05
9.39207859503932e-05
0.000109537094357316
4.71993316222262e-05
9.74891732770433e-05
7.42208666987441e-06
7.55082163430164e-05
4.79822405792467e-05
1.64725687564367e-05
0.000136672587668231
-2.01586437265091e-05
7.46851035002223e-05
-2.28226818182526e-05
8.52251194572477e-07
-1.5430835538091e-05
-1.80242091153799e-05
-1.04530941486533e-05
-1.11453838028553e-05
-7.95450001542491e-06
-5.56312554021646e-06
-6.59074146142385e-06
-2.9694740559271e-06
-5.91348964786713e-06
-1.49286458762613e-06
-5.74838399147879e-06
-3.28519020440809e-07
-5.90025953336345e-06
3.31504749212315e-07
-6.30985363651191e-06
9.14124739805087e-07
-6.9679520329912e-06
1.46217935450031e-06
-7.83112842068892e-06
1.9188071636605e-06
-8.87312469747105e-06
2.3180766049206e-06
-1.00466907972198e-05
2.61416294203056e-06
-1.12735573125719e-05
2.73260066114259e-06
-1.24260587593181e-05
2.5551159518592e-06
-1.33160429123547e-05
1.93573172513372e-06
-1.37154792787609e-05
7.62176587746734e-07
-1.34595072709589e-05
-8.08033873367498e-07
-1.23964427473793e-05
-2.7587515086364e-06
-1.03640361641332e-05
-5.11847348907463e-06
-7.23476934423205e-06
-7.79467820608751e-06
-2.95814826520974e-06
-1.0578599942239e-05
2.38312346732384e-06
-1.31043714494032e-05
8.51533622638672e-06
-1.48654053996987e-05
1.49841745714828e-05
-1.53921186471215e-05
2.1099589969144e-05
-1.40959132370608e-05
2.59363242984996e-05
-1.05160988075876e-05
2.86421237303441e-05
-5.18852196548181e-06
2.89742453902289e-05
2.26679649080804e-07
2.77589408500248e-05
2.93538073227438e-06
2.55380833428062e-05
4.47651087839311e-06
2.34489356448811e-05
3.59230648883833e-06
2.08622682380354e-05
4.31766566269755e-06
1.7148436130961e-05
6.31233752270416e-06
1.15507100854718e-05
1.01583895797295e-05
3.66654956368191e-06
1.48766337181073e-05
-6.77230498186535e-06
2.03573628136849e-05
-1.97721471774097e-05
2.60755363016943e-05
-3.50507527622553e-05
3.14691690864573e-05
-5.20853917917734e-05
3.59590425362879e-05
-7.02257895111906e-05
3.91769081485296e-05
-8.8823880300879e-05
4.1008541902711e-05
-0.000107330944379775
4.15706545863651e-05
-0.00012534595929073
4.11217885466404e-05
-0.000142618911550366
3.99689923061169e-05
-0.000159027539937655
3.83988439112527e-05
-0.000174544392476465
3.66432895448581e-05
-0.000189205331057113
3.48713961795795e-05
-0.00020308434743795
3.31962959766126e-05
-0.000216275556895157
3.16875892866401e-05
-0.000228881323753097
3.03839728387695e-05
-0.000241004920944931
2.93035991569175e-05
-0.000252746232276461
2.84516652120563e-05
-0.000264199330759492
2.78254896206158e-05
-0.000275451104253189
2.74176410428609e-05
-0.00028658037193689
2.72176531752819e-05
-0.000297657133063767
2.72127672550299e-05
-0.000308741722936018
2.73880207196501e-05
-0.000319883737854509
2.77259005302281e-05
-0.000331120647467991
2.8205707653855e-05
-0.000342476048362083
2.88027255515323e-05
-0.000353957536103352
2.94872479628598e-05
-0.000365554185539873
3.02234915429543e-05
-0.00037723363646461
3.09683995053004e-05
-0.000388938774572328
3.16702988384107e-05
-0.000400583978501268
3.22673327082276e-05
-0.000412050860488818
3.26855081319585e-05
-0.000423183353953051
3.28360861446318e-05
-0.000433781900798081
3.26118960588666e-05
-0.000443596330112848
3.18818572338958e-05
-0.000452316711952024
3.04825795442617e-05
-0.000459561179251491
2.82057246598627e-05
-0.000464859539161022
2.47784807468043e-05
-0.000467629347784308
1.98289187685814e-05
-0.000467137166032485
1.28264660547241e-05
-0.000462452346813809
3.01085423525856e-06
-0.000452432981564191
-1.0723898387162e-05
-0.000435517568884263
-3.04785042079571e-05
-0.000409296228374321
-5.98787186905916e-05
-0.000370619781109671
-0.000102697031733756
-0.000316226240251234
-0.000170837017088826
-0.000249891571227482
-0.000235887975440794
-0.000205557557437331
-0.000138335469487438
-0.000181303850930597
-6.58612067725757e-05
-0.000169948332677136
-2.71559909930996e-05
-0.000166812106206601
-4.09357753148244e-06
-0.000168031158589863
7.69932827771436e-06
-0.000171209957904201
1.29629629896356e-05
-0.000175229595449064
1.59622230663269e-05
-0.000178762837119068
1.56145312373133e-05
-0.000180396250327073
1.10821527352979e-05
-0.000179565720532784
4.71867796040359e-06
-0.000176234233748378
-1.9681228171811e-06
-0.000170532529028547
-8.37959290453127e-06
-0.000162544733845822
-1.45069656120835e-05
-0.000152060374746401
-2.13860582035234e-05
-0.000139039869375083
-2.87074837689023e-05
-0.000124212590026004
-3.39673331836581e-05
-0.000108347359259643
-3.7039455221005e-05
-9.20649310939412e-05
-3.83702058173934e-05
-7.58921509041043e-05
-3.82672762099655e-05
-6.02623789837255e-05
-3.6997650460042e-05
-4.55101566719149e-05
-3.48610808188007e-05
-3.19005356932099e-05
-3.19721661243772e-05
-1.92500076041789e-05
-2.94239915361898e-05
-6.91295549089849e-06
-2.86551873464232e-05
5.7465603974631e-06
-2.91714447217296e-05
1.99534575268275e-05
-3.30026039782956e-05
3.73712169991453e-05
-4.02580913004026e-05
6.27744071724563e-05
-6.03315902040949e-05
0.00010295019092723
-9.79526065769938e-05
0.000164684351070176
-0.000158546915943421
0.000215386693769102
-0.000121153877877699
0.000205133427947272
4.821477838139e-05
0.000143129901009142
0.000171540607607312
8.55577558023329e-05
0.00013520589892667
2.07727131941435e-05
0.000105902694908021
7.72854509037184e-05
3.05334851322732e-05
0.000212041803328376
-2.17429947056154e-05
0.000126961587663311
-2.92167485243784e-05
8.32600560723238e-06
-2.0578878202267e-05
-2.66620792737402e-05
-1.41100993412855e-05
-1.76141624790272e-05
-1.07788390160523e-05
-8.89438571597589e-06
-8.93911052317948e-06
-4.80920247653435e-06
-8.01737471237583e-06
-2.41460032826979e-06
-7.77732800178832e-06
-5.68565629729348e-07
-7.97546106558495e-06
5.29637940134618e-07
-8.51801277329778e-06
1.45667658054615e-06
-9.39086028345683e-06
2.3350269870706e-06
-1.05372005640171e-05
3.06514754890884e-06
-1.1919644820304e-05
3.70052095089508e-06
-1.34748806421709e-05
4.16939884520586e-06
-1.51010705667815e-05
4.35879066312545e-06
-1.66363020163527e-05
4.09034747458491e-06
-1.78475521064004e-05
3.1469818798677e-06
-1.84592527061172e-05
1.3738772369354e-06
-1.82749583501613e-05
-9.92328203978218e-07
-1.71216076196006e-05
-3.9121022518727e-06
-1.48166669658838e-05
-7.42341421779084e-06
-1.12167370103473e-05
-1.13946083385048e-05
-6.26204258744491e-06
-1.55332947047099e-05
-3.17265748757651e-08
-1.93346880501693e-05
7.19174229107297e-06
-2.2088875197755e-05
1.49415496071822e-05
-2.31419273232365e-05
2.25021381957749e-05
-2.16565036564015e-05
2.88357186229225e-05
-1.68496815158442e-05
3.28238182846166e-05
-9.17662427216955e-06
3.38693113877833e-05
-8.1881633235191e-07
3.25485560238391e-05
4.25613312414467e-06
2.93399084618375e-05
7.68515549687522e-06
2.58267962142925e-05
7.10541585007279e-06
2.12519224395126e-05
8.89253678434202e-06
1.48089957409693e-05
1.27552617654966e-05
5.606402604231e-06
1.93609804504347e-05
-6.8151092702965e-06
2.72981435155819e-05
-2.2630124082034e-05
3.61723757487201e-05
-4.16001392097834e-05
4.50455497284837e-05
-6.30950531586502e-05
5.29640814431891e-05
-8.62339453834977e-05
5.90979331928279e-05
-0.000110073026543164
6.30159876789863e-05
-0.000133780668841991
6.47161824341154e-05
-0.000156736596624311
6.45265803984108e-05
-0.000178554235381533
6.29394250830074e-05
-0.000199049475799355
6.04642302246013e-05
-0.000218187670999902
5.75370363264372e-05
-0.000236030806998511
5.44864224821085e-05
-0.000252695336906136
5.15359227718271e-05
-0.000268322761431569
4.88237169600618e-05
-0.000283061058693112
4.64258828072e-05
-0.000297053943238786
4.43768534694904e-05
-0.00031043519906197
4.26848509131731e-05
-0.000323326017253721
4.13424792048599e-05
-0.00033583394182063
4.03334098758853e-05
-0.000348052544768383
3.96362395862948e-05
-0.000360061307075264
3.92264110067432e-05
-0.000371925411727493
3.90768673843874e-05
-0.000383695297120748
3.91579015682654e-05
-0.00039540590546736
3.94365043376933e-05
-0.000407075614615317
3.98754122962116e-05
-0.000418704874053337
4.04319805453865e-05
-0.00043027458633927
4.10569558928592e-05
-0.000441744284123872
4.16931850849951e-05
-0.000453050154319112
4.22742655947139e-05
-0.000464102945816432
4.27230863883248e-05
-0.000474785767443573
4.29501505663118e-05
-0.00048495172942158
4.2851466537126e-05
-0.000494421300378693
4.23056537407171e-05
-0.000502979148672976
4.11697412173661e-05
-0.000510370096002282
3.92728016641367e-05
-0.000516293582014154
3.64060629031741e-05
-0.000520395805776105
3.23079460220213e-05
-0.00052225863111545
2.66413039445157e-05
-0.0005213837417918
1.89540275653554e-05
-0.000517170449821769
8.61317247047753e-06
-0.000508891969702401
-5.2676272282356e-06
-0.000495628558295927
-2.39873108596085e-05
-0.000476162293438402
-4.99447698506937e-05
-0.000448774321800015
-8.72666908302107e-05
-0.000411112979730132
-0.000140358373998957
-0.000361465243990613
-0.000220484752710232
-0.000304915058386771
-0.000292438160566059
-0.000266575289001458
-0.000176675237853601
-0.000244584789430328
-8.78517048577655e-05
-0.000233466651617397
-3.82741270245856e-05
-0.000229217178455729
-8.34304879594016e-06
-0.000228533045655072
7.01519738152025e-06
-0.000229309771218211
1.37396904239905e-05
-0.000230452820286861
1.7105273991974e-05
-0.000230718365225594
1.58800780839419e-05
-0.000228893229366261
9.25701890891372e-06
-0.000224551786115881
3.77236918241353e-07
-0.000217722848026683
-8.79705851107357e-06
-0.000208547671159906
-1.75547672132415e-05
-0.000197085952474516
-2.5968681606901e-05
-0.000183173168493699
-3.5298839398813e-05
-0.000166846950054332
-4.5033699374395e-05
-0.000148799720347964
-5.20145600539536e-05
-0.000129744701259108
-5.60944715153222e-05
-0.000110275915188531
-5.78389891794073e-05
-9.09188573203588e-05
-5.76243314978839e-05
-7.21189165158869e-05
-5.57975888504677e-05
-5.42348993264414e-05
-5.27450957856132e-05
-3.75355437803698e-05
-4.86715196487161e-05
-2.17914199022945e-05
-4.51681136078432e-05
-6.31006238844672e-06
-4.41365432828903e-05
9.68704226963043e-06
-4.51685479892835e-05
2.75958069918085e-05
-5.09113674550344e-05
4.94668136223509e-05
-6.21290968960566e-05
8.05274852289295e-05
-9.13922610549307e-05
0.000127643467303849
-0.000145068588288308
0.000196489235758801
-0.000227392683144516
0.000255911251242688
-0.000180575889824681
0.000254651745460554
4.94742783479976e-05
0.000193781888658335
0.000232410448371471
0.000130783106643894
0.000175312581962484
3.91851317522505e-05
0.000139592066711517
0.000113005972439771
4.91632643890288e-05
0.000302470611071583
-2.0570718839759e-05
0.000196695574681911
-3.51903569571844e-05
2.29456442582021e-05
-2.59835052869396e-05
-3.58689307012547e-05
-1.80738599796928e-05
-2.55238075458896e-05
-1.38664449817747e-05
-1.31018005545212e-05
-1.15182434289654e-05
-7.15740394784397e-06
-1.03265953947878e-05
-3.60624827803117e-06
-9.99984904627992e-06
-8.95311860851298e-07
-1.02444388816443e-05
7.74227918844027e-07
-1.0928513443198e-05
2.14075129122188e-06
-1.2028919819844e-05
3.43543350139783e-06
-1.34757021794505e-05
4.51193002739848e-06
-1.52182450848615e-05
5.44306395923931e-06
-1.71758865418237e-05
6.12704039610593e-06
-1.92226356416575e-05
6.4055398525426e-06
-2.11636647286302e-05
6.03137664635985e-06
-2.27263749506298e-05
4.70969217715601e-06
-2.35965241130694e-05
2.24402645774031e-06
-2.35555021212928e-05
-1.03335016371928e-06
-2.2420337981944e-05
-5.0472663991794e-06
-2.00017447881653e-05
-9.84200748290745e-06
-1.61525762060704e-05
-1.52437770931197e-05
-1.0811146176531e-05
-2.08747250666864e-05
-4.05225108017901e-06
-2.60935837227987e-05
3.85266866798917e-06
-2.99937958688007e-05
1.24664238491657e-05
-3.17556838653707e-05
2.11214297834992e-05
-3.03115114508606e-05
2.87706293948546e-05
-2.44988834783104e-05
3.41038892802628e-05
-1.45098869189303e-05
3.61124282746566e-05
-2.82735835088697e-06
3.48832873605189e-05
5.48527090854813e-06
3.05233817760863e-05
1.20450579737141e-05
2.50694803329298e-05
1.25593142679355e-05
1.77155109600498e-05
1.62465033992359e-05
7.5579845730014e-06
2.29127856150223e-05
-6.31240495621048e-06
3.32313676584832e-05
-2.42739542762897e-05
4.52596907671937e-05
-4.62030702930185e-05
5.81014899580263e-05
-7.14213471932407e-05
7.02638250345926e-05
-9.88239721125475e-05
8.03667049054626e-05
-0.000127147388839048
8.74213485170132e-05
-0.000155233499591755
9.11020970035014e-05
-0.000182211633499843
9.1694314816574e-05
-0.000207552611774774
8.98675569927715e-05
-0.000231028144861608
8.64149562944659e-05
-0.000252626814613753
8.20628978859471e-05
-0.000272469043929226
7.73792633333704e-05
-0.00029074104114445
7.27584171832082e-05
-0.000307651374830175
6.84462537588141e-05
-0.000323405927285101
6.45782665557785e-05
-0.000338195276434173
6.12152289598655e-05
-0.000352189486346336
5.83710602685678e-05
-0.000365536856509664
5.60322178644602e-05
-0.000378364510080233
5.4170129480284e-05
-0.000390779626839639
5.27485232722018e-05
-0.000402870697111368
5.17273064424611e-05
-0.000414708504560419
5.10642150042602e-05
-0.000426346728596959
5.07150879512624e-05
-0.000437822154791776
5.06333242944177e-05
-0.00044915453121892
5.07688773172323e-05
-0.000460346132951175
5.10670106223611e-05
-0.000471381105778113
5.14669500278888e-05
-0.000482224658746053
5.19005055973138e-05
-0.000492822164273024
5.22906874474472e-05
-0.00050309820515253
5.25503034253839e-05
-0.000512955574658956
5.25804529771121e-05
-0.000522274191098922
5.22687642340866e-05
-0.000530909827867145
5.1487100691304e-05
-0.000538692483026804
5.00883064553825e-05
-0.000545424123907998
4.79013798316865e-05
-0.000550875440957448
4.47241166321567e-05
-0.000554781108339057
4.0311728394344e-05
-0.000556832890379726
3.43597263668695e-05
-0.000556669942151313
2.64783542168012e-05
-0.000553865930686198
1.61500147980996e-05
-0.000547912184745066
2.65942542462447e-06
-0.000538184595586912
-1.49952172912883e-05
-0.000523880477401655
-3.82914297503875e-05
-0.000504001977063945
-6.98232707018973e-05
-0.000477282249618961
-0.000113986418600636
-0.000441955825408665
-0.000175684798337037
-0.000397185308026221