/*--------------------------------*- C++ -*----------------------------------*\
  =========                 |
  \\      /  F ield         | OpenFOAM: The Open Source CFD Toolbox
   \\    /   O peration     | Website:  https://openfoam.org
    \\  /    A nd           | Version:  7
     \\/     M anipulation  |
\*---------------------------------------------------------------------------*/
FoamFile
{
    version     2.0;
    format      ascii;
    class       volSymmTensorField;
    location    "20000";
    object      tauij_B_bouss;
}
// * * * * * * * * * * * * * * * * * * * * * * * * * * * * * * * * * * * * * //

dimensions      [0 2 -2 0 0 0 0];

internalField   nonuniform List<symmTensor> 
15600
(
(1.72233276620116e-06 -4.7684068397489e-09 -2.68817537481407e-29 1.72237583849953e-06 -6.85720703760719e-31 1.72235660466043e-06)
(1.2902791289241e-06 -3.98799892433947e-09 1.56032681339307e-27 1.29118352772474e-06 -6.45629285050415e-28 1.29072874911371e-06)
(5.31497946180334e-07 -5.6882933020211e-10 -5.38664525310398e-29 5.32100163956905e-07 -2.21465117475058e-28 5.31798951123801e-07)
(1.30367431080279e-07 5.6828559261489e-11 1.9059806937059e-30 1.30146061519339e-07 2.5169874773166e-31 1.30254548102351e-07)
(2.39253184368058e-08 1.51865840570433e-12 8.05506464851648e-30 2.38784981100166e-08 3.73713522745717e-31 2.39017485405146e-08)
(2.39846458057017e-08 -2.5555719380907e-12 -3.24841385370508e-29 2.39549194302655e-08 -9.04667003761699e-29 2.39696520217296e-08)
(1.17107414847759e-08 -1.34273530629033e-12 1.02419161478531e-30 1.17023734901719e-08 -7.035757995914e-32 1.17065305771778e-08)
(2.56620951859109e-09 -2.79943885361855e-13 -9.91946818709773e-30 2.56487680185268e-09 -7.76054338406903e-30 2.56553847590547e-09)
(8.97198349579214e-10 -8.65786981086623e-14 -4.93188482951316e-30 8.96843006860305e-10 -1.66382353251198e-30 8.97019831768375e-10)
(7.35384621560773e-10 -6.68529968028271e-14 1.43293677688643e-29 7.35132348044649e-10 8.6099144646634e-30 7.35257894332967e-10)
(7.36555777578765e-10 -6.50044006603387e-14 7.31621286224105e-31 7.36321252129392e-10 -3.95395373495092e-31 7.36438203130654e-10)
(8.51221869793872e-10 -7.70420039717256e-14 1.78547792781972e-30 8.50945722516415e-10 -1.4473673315639e-31 8.51083479461721e-10)
(1.06225292720557e-09 -9.90747638421074e-14 1.1540226732022e-29 1.06188960843514e-09 4.00981319266258e-30 1.06207113779911e-09)
(1.38211822214918e-09 -1.38281920515189e-13 4.68795983087031e-29 1.38159363171999e-09 2.96109925783281e-29 1.38185591992635e-09)
(1.84672395350127e-09 -2.01938922567429e-13 -6.31788715712459e-30 1.84593241558781e-09 4.608633057447e-31 1.84632845359291e-09)
(2.49824842515427e-09 -3.02981474523238e-13 3.10029580983454e-31 2.49702345081617e-09 1.76690508313586e-31 2.49763655694878e-09)
(3.39874290074119e-09 -4.5895230680235e-13 -9.57335170920578e-30 3.39683348383496e-09 1.0346241668103e-30 3.39778931088947e-09)
(4.62310069559712e-09 -6.9274124552855e-13 -3.48485914949022e-28 4.62014324280064e-09 -2.22689680063355e-28 4.62162365705331e-09)
(6.25559767095061e-09 -1.02670627329644e-12 2.13945008029972e-29 6.25111392116005e-09 -1.97088837601436e-30 6.25335803691458e-09)
(8.37638002137686e-09 -1.47089341731408e-12 -4.65899972446403e-28 8.36982908789461e-09 -3.02701739685617e-28 8.37310737166014e-09)
(1.10507092154393e-08 -1.99170228305199e-12 -1.41276210767596e-30 1.10416727089866e-08 -1.19158657173459e-30 1.10461946972975e-08)
(1.4416470224542e-08 -2.49200368715144e-12 -1.04746573518126e-27 1.44047824929051e-08 -6.25648123685201e-28 1.44106345595807e-08)
(1.86780150604847e-08 -2.81282631949707e-12 4.4005798129274e-28 1.86639907346689e-08 3.30794867779941e-28 1.86710237106608e-08)
(2.3709021745524e-08 -2.66621391985008e-12 -1.96490516790404e-27 2.36942807292267e-08 -1.33547220361234e-27 2.37017012003543e-08)
(2.93226722209332e-08 -1.7751603711819e-12 -2.26816967785526e-27 2.93107395763636e-08 -1.17530167852381e-27 2.93168130041413e-08)
(3.51008365722258e-08 -7.5955163814375e-14 -4.4527896861971e-27 3.50975496835709e-08 -3.5843876300807e-27 3.50993962331888e-08)
(4.03340025002666e-08 1.91476779880837e-12 -4.03141632430101e-27 4.03469449919649e-08 -3.59969306874779e-27 4.03408133677427e-08)
(4.40159679913259e-08 2.77150709429545e-12 1.12093738291018e-27 4.40520327799893e-08 1.57139965877217e-27 4.40344973831618e-08)
(4.49103400292671e-08 6.05596345102019e-13 2.53963816776932e-27 4.49710589964002e-08 1.7297258769327e-27 4.4941322296301e-08)
(4.19483371709183e-08 -5.20796453206107e-12 6.10269005445223e-28 4.20250882942631e-08 -2.06762365278782e-28 4.19873698014994e-08)
(3.52784920295215e-08 -1.25146362140807e-11 4.22752492946293e-27 3.53530384843439e-08 6.9814207393944e-27 3.53163502301426e-08)
(2.68996797748826e-08 -1.7369656810706e-11 -3.15641438843412e-27 2.69554198234721e-08 -4.24386972170273e-27 2.69279768550628e-08)
(1.9387627142481e-08 -1.77135324823997e-11 9.42187624189704e-28 1.94192290246197e-08 1.63715206463486e-27 1.94037155747141e-08)
(1.4646240792168e-08 -1.59634831434616e-11 -2.16194931808405e-25 1.46595847725193e-08 -1.03370556597628e-24 1.46530752844792e-08)
(1.23643379330455e-08 -1.38196618386161e-11 -3.19803048305764e-26 1.23659077698024e-08 -9.50539452391493e-25 1.23652286724449e-08)
(1.33423198028263e-08 -1.42734049638847e-11 -2.35731771171997e-29 1.33421209981621e-08 3.4650069161248e-30 1.33422989216622e-08)
(1.67319993381053e-08 -1.75380377290231e-11 4.58978338186883e-43 1.67317690969212e-08 4.29493265179429e-29 1.6731985856929e-08)
(2.20178857070352e-08 -2.23268607330296e-11 1.12605789142865e-25 2.20175358558565e-08 -1.45652209362784e-26 2.20178199483116e-08)
(2.9086342600225e-08 -2.76318512549111e-11 1.38881062966345e-25 2.90855704016669e-08 -2.08406764874309e-24 2.90861003112867e-08)
(3.88992684002513e-08 -3.20725029747052e-11 -2.17535171233185e-25 3.88976777682241e-08 -2.7004956974776e-24 3.88986390234548e-08)
(5.2381552327821e-08 -3.30943301515118e-11 -2.78415008518257e-25 5.23784318480707e-08 3.28085751035083e-26 5.23802062300389e-08)
(7.04478912687307e-08 -2.49384434137378e-11 2.450128321774e-43 7.04421378381675e-08 -9.36950476283157e-29 7.04452839044252e-08)
(9.38903176312716e-08 1.16843407826337e-12 1.09450153094591e-29 9.38804083003532e-08 -1.26626048351141e-28 9.38857228681753e-08)
(1.23413910360226e-07 5.7575719618505e-11 3.07464923652515e-31 1.23398023219638e-07 2.76034744917031e-28 1.234064505144e-07)
(1.59490606127337e-07 1.58817176187287e-10 8.38812313609354e-25 1.59466855613388e-07 -7.39775293732372e-26 1.59479388971328e-07)
(2.02210726705487e-07 3.20045807670075e-10 1.2679641478769e-24 2.02177466339555e-07 -2.43846511959315e-23 2.02194976987517e-07)
(2.51313150991032e-07 5.54570296851508e-10 -1.00155578434431e-24 2.51269234123684e-07 -2.96141723595524e-23 2.51292343123733e-07)
(3.06269779307938e-07 8.72304433384239e-10 -1.64278647286374e-24 3.06214676920129e-07 1.249000783942e-25 3.06243683586566e-07)
(3.6639592915711e-07 1.27900894179884e-09 4.89361348059413e-29 3.66329694991023e-07 7.85819999519305e-28 3.66364593891429e-07)
(4.30963497257129e-07 1.7766768579137e-09 -7.47809995734765e-29 4.30886618496409e-07 4.68975794590021e-30 4.30927170930001e-07)
(4.9928931181669e-07 2.3645044484184e-09 2.13993353775836e-29 4.99202516326565e-07 -2.28066441593405e-28 4.99248348680055e-07)
(5.70792161416204e-07 3.04013381213569e-09 4.15508502369112e-29 5.70696235130504e-07 2.56525760885869e-28 5.70746931408777e-07)
(6.45019798148605e-07 3.80078597722364e-09 3.28247969391477e-31 6.44915442110674e-07 2.05497258659899e-31 6.449706178964e-07)
(7.21655473854189e-07 4.64417248594867e-09 -2.72042279268496e-29 7.21543205759536e-07 -1.03418372683995e-28 7.21602559308934e-07)
(8.00512539577188e-07 5.56914834017817e-09 -6.29815616685089e-29 8.00392632129188e-07 -1.25798464951992e-28 8.00455977062592e-07)
(8.81524689055924e-07 6.57616847465042e-09 5.12309276406403e-29 8.81397132960684e-07 5.23975188869078e-28 8.81464418146301e-07)
(9.64735965188951e-07 7.66761120812145e-09 -1.43247020099972e-29 9.64600445827094e-07 -2.85666798455828e-28 9.64671768096282e-07)
(1.05029336103469e-06 8.84803826486186e-09 8.48065176720017e-30 1.05014924070318e-06 -1.22382160783653e-28 1.0502248542644e-06)
(1.13844254486062e-06 1.0124436047227e-08 2.45784070578498e-29 1.1382888456211e-06 1.31965391488915e-28 1.13836917059573e-06)
(1.22952737274028e-06 1.15064767278844e-08 6.79286614249642e-24 1.22936275726233e-06 1.07104320336386e-31 1.22944838846014e-06)
(1.32399257187356e-06 1.30068180983833e-08 1.48359193343345e-23 1.32381532141909e-06 -1.46292865645518e-23 1.32390703757698e-06)
(1.42238978726808e-06 1.46414621362567e-08 5.48301993364398e-25 1.42219777701749e-06 -1.56499451309316e-23 1.42229655011453e-06)
(1.52538646317244e-06 1.64301811957059e-08 -8.4817321309294e-24 1.52517713595629e-06 -9.94623470779563e-26 1.5252841397088e-06)
(1.63377779758597e-06 1.83970251864362e-08 2.49309017650248e-29 1.6335481377326e-06 -9.77290528324538e-28 1.63366475393327e-06)
(1.74850186134787e-06 2.05709198878088e-08 -8.03490344450421e-40 1.74824837112496e-06 1.04928698270775e-27 1.74837619196965e-06)
(1.87065849779006e-06 2.2986370594656e-08 -1.05347419871249e-39 1.87037717998491e-06 -5.59411776259732e-28 1.87051800380014e-06)
(2.00153294132126e-06 2.56842870895938e-08 1.30264163941011e-28 2.00121929307662e-06 5.36128598558308e-30 2.00137510981482e-06)
(2.14262560895785e-06 2.87129495440539e-08 -4.48031437210061e-29 2.1422746342641e-06 1.08623520577731e-27 2.14244759566606e-06)
(2.29569046091965e-06 3.21291424460583e-08 -2.5037318939428e-28 2.29529671281172e-06 -1.17443245925284e-27 2.29548907985332e-06)
(2.46278520095979e-06 3.59994873337889e-08 1.59811639208469e-28 2.46234287025703e-06 8.45662150907444e-30 2.46255692704836e-06)
(2.6463384680189e-06 4.04020164433732e-08 -0 2.6458415447386e-06 -0 2.64607946255006e-06)
(2.84924123315584e-06 4.54280332304429e-08 -1.82822855327916e-23 2.84868378202685e-06 -1.28632567079972e-24 2.84894740833463e-06)
(3.07497389525137e-06 5.11843174259985e-08 -4.92576685377792e-23 3.07435051682713e-06 1.85198447514851e-23 3.07464104877915e-06)
(3.32778660375796e-06 5.77957063901815e-08 -1.1666044462356e-23 3.3270932077683e-06 2.95199540633644e-23 3.32741067968151e-06)
(3.61296101474469e-06 6.54080798229752e-08 2.31570133572853e-23 3.61219609441305e-06 1.90625198665192e-24 3.61253856763022e-06)
(3.93720380389775e-06 7.41919185909423e-08 2.64916811453252e-29 3.93637056214613e-06 1.29427479597034e-28 3.93673283632962e-06)
(4.30927704896956e-06 8.43464500193923e-08 2.97045871319082e-29 4.30838734690821e-06 5.97791550848818e-27 4.30875876130487e-06)
(4.74106418323091e-06 9.6103754361789e-08 -7.45721413361103e-28 4.74014554773395e-06 -6.2242236983033e-27 4.74050610389978e-06)
(5.24952336858357e-06 1.09739244474811e-07 -4.06479171049089e-23 5.24862910036412e-06 -4.54729010243197e-24 5.24894338107495e-06)
(5.86113586020868e-06 1.25613928022974e-07 -1.18501352789787e-22 5.86036885893197e-06 1.86571490514429e-23 5.86057472293511e-06)
(6.62442375491168e-06 1.44279071133453e-07 -3.08602945327477e-23 6.62401283888874e-06 6.09464355184286e-23 6.62398865721938e-06)
(7.64734251178249e-06 1.6688178343917e-07 5.97115068722969e-23 7.64775280976279e-06 7.34817930522634e-24 7.6472396191774e-06)
(9.02004068772687e-06 1.93027521095785e-07 -3.69361747020185e-27 9.02209462380166e-06 -1.8770067458361e-27 9.0205972208497e-06)
(1.06766676586126e-05 2.16239502450576e-07 1.43511964283224e-27 1.06827456408234e-05 2.19930492242616e-27 1.06793132739893e-05)
(1.26592042656752e-05 2.20089552091537e-07 1.44797352025966e-26 1.2676802055631e-05 -4.88121324019606e-27 1.26677972540625e-05)
(1.253860908174e-05 1.47573706937261e-07 -5.03558618685858e-23 1.25844159104908e-05 1.52826806638187e-21 1.2560284915899e-05)
(5.82936701297123e-06 3.48231836062672e-08 -1.56082455435464e-22 5.86621736976872e-06 7.53512701705176e-22 5.84812496230215e-06)
(3.1672018300844e-06 1.14478241768907e-08 -4.04768632132441e-25 3.18978675324902e-06 1.4031511143763e-24 3.17846045484504e-06)
(2.1147077592081e-06 4.51837702887321e-09 -1.14189571504468e-25 2.1300970401711e-06 -1.88889799639101e-26 2.12235880265624e-06)
(1.65266483369536e-06 2.10560890386856e-09 7.2892057625391e-26 1.66541826846136e-06 8.19293961337158e-27 1.65898992355871e-06)
(1.51115245661455e-06 9.17228452659516e-10 -6.97595171539844e-25 1.52373884574569e-06 8.69137365837584e-25 1.51739763867613e-06)
(1.49117000008352e-06 1.44977320933105e-11 -2.81892979323389e-25 1.504606468123e-06 3.00818223679655e-25 1.4978428552121e-06)
(1.53335433036229e-06 -8.5011362277132e-10 -3.65355267809718e-25 1.54822745007215e-06 2.30952513348531e-25 1.54075446255723e-06)
(1.63215485895142e-06 -1.75707080403924e-09 -1.56728130062463e-25 1.64915720521094e-06 5.28668593240997e-26 1.64063519704518e-06)
(1.77794908899305e-06 -2.72505386865899e-09 4.8987575536695e-25 1.79758463362486e-06 -2.29612601353784e-25 1.78776670251278e-06)
(1.94949995737537e-06 -3.7091842161066e-09 2.26313410578353e-25 1.97185548432122e-06 -1.19337339168645e-25 1.96070339188005e-06)
(2.13648825651329e-06 -4.64421562560247e-09 -1.46454649202682e-23 2.161416590995e-06 -2.11792618861886e-24 2.14900686786281e-06)
(2.33315856466608e-06 -5.46588022325818e-09 -6.34159100369777e-23 2.36035614034093e-06 7.49241822354223e-24 2.34684125360894e-06)
(2.52989605036487e-06 -6.10622401098155e-09 -5.33040225744303e-23 2.55889324452774e-06 2.20286888098655e-23 2.54450820731524e-06)
(2.71672712227774e-06 -6.4949537179054e-09 1.33791376669648e-23 2.74682832066862e-06 1.84419986149166e-24 2.73191726920103e-06)
(2.86286767010779e-06 -6.53861956849591e-09 6.02950737365378e-26 2.89277297426482e-06 8.55969006951279e-27 2.87797403613511e-06)
(2.9176233032547e-06 -6.19193801970223e-09 -6.36216321130279e-25 2.94545648619202e-06 4.31183294959092e-25 2.93169414457933e-06)
(2.88249896115668e-06 -5.55340460160367e-09 5.01836982937524e-25 2.9069027605404e-06 -2.72702110094378e-25 2.89484377058383e-06)
(2.77322632907164e-06 -4.73780865699932e-09 9.76263407296857e-26 2.79347808294592e-06 -3.75115352893271e-26 2.78347634053874e-06)
(2.60739106645307e-06 -3.85030269389141e-09 2.57644159344977e-25 2.62332919892801e-06 -1.88115975111721e-25 2.61546188526565e-06)
(2.40341540499417e-06 -2.97759264028419e-09 -9.00860988220275e-26 2.41530641220661e-06 3.15063745160208e-26 2.40944013779775e-06)
(2.18099145164996e-06 -2.18368737746432e-09 7.56102991303356e-28 2.18937702416035e-06 3.46369226272014e-28 2.18524286037286e-06)
(1.96166737692111e-06 -1.50905244193527e-09 2.79886163943273e-25 1.96722544707608e-06 -1.65929726043979e-25 1.96448779359267e-06)
(1.78784330292893e-06 -9.77203435282559e-10 -1.33990821310971e-25 1.79132413722282e-06 7.91948607668812e-26 1.78961283533981e-06)
(1.69184091599313e-06 -5.46154987966428e-10 -3.69429005033035e-26 1.69375837556517e-06 2.20275383622132e-26 1.69281774191317e-06)
(1.66136375604337e-06 -1.77669372633305e-10 6.37929116868085e-28 1.66195553569831e-06 1.01190844312242e-28 1.66166952237811e-06)
(1.72376064496585e-06 1.90645028724201e-10 -2.50207062480578e-26 1.72286629871541e-06 1.97485203830952e-26 1.72331110556832e-06)
(1.89902528496658e-06 5.75203328151412e-10 2.90245884850715e-26 1.89614429947943e-06 -2.27122300262389e-26 1.89757012751233e-06)
(2.38706330248541e-06 1.11310429761409e-09 -9.45471916159468e-26 2.37985549278e-06 6.68344377992746e-26 2.38340832329157e-06)
(3.48546882863129e-06 1.54153575229303e-09 1.24718492146178e-25 3.46668598787716e-06 -1.45607759485269e-25 3.47594641259814e-06)
(6.13487491724761e-06 -2.46034240754656e-09 2.100710329045e-26 6.07329632030516e-06 1.15058551606938e-25 6.10359892932734e-06)
(7.57118221129222e-06 -3.06019986193003e-08 -3.45677996085791e-26 7.45945913885131e-06 6.68737148520582e-26 7.5146172428327e-06)
(5.2850558577417e-06 -4.16584657309347e-08 -6.00578912277788e-26 5.23286760374728e-06 -7.95438272340991e-26 5.25872126387165e-06)
(2.97602247628191e-06 -1.68457987475309e-08 1.86160905315068e-27 2.97088782545771e-06 -8.81870709707406e-27 2.97346050285344e-06)
(1.97930044352455e-06 -5.42812281498877e-09 1.27200480340758e-31 1.97909441039953e-06 1.79756644270904e-30 1.97919199255184e-06)
(5.56592462833335e-05 -9.98320386001644e-07 2.41108282567301e-28 5.56661267060908e-05 -9.96270720819734e-30 5.56636569655685e-05)
(4.1684301511831e-05 -7.70349715342554e-07 3.18798064207742e-25 4.18314343055546e-05 8.57844370654698e-26 4.17567359236491e-05)
(1.73017443013191e-05 -1.44866375159184e-07 -5.16936937931847e-27 1.74233103001451e-05 -1.86477588403616e-26 1.736366644246e-05)
(4.39118550402098e-06 5.09245380382479e-09 1.24074454873056e-25 4.36007998203674e-06 2.07923478269922e-25 4.37585629837504e-06)
(8.25425409273088e-07 2.3893839813985e-10 -3.52337322193773e-26 8.16917026906516e-07 -3.4827563935315e-26 8.21211322499057e-07)
(7.90936358379889e-07 -4.24901744917012e-10 -6.93326070746808e-26 7.85538494212564e-07 -4.5661428941071e-26 7.88255449523643e-07)
(3.97099915655004e-07 -2.42000857036196e-10 -3.27076170633756e-28 3.95490503548815e-07 1.95082362059648e-29 3.96301101571681e-07)
(9.20490017685162e-08 -5.53152219161448e-11 -3.72675343076767e-27 9.17759964941931e-08 -2.1365667398899e-27 9.19132428878884e-08)
(3.1019826868152e-08 -1.67581863486941e-11 3.4397083922044e-27 3.09488159679459e-08 1.69096932557608e-27 3.09845082728139e-08)
(2.430130733763e-08 -1.25016740458546e-11 -5.59963945350275e-28 2.42530283233122e-08 -5.7200477403777e-28 2.42772524896458e-08)
(2.40833150596143e-08 -1.21386854976059e-11 -2.61450199701346e-27 2.4038718489786e-08 -1.44575092289256e-27 2.40610852291479e-08)
(2.76516531261636e-08 -1.43627819409583e-11 -2.60560596936754e-28 2.75994795562493e-08 2.45081973316101e-29 2.76256086069567e-08)
(3.43664158131664e-08 -1.84944211762881e-11 -1.08980464965332e-26 3.42978072244204e-08 -6.35096014027776e-27 3.4332138920922e-08)
(4.4582936097481e-08 -2.58380677270602e-11 -8.47980712566146e-27 4.44842250470148e-08 -5.72923554991088e-27 4.45335755692412e-08)
(5.94449967707672e-08 -3.77513764553281e-11 4.78431346167442e-29 5.92964097972158e-08 3.02520024678027e-29 5.93706566176588e-08)
(8.0301563721997e-08 -5.66034372907534e-11 -5.22750164230273e-29 8.00723534747337e-08 -3.39690795777479e-29 8.0186846812275e-08)
(1.09139024352145e-07 -8.55568911639215e-11 -2.72357238399515e-27 1.08782970821073e-07 3.51926250701182e-28 1.08960802378213e-07)
(1.48370846311825e-07 -1.28605580889982e-10 6.22832640711889e-26 1.47821381939645e-07 4.24261194642921e-26 1.48095823501236e-07)
(2.00730813651523e-07 -1.89366211990611e-10 -1.05899548075042e-27 1.99900360288409e-07 1.21406153924191e-29 2.0031519599315e-07)
(2.6884626396728e-07 -2.68633505978185e-10 8.25868307493242e-26 2.67634939348392e-07 5.92419539425589e-26 2.68240162592688e-07)
(3.54811716749356e-07 -3.58844201689688e-10 -2.0282707628202e-27 3.53136836398959e-07 2.49970699214908e-28 3.53973572280619e-07)
(4.62882372684642e-07 -4.40937862330018e-10 1.94077255382936e-25 4.60696519680195e-07 1.18985245547752e-25 4.61787861388226e-07)
(5.99956115352371e-07 -4.84280452006164e-10 4.37919793385963e-25 5.9727720214377e-07 2.91953020159477e-25 5.98612597835712e-07)
(7.62288411691816e-07 -4.33762499389655e-10 -6.36968327022639e-26 7.59335117310559e-07 7.04948425778664e-27 7.60802066495715e-07)
(9.44032065752179e-07 -2.34312075733782e-10 -1.09037839480618e-25 9.41321356971983e-07 -1.36319518230297e-25 9.4265605449602e-07)
(1.13209930286188e-06 1.33842152813788e-10 7.62208356541113e-25 1.13052477093828e-06 6.69109158521384e-25 1.13127302968092e-06)
(1.30412413844375e-06 5.89733392259714e-10 9.30167016429975e-25 1.30490358346192e-06 6.2323196190591e-25 1.30444903965623e-06)
(1.42794141783642e-06 8.88001691249188e-10 1.02250736148815e-24 1.43228730163109e-06 5.69357446856127e-25 1.43002105801546e-06)
(1.4632507866149e-06 6.71233531648962e-10 5.68323472615951e-25 1.47165859657281e-06 7.9328691293541e-25 1.46733899005722e-06)
(1.37390235244335e-06 -2.57843704016838e-10 3.31521961394105e-26 1.38531580894491e-06 1.30254278908936e-26 1.37948728926872e-06)
(1.16149091555058e-06 -1.60992278358076e-09 -1.87560422043477e-24 1.17315680122764e-06 -2.54867666517853e-24 1.16722068311088e-06)
(8.88288227164573e-07 -2.66292471562736e-09 -2.06790889450157e-25 8.97345170132926e-07 -4.00633001175723e-25 8.92740722105207e-07)
(6.38794800785287e-07 -2.90956801009437e-09 -3.35445149805944e-23 6.44051313048318e-07 7.2340818183094e-24 6.41378758791309e-07)
(4.79836426649529e-07 -2.66512370191717e-09 1.60203098343512e-23 4.82069723141515e-07 2.00712042380563e-22 4.80922560985716e-07)
(4.02751053058865e-07 -2.23626262997906e-09 3.18257979226975e-23 4.03005404145487e-07 1.62149972112965e-22 4.02862468873119e-07)
(4.33759145826874e-07 -2.19267520327922e-09 2.60111834770433e-23 4.33723544751855e-07 -3.8297940700063e-24 4.33723617997069e-07)
(5.44316616639251e-07 -2.55805210104621e-09 -1.08884150004031e-28 5.44262055593344e-07 2.2484652128892e-28 5.44272676284356e-07)
(7.16459483922215e-07 -3.02156833136284e-09 -6.24216967437699e-23 7.16309564946238e-07 8.07422160609299e-24 7.16361756835851e-07)
(9.46499058496562e-07 -3.30021010895337e-09 -7.57455800112991e-23 9.46078538675309e-07 6.17094293901062e-23 9.46265039304046e-07)
(1.26589680677651e-06 -2.97407157640886e-09 1.18028829280302e-22 1.26494515037443e-06 3.41403481977646e-23 1.26538939072395e-06)
(1.70456074877612e-06 -1.30096471223492e-09 1.49118704102593e-22 1.7026541496639e-06 -1.7534649085806e-23 1.70357060725501e-06)
(2.29208408600278e-06 3.0617856244825e-09 -4.67311346545936e-27 2.28858885762062e-06 -1.07313967601926e-28 2.2902893763566e-06)
(3.05403758889738e-06 1.19994172394396e-08 6.21801722993302e-27 3.04813766817637e-06 -1.4851980487341e-27 3.0510299859562e-06)
(4.01294342952615e-06 2.79246139468241e-08 4.34872337073378e-27 4.00371906870574e-06 9.74796288218776e-27 4.00825789417216e-06)
(5.18404103472449e-06 5.34707879002291e-08 -6.53149877892936e-22 5.17061088592567e-06 5.76037090490838e-23 5.17723279979571e-06)
(6.5699811736441e-06 9.11361859153662e-08 -1.00573048496766e-21 6.5516470572501e-06 2.0615754047672e-21 6.56069372603851e-06)
(8.16200825411888e-06 1.42895982957533e-07 7.2251447951328e-22 8.13836237962134e-06 2.14528054053462e-21 8.1500301536867e-06)
(9.94282895022085e-06 2.10010835077754e-07 1.24280155642851e-21 9.91377319171726e-06 -9.50792768251628e-23 9.92810273503664e-06)
(1.1890162640357e-05 2.93004907489225e-07 1.59648655889994e-26 1.18558584196217e-05 1.99520709538199e-26 1.18727619665722e-05)
(1.39804065086012e-05 3.91811882281361e-07 -1.35901808034965e-26 1.39411797856204e-05 8.78949448029633e-28 1.39604891011665e-05)
(1.61914752953622e-05 5.059878058568e-07 -5.69177854394675e-38 1.61477155333306e-05 4.17087901686095e-26 1.61692333409144e-05)
(1.8504623302808e-05 6.34931062814373e-07 -0 1.84566977028677e-05 -1.06110577617164e-25 1.8480240550903e-05)
(2.09052953541069e-05 7.78061239086855e-07 -9.80377763544247e-27 2.08534883009399e-05 6.54395227047119e-26 2.08789167511342e-05)
(2.33833220822775e-05 9.34948457491996e-07 -3.17004694195817e-27 2.33277977231977e-05 -1.35880029608205e-25 2.33550346548711e-05)
(2.59327347219049e-05 1.10539699873337e-06 2.85964964007082e-26 2.58735168434434e-05 1.4666477083026e-25 2.5902557126951e-05)
(2.85514438346349e-05 1.2894975080477e-06 -1.57186098871091e-27 2.8488406153625e-05 3.78813712320598e-27 2.85193211137877e-05)
(3.12409130022746e-05 1.48765976480787e-06 -2.10519704134191e-26 3.11737745714496e-05 -1.53007977797451e-27 3.12067140014641e-05)
(3.40059177889446e-05 1.70063716522417e-06 7.84501709611887e-27 3.39342398593779e-05 4.77473585101571e-26 3.39694334224734e-05)
(3.68544057942482e-05 1.92954884352446e-06 -0 3.67775881217054e-05 -5.1444464296288e-26 3.68153471920032e-05)
(3.97974787322149e-05 2.1759045921107e-06 -1.68271154652769e-21 3.97147543674148e-05 -0 3.9755474815622e-05)
(4.28494759483452e-05 2.44163386488338e-06 -3.18518385892711e-21 4.27599043361692e-05 -1.09912735903428e-20 4.28040703925258e-05)
(4.60281654094772e-05 2.72912079028221e-06 4.01063876552128e-22 4.59306240465166e-05 -1.18525161807672e-20 4.59788131691159e-05)
(4.93550246135144e-05 3.0412447551514e-06 2.09030478687106e-21 4.92481998750713e-05 2.46520228791149e-23 4.93010883912164e-05)
(5.28556188024665e-05 3.38142681063347e-06 -1.97228087299671e-26 5.27379968161801e-05 7.11601386097316e-26 5.27963659934104e-05)
(5.65600788445769e-05 3.75368121021122e-06 4.88939989711161e-26 5.64299376289118e-05 -7.42920915079497e-26 5.64946796955266e-05)
(6.05036979462165e-05 4.16267141691435e-06 -4.76706901943855e-26 6.03591025050938e-05 1.71352789377032e-25 6.04312259453428e-05)
(6.47276764411826e-05 4.61376967539699e-06 1.49972415220903e-26 6.45664792131442e-05 -1.84642488061747e-25 6.46471123659886e-05)
(6.92800600403904e-05 5.11311874050359e-06 1.60812372325596e-39 6.9099910168643e-05 1.48270040754957e-27 6.91903017063913e-05)
(7.42169467124118e-05 5.66769450076189e-06 1.16025276590475e-39 7.40153133167648e-05 1.10414527240649e-27 7.41168274290004e-05)
(7.9604064350605e-05 6.28536711503661e-06 -0 7.93782817551199e-05 -0 7.9492384633945e-05)
(8.55188804914706e-05 6.97495816237597e-06 8.29705606142413e-26 8.52662279289552e-05 5.36614850723246e-27 8.53944600586857e-05)
(9.20534685713821e-05 7.74628843569084e-06 4.03268157319228e-21 9.1771304814783e-05 2.85072790166483e-22 9.19152298996393e-05)
(9.93184878741216e-05 8.61020913952682e-06 9.73732979758461e-21 9.90044754350155e-05 2.95236436379538e-20 9.91655903596918e-05)
(0.000107448820910156 9.57860488032112e-06 1.40891454612437e-21 0.000107101298420813 3.11945794594821e-20 0.000107280876992754)
(0.000116611740407777 1.06643509251113e-05 -5.26006057921611e-21 0.000116230341938305 -4.32996053263773e-22 0.000116429164387739)
(0.000127019137534558 1.18811899006676e-05 1.32017025248516e-25 0.00012660584637193 -7.74155509647214e-25 0.000126823728987903)
(0.000138947036989891 1.32435416570778e-05 1.45594895619366e-25 0.000138508032638688 8.16990629176958e-25 0.000138742998456953)
(0.000152768584889953 1.47664395863927e-05 -4.76082751466284e-25 0.0001523174347105 -9.14983861039362e-26 0.000152564208111853)
(0.000169013917403029 1.64657895405441e-05 8.43188220929712e-21 0.00016857731844221 9.43117070517865e-22 0.000168824472190264)
(0.000188503907800838 1.83603699716245e-05 2.28394687846393e-20 0.000188134048535879 6.79346392303372e-20 0.000188358375900893)
(0.000212727294932569 2.04898262434981e-05 4.68638522730255e-21 0.000212528345479931 7.50963649724078e-20 0.000212682774132517)
(0.000245118160059789 2.30062612908246e-05 -1.32336422078129e-20 0.000245297761265054 -1.63399974642108e-21 0.000245281052268828)
(0.000286405137358178 2.56424293698798e-05 1.52521767851407e-24 0.00028740383227161 4.4067829385688e-24 0.000286994568105085)
(0.000333292920079056 2.74379574718746e-05 5.01235180077583e-25 0.000336129102516603 6.52295373492281e-24 0.000334888848421307)
(0.000379935756482112 2.73041986532725e-05 3.72798120100194e-20 0.000386647035037303 5.46636554060474e-21 0.00038351688593893)
(0.000360529795402482 2.10840665529985e-05 8.08784197825711e-20 0.000372458757032482 -1.68868516563433e-19 0.00036630474137288)
(0.000176651115985429 7.07602767890587e-06 1.47924890485915e-20 0.000185526460059903 -1.07172499418543e-19 0.000181151167634537)
(9.78443842161919e-05 2.6277509965946e-06 -9.66543897978499e-21 0.000103264420988984 -2.08992338994413e-21 0.000100565344622261)
(6.60746369978618e-05 1.14791420149984e-06 5.20563432553535e-25 6.98982580778579e-05 -1.34209169722326e-24 6.80028743552066e-05)
(5.21544468540031e-05 5.66467735474718e-07 1.77533011795554e-23 5.52775159005846e-05 4.86600088603532e-24 5.37288342292417e-05)
(4.79586851684097e-05 2.73264260237655e-07 1.35046967320046e-22 5.09345541011642e-05 -1.43811910544546e-22 4.94585596823823e-05)
(4.74826806466939e-05 6.16467625153696e-08 1.12333931042182e-22 5.05265843983804e-05 -1.21468681179672e-22 4.90147677611484e-05)
(4.89489338573769e-05 -1.25652907806957e-07 6.2466008457022e-23 5.21689329799348e-05 -4.36725975318443e-23 5.05674063963155e-05)
(5.2203528530493e-05 -3.07732207433105e-07 -5.92305272203437e-23 5.57107580862062e-05 4.42409452459662e-23 5.39628190080989e-05)
(5.69228296665447e-05 -4.91285611686584e-07 3.42601958487178e-23 6.07930528075669e-05 -6.06813101025005e-23 5.88594274746662e-05)
(6.24439159458363e-05 -6.70387592154587e-07 4.56036658482133e-23 6.66803728786372e-05 -4.11610267668142e-23 6.45586909902082e-05)
(6.84608873271873e-05 -8.35118682908701e-07 3.80386261822796e-21 7.30309191500158e-05 6.32920355129496e-22 7.07369249571568e-05)
(7.47920483679769e-05 -9.75977898142908e-07 -1.76146959999048e-20 7.96409455381388e-05 1.93619484744107e-20 7.72018311417937e-05)
(8.11069287761996e-05 -1.08248154075813e-06 -2.40346744800003e-20 8.61506466266291e-05 1.76736560508326e-20 8.36087889225525e-05)
(8.70125882498313e-05 -1.14416771565813e-06 -3.98170855974455e-21 9.21303787294581e-05 -5.73432160468035e-22 8.95467277357432e-05)
(9.15719661804164e-05 -1.14788363469545e-06 8.38670595900668e-24 9.65643977459057e-05 1.21385550652001e-24 9.40403343854062e-05)
(9.32682235116602e-05 -1.08579296874365e-06 1.11844107905885e-22 9.78575787354306e-05 -6.45464541416858e-23 9.5535120439801e-05)
(9.2187443320068e-05 -9.7401415447003e-07 -1.08339495505047e-22 9.61780644069176e-05 3.16118783005753e-23 9.41570094730282e-05)
(8.88039620558858e-05 -8.31994790006336e-07 4.8009999942486e-23 9.20969357736398e-05 -3.31267980082634e-23 9.04280895228528e-05)
(8.36442080941411e-05 -6.77426766786119e-07 -4.67306975275177e-23 8.62250508870419e-05 2.5655021992934e-23 8.49162680694598e-05)
(7.72716715576928e-05 -5.2508172124948e-07 1.97491098976718e-23 7.91898303853767e-05 -4.59900400878422e-24 7.82164458136224e-05)
(7.03030723406839e-05 -3.86049378553182e-07 -6.69840392097972e-24 7.16492549283455e-05 -6.46176265830654e-25 7.096553070868e-05)
(6.34435955265601e-05 -2.67484979824831e-07 -5.03072256040349e-23 6.43288450984032e-05 2.76824706085234e-23 6.38786771877475e-05)