/*--------------------------------*- C++ -*----------------------------------*\
  =========                 |
  \\      /  F ield         | OpenFOAM: The Open Source CFD Toolbox
   \\    /   O peration     | Website:  https://openfoam.org
    \\  /    A nd           | Version:  7
     \\/     M anipulation  |
\*---------------------------------------------------------------------------*/
FoamFile
{
    version     2.0;
    format      ascii;
    class       volScalarField;
    location    "20000";
    object      walldist;
}
// * * * * * * * * * * * * * * * * * * * * * * * * * * * * * * * * * * * * * //

dimensions      [0 1 0 0 0 0 0];

internalField   nonuniform List<scalar> 
15600
(
0.00078212633556296
0.000781712880650211
0.000757851348211223
0.000688053448803664
0.000607292810286731
0.000570997810831178
0.00056911958983561
0.000587746658177103
0.000619461050622547
0.000660664282972468
0.000709922300800304
0.000766805114520737
0.000831106384799783
0.000897800907312947
0.000963774005096551
0.00102882580813028
0.00109277877981551
0.00115546689116282
0.00121672552826747
0.00127641206730811
0.00133488821807135
0.00139663477689116
0.00146448440231668
0.00153931401694385
0.00162239684549804
0.00171560679633296
0.00182164711301009
0.00194417122259282
0.00208194577634388
0.00222989671124769
0.00238527236398634
0.00253989704559458
0.00267462727880258
0.00275539078907378
0.00274838412278919
0.00273744217446291
0.00273744217446294
0.00273744217446266
0.00273744217446283
0.0027374421744628
0.00273744217446272
0.00273744217446302
0.00273744217446283
0.00273744217446305
0.00273744217446278
0.00273744217446283
0.0027374421744628
0.00273744217446275
0.00273744217446299
0.00273744217446269
0.0027374421744628
0.00273744217446282
0.00273744217446274
0.00273744217446274
0.00273744217446277
0.00273744217446283
0.00273744217446272
0.00273744217446288
0.00273744217446272
0.00273744217446283
0.00273744217446283
0.00273744217446272
0.00273744217446288
0.00273744217446272
0.00273744217446305
0.00273744217446277
0.00273744217446279
0.00273744217446286
0.00273744217446288
0.00273744217446277
0.00273744217446266
0.002737442174463
0.00273744217446278
0.0027374421744628
0.00273744217446274
0.00273744217446272
0.00273744217446305
0.00273744217446283
0.00273744217446302
0.00273744217446275
0.00273744217446288
0.00273744217446289
0.00273744217446277
0.00273744217446283
0.00273744217446293
0.00274806365611241
0.00275582231330238
0.00267584718757329
0.00254149018271453
0.00238696365509409
0.00223155364108719
0.00208351882813972
0.00194562892005529
0.00182292978354516
0.00171674552445771
0.00162342269096038
0.00154024874684081
0.00146534442978904
0.00139742965782825
0.00133562631751476
0.0012771474277717
0.0012174780882594
0.00115623493057891
0.00109356107172552
0.00102962054259712
0.000964579739001645
0.000898615501322691
0.000831925629689909
0.000767563911227216
0.000710603629266612
0.000661266916315416
0.000619974669253225
0.000588150649637327
0.000569354352260635
0.000570965306296504
0.000606796898784247
0.000687249081191634
0.000757425631552942
0.000781663442216035
0.00078212633556296
0.00237535164704436
0.0023823865108158
0.00240216290344423
0.00243366470573056
0.00249326115502641
0.00261628766605773
0.00278863722389965
0.00299106513564444
0.00321121690759006
0.00344149071595624
0.00367787248127438
0.0039174737475531
0.00415814791056477
0.00439646640529145
0.00463134897433567
0.00486336382928709
0.00509288095855663
0.00532030679708839
0.00554597235724149
0.00577021723171964
0.0059934097778935
0.0062163567231382
0.00643890002491501
0.00666027317582884
0.00687960727411878
0.00709581539459979
0.00730750392281552
0.00751268626843863
0.00770825766798374
0.00789044077557705
0.00805519715171066
0.00819686379745744
0.00830773366476678
0.00837842721771299
0.00840231312257824
0.00839909945116392
0.00839226988660162
0.00838571966785089
0.00837944945000581
0.00837345986207811
0.00836775150668769
0.00836232495976605
0.00835718077027098
0.00835231945991387
0.00834774152289907
0.0083434474256754
0.00833943760670352
0.00833571247623106
0.0083322724160879
0.00832911777949003
0.00832624889085906
0.0083236660456596
0.00832136951024288
0.00831935952171456
0.00831763628781038
0.00831619998678836
0.00831505076733917
0.00831418874850721
0.00831361401963006
0.00831332664029155
0.0083133266402916
0.0083136140196301
0.00831418874850713
0.00831505076733934
0.00831619998678841
0.00831763628781036
0.00831935952171484
0.00832136951024301
0.0083236660456594
0.00832624889085926
0.00832911777948969
0.00833227241608791
0.00833571247623113
0.00833943760670351
0.00834344742567537
0.00834774152289897
0.00835231945991388
0.00835718077027093
0.00836232495976604
0.00836775150668779
0.00837345986207828
0.00837944945000583
0.0083857196678502
0.00839226988660083
0.00839909945116353
0.00840244920232132
0.0083789841849659
0.00830875079541725
0.0081982446013569
0.00805685035812164
0.00789230273226686
0.00771027653209784
0.00751481807415079
0.00730971970927906
0.00709808778417449
0.00688191707293221
0.00666260726546361
0.00644125431159424
0.0062187163837939
0.00599576937888581
0.00577258313782421
0.0055483489991737
0.00532270057508933
0.0050952909647796
0.00486579939013148
0.00463380681221634
0.00439895998691324
0.00416068072880422
0.00392000996602693
0.00368039279588082
0.00344396290215479
0.00321359644392791
0.00299332968688568
0.00279066123705519
0.00261788191722688
0.00249420897680153
0.00243408563170812
0.00240242841767186
0.0023825148847698
0.00237535164704441
0.00402689825541775
0.00403990449955543
0.00408933574995309
0.00418903631290231
0.00435237727613291
0.00460162560152693
0.00491151136655173
0.00525782010416992
0.00562587720238952
0.00600678125050019
0.0063956179262698
0.00678868870116114
0.00718309327072536
0.00757487783526509
0.00796280529186055
0.00834743004721776
0.00872913329219836
0.00910837143437401
0.0094855454732634
0.00986108579799739
0.0102354499189772
0.0106093418400075
0.0109822176861452
0.0113527878974953
0.0117195477316608
0.0120806048942181
0.0124334916831781
0.0127747209840106
0.0130992340302905
0.0134010126856247
0.0136732737490368
0.0139066469930856
0.0140886483047667
0.0142044443663962
0.01424409018483
0.0142388681562514
0.014227290097206
0.0142161856089538
0.0142055558020652
0.0141954017428943
0.0141857244530526
0.0141765249089101
0.0141678040411052
0.0141595627340883
0.0141518018256765
0.0141445221066342
0.0141377243202756
0.014131409162089
0.0141255772793838
0.014120229270962
0.014115365686812
0.0141109870278279
0.0141070937455541
0.01410368624195
0.0141007648691872
0.0140983299294652
0.0140963816748561
0.014094920307174
0.0140939459778717
0.0140934587879609
0.014093458787961
0.0140939459778718
0.014094920307174
0.0140963816748559
0.0140983299294651
0.0141007648691873
0.0141036862419501
0.0141070937455539
0.0141109870278282
0.0141153656868117
0.0141202292709618
0.0141255772793838
0.0141314091620891
0.0141377243202756
0.0141445221066343
0.0141518018256765
0.0141595627340884
0.0141678040411051
0.0141765249089101
0.0141857244530528
0.0141954017428944
0.0142055558020652
0.0142161856089533
0.0142272900972058
0.0142388681562513
0.0142443263734279
0.0142053613539693
0.0140903184853868
0.0139089194308331
0.0136760030630153
0.013404092638131
0.0131025804203042
0.0127782607957504
0.0124371763308939
0.0120843913201659
0.0117234016648254
0.0113566858778178
0.0109861500811692
0.010613287701546
0.0102393972309002
0.00986503889228621
0.00948950856932436
0.00911235216519679
0.0087331309838122
0.00835145453104939
0.00796685274117962
0.00757896135035063
0.00718721716628049
0.00679281205395462
0.00639971403261937
0.00601080925894881
0.00562977995312861
0.00526156809471189
0.00491496616012914
0.00460455775558858
0.00435449264355148
0.00419032944469074
0.00409008032133495
0.00404016844590957
0.00402689825541781
0.00573894553471631
0.0057581590749111
0.00583864271351126
0.00600981415557822
0.00628137382949223
0.0066615909479289
0.00711388967911296
0.00760910954386886
0.00813025191907282
0.00866709698092205
0.009213798612199
0.00976581622184605
0.0103194633017908
0.0108702399355416
0.0114167426144209
0.0119595062735624
0.0124989205783018
0.0130354911085367
0.0135696896122103
0.0141020391301582
0.0146330884753685
0.0151634335538394
0.0156921297948152
0.016217345110387
0.0167369152448893
0.0172481127106876
0.0177473559317875
0.0182296018658443
0.0186877659775649
0.0191135074646791
0.0194971975509338
0.0198256229988068
0.020081348410115
0.0202438889168791
0.0202998676271756
0.0202925635667052
0.0202760630628325
0.0202602374697256
0.0202450883701192
0.0202306172837291
0.0202168256665091
0.0202037149099337
0.0201912863403073
0.020179541218105
0.0201684807373452
0.0201581060249878
0.0201484181403697
0.0201394180746669
0.0201311067503956
0.0201234850209387
0.0201165536701145
0.0201103134117746
0.0201047648894367
0.0200999086759564
0.0200957452732307
0.0200922751119407
0.0200894985513272
0.0200874158790069
0.0200860273108229
0.0200853329907317
0.0200853329907317
0.0200860273108227
0.020087415879007
0.0200894985513271
0.0200922751119408
0.020095745273231
0.0200999086759565
0.0201047648894369
0.0201103134117746
0.0201165536701149
0.0201234850209387
0.0201311067503956
0.0201394180746669
0.0201484181403698
0.0201581060249879
0.0201684807373452
0.020179541218105
0.0201912863403072
0.0202037149099337
0.0202168256665092
0.0202306172837293
0.0202450883701193
0.0202602374697256
0.0202760630628326
0.0202925635667051
0.0203002075842327
0.0202451790334188
0.0200836954405474
0.0198288195920496
0.019501042252171
0.0191178498850082
0.0186924883814937
0.0182346011230307
0.0177525630965319
0.0172534684830917
0.0167423697180283
0.0162228640980774
0.0156976979087625
0.0151690235134172
0.0146386814235132
0.0141076372793749
0.0135752969538354
0.0130411165294774
0.0125045636491686
0.0119651773008035
0.0114224372100172
0.0108759707300803
0.0103252354278621
0.00977158348834311
0.00921952655542978
0.0086727358252401
0.00813573144651967
0.00761439260223176
0.00711882523236709
0.00666590952993259
0.00628470345499535
0.00601201985809682
0.00583988978357868
0.00575856445549303
0.00573894553471658
0.00751370977711556
0.00753936384291724
0.00765214246216368
0.00789765724111821
0.00828160867995288
0.00879762302080933
0.00939749752764875
0.0100470078162569
0.010726769442127
0.0114252039111847
0.0121354993127984
0.0128522413814115
0.0135709270890407
0.0142864898478328
0.0149973525547389
0.0157040284417541
0.016406915038544
0.0171065681012611
0.0178035321691189
0.0184984258726857
0.019191892325515
0.019884414867712
0.0205746333181805
0.021260153077242
0.0219381260841351
0.0226049589490472
0.023255915262282
0.0238843388981115
0.0244810452741105
0.0250352859114526
0.0255344821355374
0.0259614369432493
0.0262935825664217
0.0265045762951841
0.0265774847421172
0.0265680223573375
0.0265464190860523
0.0265256994411392
0.0265058654947916
0.0264869192366966
0.02646886257306
0.0264516973256692
0.0264354252309868
0.0264200479392893
0.0264055670138433
0.0263919839301213
0.0263793000750586
0.0263675167463522
0.0263566351518044
0.0263466564087076
0.0263375815432743
0.0263294114901142
0.0263221470917529
0.0263157890982006
0.0263103381665659
0.026305794860717
0.0263021596509904
0.0262994329139477
0.0262976149321808
0.0262967058941661
0.0262967058941661
0.0262976149321808
0.0262994329139477
0.0263021596509906
0.0263057948607171
0.0263103381665662
0.0263157890982008
0.0263221470917529
0.0263294114901143
0.0263375815432747
0.0263466564087075
0.0263566351518044
0.0263675167463518
0.0263793000750585
0.0263919839301213
0.0264055670138433
0.0264200479392894
0.0264354252309866
0.0264516973256692
0.0264688625730601
0.0264869192366967
0.0265058654947915
0.0265256994411392
0.026546419086052
0.0265680223573371
0.0265779322666652
0.0265062531816906
0.0262966311981066
0.0259655914966315
0.0255394830341259
0.0250409369963845
0.024487194049874
0.023890851016626
0.0232627006667934
0.0226119415064461
0.021945239676548
0.0212673523974943
0.0205818970064686
0.0198917090846841
0.0191991911167409
0.0185057292497465
0.0178108438842306
0.0171138983334262
0.0164142636132907
0.0157114061424261
0.0150047544153095
0.0142939279838997
0.0135784074725974
0.0128597123630529
0.0121429183562171
0.0114325119967681
0.0107338828282287
0.010053881345507
0.00940396732416932
0.00880337862458132
0.00828619820694244
0.00790081164491337
0.00765391241478094
0.00753991614318246
0.00751370977711581
0.00935348846212992
0.00938582169722659
0.00953212688690302
0.00985482421165806
0.0103553763383712
0.0110121733542797
0.0117650039739125
0.0125744225678659
0.0134185813336286
0.0142844965656693
0.0151643550443977
0.0160518363901692
0.0169415904072607
0.0178279627346646
0.0187091958457298
0.0195857798478781
0.0204581200483967
0.021326823882325
0.0221925111159829
0.0230558992764788
0.0239177290851884
0.0247783669765774
0.025636021829041
0.0264877158694495
0.0273298921161588
0.0281580594984278
0.0289662843890027
0.0297462384041797
0.0304865599470892
0.0311740047006569
0.0317929359979026
0.0323220271593279
0.0327333901972181
0.0329946103611741
0.0330850680491626
0.033073368276467
0.0330464753095173
0.033020682330365
0.0329959919185947
0.0329724065510798
0.0329499286007735
0.0329285603355376
0.0329083039170198
0.0328891613995766
0.0328711347292506
0.032854225742792
0.0328384361667362
0.0328237676165301
0.0328102215957134
0.0327977994951544
0.0327865025923406
0.0327763320507257
0.0327672889191341
0.0327593741312198
0.0327525885049895
0.0327469327423769
0.0327424074288841
0.0327390130332759
0.0327367499073387
0.0327356182856986
0.0327356182856986
0.0327367499073387
0.0327390130332759
0.032742407428884
0.0327469327423772
0.0327525885049894
0.03275937413122
0.0327672889191338
0.032776332050726
0.0327865025923405
0.0327977994951542
0.0328102215957131
0.03282376761653
0.0328384361667361
0.0328542257427919
0.0328711347292503
0.0328891613995765
0.0329083039170193
0.0329285603355376
0.0329499286007734
0.0329724065510798
0.0329959919185946
0.0330206823303649
0.0330464753095168
0.0330733682764669
0.0330856270809119
0.032996688172715
0.0327371661101826
0.0323271747409467
0.031799135423905
0.0311810123654037
0.0304941873228973
0.0297543187817376
0.0289747058249295
0.0281667284112973
0.027338725582244
0.0264966570522526
0.0256450431761802
0.0247874278523305
0.0239267961750144
0.023064970308787
0.0222015895940673
0.0213359213212433
0.020467236538735
0.0195949266604811
0.0187183674178089
0.0178371706355124
0.0169508414763894
0.0160610733206421
0.0151735269180492
0.0142935347833293
0.0134273881388224
0.0125829444675063
0.0117730638756015
0.0110194185177703
0.0103612724121746
0.00985896328399601
0.00953443978631499
0.00938652644034056
0.00935348846212993
0.0112606632305942
0.0112999218030668
0.0114810083589066
0.0118837785351293
0.0125052510127932
0.0133079919773627
0.0142193668738566
0.0151945328542565
0.0162090935755984
0.0172486101544435
0.0183042311459662
0.0193686965347138
0.0204357774582542
0.0214992099642941
0.0225570492415795
0.0236097611275435
0.0246577588187489
0.0257017031591975
0.0267422917866665
0.0277803446512243
0.0282009732125882
0.028358978585625
0.0286502704137382
0.0291176958055549
0.0297857831870212
0.0306926702100251
0.0318966404055382
0.0334891276544872
0.0355368865870945
0.0375376070899774
0.0382806582572033
0.0389156258419088
0.0394091068570884
0.0397223923342569
0.0398310417719727
0.039817022661713
0.0397846462231979
0.0397535940598133
0.0397238692771182
0.0396954748570225
0.0396684136563232
0.0396426884052994
0.0396183017063563
0.0395952560327356
0.0395735537272765
0.0395531970012438
0.0395341879332112
0.0395165284680154
0.0395002204157686
0.0394852654509363
0.0394716651114854
0.039459420798098
0.0394485337734529
0.0394390051615769
0.0394308359472669
0.0394240269755824
0.0394185789514081
0.0394144924390902
0.0394117678621446
0.039410405503037
0.0394104055030372
0.0394117678621447
0.0394144924390903
0.0394185789514082
0.0394240269755825
0.0394308359472671
0.0394390051615769
0.039448533773453
0.039459420798098
0.0394716651114855
0.0394852654509359
0.0395002204157686
0.0395165284680154
0.0395341879332113
0.0395531970012435
0.0395735537272763
0.0395952560327352
0.039618301706356
0.0396426884052993
0.0396684136563233
0.0396954748570226
0.039723869277118
0.0397535940598133
0.0397846462231977
0.0398170226617125
0.0398317163955684
0.0397248857499794
0.0394136366804645
0.0389218028141076
0.0382881001009051
0.0375460210150357
0.0355629957997807
0.0335101464591415
0.031912615609787
0.0307056582803006
0.0297962361570514
0.0291255425046981
0.0286562105610153
0.0283635829838615
0.0282043956669128
0.0277912480724644
0.026753201725453
0.0257126325137568
0.0246687079551877
0.0236207418184147
0.0225680553072196
0.0215102524012485
0.0204468640045026
0.0193797640185948
0.0183152199520999
0.0172594417542825
0.016219655685629
0.0152047633170062
0.014229074943791
0.01331678119936
0.0125125017439167
0.011888938999559
0.0114838845925049
0.0113007846510143
0.0112606632305944
0.0132377029675545
0.013284141488966
0.0135012998619095
0.0139871143888859
0.0147339651705919
0.0156879973955492
0.0167637143576696
0.0179106877374382
0.0191018821940966
0.0203213510902542
0.0215591664344181
0.0228070938647686
0.0240579933150232
0.0253049686388842
0.026545880724089
0.0268049296070443
0.0270055400971829
0.0272503964777327
0.0275299807932589
0.0278362273077904
0.0281678263036972
0.0285750083924439
0.0291386388970127
0.0299018555012074
0.0308867136233743
0.0321292171258635
0.0336866261781664
0.0356507344550196
0.0380867947377611
0.0409913281457922
0.0443991581978532
0.0457507677800769
0.0463293739978342
0.0466966313548958
0.0468241387345909
0.046807715340959
0.0467696545564887
0.0467331505507326
0.0466982069744945
0.0466648273332189
0.0466330149852723
0.04660277314029
0.0465741048575823
0.0465470130446194
0.0465215004555745
0.0464975696899438
0.0464752231912388
0.046454463245751
0.0464352919813944
0.0464177113666217
0.0464017232094212
0.0463873291563939
0.0463745306919073
0.0463633291373343
0.0463537256503729
0.0463457212244498
0.0463393166882068
0.0463345127050729
0.0463313097729206
0.0463297082238083
0.0463297082238079
0.0463313097729206
0.0463345127050731
0.046339316688207
0.0463457212244497
0.0463537256503729
0.0463633291373344
0.0463745306919076
0.0463873291563942
0.0464017232094213
0.0464177113666214
0.0464352919813941
0.0464544632457507
0.0464752231912391
0.0464975696899438
0.0465215004555744
0.0465470130446195
0.0465741048575822
0.04660277314029
0.0466330149852724
0.046664827333219
0.0466982069744944
0.0467331505507327
0.0467696545564883
0.0468077153409587
0.0468249331846237
0.0466995555942531
0.0463346853400788
0.0457580118416412
0.0444390961608967
0.041025564189533
0.0381170644643922
0.0356759141139044
0.033706745551896
0.0321460813883681
0.0309008434520384
0.0299132971301708
0.0291479652236396
0.0285826917208312
0.0281741785356863
0.0278422440768965
0.0275356669805272
0.0272558053509568
0.0270104873281839
0.026809446492013
0.0265587884611049
0.025317912784792
0.0240709825394566
0.0228200589158766
0.0215720386750031
0.020334041699023
0.0191142638276326
0.0179226892397153
0.0167751308565627
0.0156983871881494
0.0147426203211346
0.0139933340541903
0.0135047603705189
0.0132851682811885
0.0132377029675548
0.0152871669980959
0.015341049100251
0.0155956115101801
0.016167537636272
0.0170443774701919
0.0181552425329503
0.0194013142673228
0.0207263807103501
0.0221006726343832
0.0235066807332346
0.02493336070679
0.0253597937251028
0.0253515073818848
0.0255567197222396
0.0258884934763717
0.0262976932129084
0.0267702208635926
0.0272958118406334
0.0278623351336027
0.0284595465589636
0.0290850529084983
0.0297938692984143
0.0306720361272746
0.031760397600127
0.0330773206225223
0.0346557506809253
0.0365510990429785
0.0388545823573397
0.0416310642193878
0.044874282785073
0.0486198530224336
0.0528363008394584
0.053503149853247
0.0539263556658383
0.0540734116630674
0.0540544959326072
0.0540105425692707
0.0539683870054646
0.0539280334572118
0.0538894859726692
0.0538527484301475
0.0538178245361976
0.0537847178237742
0.0537534316504811
0.0537239691968938
0.0536963334649628
0.0536705272765052
0.0536465532717764
0.0536244139081347
0.0536041114587885
0.0535856480116396
0.0535690254682157
0.0535542455426948
0.0535413097610251
0.0535302194601396
0.0535209757872677
0.0535135796993413
0.0535080319625017
0.0535043331517021
0.0535024836504104
0.0535024836504105
0.0535043331517022
0.0535080319625017
0.0535135796993413
0.0535209757872675
0.0535302194601397
0.0535413097610254
0.053554245542695
0.0535690254682157
0.0535856480116393
0.0536041114587878
0.0536244139081343
0.0536465532717764
0.0536705272765052
0.0536963334649628
0.0537239691968935
0.0537534316504812
0.0537847178237741
0.0538178245361975
0.0538527484301475
0.0538894859726693
0.0539280334572118
0.0539683870054647
0.0540105425692706
0.0540544959326072
0.0540743303294422
0.0539297265071432
0.053509271336114
0.052844651072396
0.0486635015510393
0.0449122504567122
0.041664880708156
0.0388834324768495
0.0365750350409509
0.0346763274305732
0.0330951176990664
0.0317755777239599
0.030685035759767
0.0298050412244792
0.0290948422634002
0.0284689646515686
0.0278714342386843
0.0273045936001391
0.0267784933261787
0.0263054320846197
0.025895496638607
0.025562390699385
0.025355580801645
0.0253612233131941
0.0249481853477
0.0235212984134751
0.0221149403976319
0.0207402180585166
0.0194145017001187
0.0181672914868153
0.0170544885668736
0.0161748555587723
0.0155996778986809
0.0153422458740897
0.0152871669980962
0.0174117084002499
0.0174733071934818
0.0177666514533771
0.0184278611698146
0.0194394635996881
0.0207129050800627
0.0221355659508324
0.0236452434580017
0.0252093354778107
0.0248082050187614
0.0244461994280981
0.0243782070717827
0.024624407022484
0.0251281522191373
0.0257789042306319
0.0265165044585693
0.0273226473642162
0.0281832041823152
0.0290837273403962
0.0300123294920894
0.0309659668720841
0.0320027269651541
0.0332109054300722
0.0346283048079601
0.0362701958634987
0.0381671035588695
0.0403729994160464
0.0429785132976761
0.0460491958629529
0.0495787901276685
0.0536049909120407
0.0582386343129741
0.0609397209241531
0.0614209242646039
0.0615882449027045
0.0615667455597369
0.0615166837565446
0.0614686696029397
0.0614227079008675
0.0613788032610802
0.0613369601008782
0.061297182641933
0.0612594749081928
0.0612238407238859
0.0611902837116101
0.0611588072905136
0.061129414674576
0.061102108870984
0.0610768926786087
0.0610537686865786
0.0610327392729626
0.0610138066035544
0.0609969726307604
0.0609822390925977
0.0609696075118009
0.0609590791950361
0.0609506552322251
0.0609443364959841
0.0609401236411708
0.0609380171045456
0.0609380171045457
0.0609401236411708
0.0609443364959841
0.0609506552322251
0.0609590791950362
0.0609696075118012
0.0609822390925979
0.0609969726307602
0.0610138066035542
0.0610327392729626
0.0610537686865785
0.0610768926786086
0.061102108870984
0.0611294146745758
0.0611588072905132
0.0611902837116101
0.061223840723886
0.0612594749081925
0.0612971826419329
0.0613369601008783
0.0613788032610803
0.0614227079008668
0.0614686696029396
0.0615166837565446
0.0615667455597365
0.0615892923362753
0.061424758064905
0.0609466822188953
0.0582918759190774
0.0536516958453991
0.0496198763092234
0.0460860124326306
0.043010541361096
0.040400337512347
0.0381910817394949
0.0362914475954896
0.0346471075213216
0.0332275759840216
0.0320175054551563
0.0309794099756082
0.0300254362415201
0.0290965991644226
0.0281957976859065
0.0273347720402007
0.0265280803624019
0.0257897054125572
0.0251375909300656
0.0246319116312361
0.024382523266655
0.0244473499763412
0.0248071535805367
0.0252255584374842
0.0236609838563219
0.0221505891329978
0.0207266739365953
0.0194510840226434
0.0184363177568038
0.0177713460579831
0.0174746801981023
0.0174117084002501
0.0196140774391937
0.0196836759272256
0.0200172283244777
0.020771005083067
0.0219223146944137
0.0233642858773323
0.0249699994270337
0.0253022269402729
0.0243857910309853
0.0238668543229312
0.02371599396693
0.0239272083561389
0.0245088114502925
0.0253814744311848
0.0264097336690231
0.0275232393797857
0.0287003931405314
0.0299244592569477
0.0311801087675803
0.0324551777223359
0.0337469754555812
0.0351156175571214
0.0366499772461054
0.0383852722085794
0.0403348938974215
0.0425278791995314
0.0450172301728954
0.0478929207690761
0.0512215105093477
0.0549980418887404
0.0592624855111839
0.0641309264560553
0.068648713951763
0.0691900390034828
0.0693783665650367
0.0693541889933261
0.06929779498178
0.0692437076225539
0.0691919323249801
0.0691424742830164
0.0690953384726965
0.0690505296496821
0.0690080523469017
0.0689679108723027
0.0689301093066962
0.0688946515017122
0.0688615410778593
0.0688307814226963
0.068802375689117
0.0687763267937441
0.0687526374154429
0.0687313099939535
0.0687123467286379
0.0686957495773513
0.0686815202554362
0.0686696602348346
0.0686601707433316
0.068653052763918
0.0686483070342831
0.0686459340464322
0.0686459340464326
0.0686483070342831
0.0686530527639179
0.0686601707433315
0.0686696602348348
0.0686815202554362
0.0686957495773516
0.0687123467286377
0.0687313099939536
0.0687526374154429
0.068776326793744
0.068802375689117
0.0688307814226963
0.0688615410778594
0.0688946515017122
0.0689301093066962
0.0689679108723024
0.0690080523469015
0.0690505296496821
0.0690953384726967
0.069142474283016
0.0691919323249797
0.0692437076225533
0.06929779498178
0.0693541889933257
0.0693795474834744
0.0691943527194453
0.0686565458170778
0.0641867108182679
0.0593117605577714
0.0550417871510575
0.0512609173484717
0.0479277345031613
0.0450476017912291
0.0425549443470133
0.0403593320318071
0.0384074658740359
0.0366701486221535
0.0351339147505026
0.0337640487678342
0.0324719995988474
0.031196832466569
0.0299410126658336
0.0287166045863799
0.0275389896598617
0.0264247894845963
0.0253952809612028
0.0245204847803333
0.0239352582230494
0.0237202598812408
0.0238681042808064
0.0243825586496277
0.0252935587001987
0.0249869255610416
0.0233798376050603
0.0219354997574693
0.02078064217238
0.0200225742622787
0.0196852316348867
0.0196140774391939
0.0218971251272716
0.0219750166082505
0.0223502543709143
0.0231999988015784
0.0244961387675859
0.0261128104833358
0.0258854277707235
0.0244747786361688
0.0236838440976179
0.0233851675191761
0.0235318958948198
0.0241019281387405
0.0250832570057979
0.0263710169355967
0.027808056924201
0.0293174775024694
0.0308768775695315
0.0324691599027766
0.0340799659881611
0.0356983013007858
0.0373227582467376
0.0390148070271512
0.0408629958139042
0.0429006516526019
0.0451402339437408
0.0476098743512899
0.0503617485353871
0.0534848663870173
0.0570465155031339
0.0610432975413382
0.0655170382941059
0.0705877247057324
0.0766401083562067
0.0772437571408802
0.0774538611199443
0.0774269072402495
0.0773639490546768
0.0773035660121169
0.0772457641515406
0.0771905492714733
0.0771379269271528
0.0770879024277902
0.0770404808339408
0.0769956669549898
0.0769534653467493
0.0769138803091719
0.0768769158841883
0.0768425758536639
0.0768108637374838
0.0767817827917611
0.0767553360071771
0.0767315261074534
0.0767103555479548
0.0766918265144277
0.076675940921877
0.0766627004135774
0.0766521063602255
0.0766441598592311
0.0766388617341495
0.0766362125342548
0.0766362125342548
0.0766388617341495
0.0766441598592311
0.0766521063602254
0.0766627004135776
0.0766759409218771
0.0766918265144278
0.0767103555479547
0.0767315261074534
0.0767553360071774
0.0767817827917607
0.0768108637374834
0.0768425758536638
0.0768769158841884
0.076913880309172
0.0769534653467494
0.0769956669549899
0.0770404808339408
0.07708790242779
0.0771379269271525
0.0771905492714734
0.0772457641515401
0.0773035660121167
0.0773639490546767
0.0774269072402493
0.0774551804138331
0.0772485683505643
0.0766488426777786
0.0706456793013472
0.0655685466503709
0.0610893882088896
0.0570882410010362
0.0535221969291798
0.0503948827336457
0.047639780856011
0.0451676273671482
0.0429260037066202
0.0408864554604078
0.0390364513680993
0.0373433141458851
0.035718708659531
0.0341004288894734
0.0324895940215946
0.0308971464277876
0.0293374466454022
0.027827512514057
0.0263894756485956
0.0250995687004444
0.0241143868386106
0.0235400949553786
0.0233895616875191
0.0236830060295277
0.0244675422389668
0.025872401046052
0.0261302103581991
0.0245109457959924
0.0232108597310644
0.022356275581356
0.0219767617244968
0.0218971251272718
0.0242638069144234
0.0243502953814441
0.0247687489625313
0.0257179841517194
0.0271642635378405
0.027821140430636
0.0253531395486979
0.0240227101316204
0.0234415778946577
0.0234489914098001
0.0239700313423573
0.0249577287569959
0.0263750158490183
0.0280944168911134
0.0299445346514338
0.0318469254566834
0.0337810799014354
0.0357315314140324
0.037686212403542
0.0396361661310775
0.0415817137778152
0.0435851054920503
0.0457340051513789
0.048060328604582
0.0505760831789408
0.0533086975543896
0.0563094118635634
0.0596658507598432
0.0634454661863924
0.0676461250933469
0.0723108181830696
0.0775620746049453
0.0834938707989327
0.0855925043559885
0.0858251824490759
0.0857953505923429
0.0857255877696192
0.0856586784161275
0.0855946292235435
0.0855334466171072
0.0854751367524761
0.0854197055126911
0.0853671585052623
0.0853175010593819
0.0852707382232619
0.0852268747616017
0.0851859151531922
0.0851478635886496
0.0851127239682945
0.0850804999001666
0.0850511946981859
0.0850248113804587
0.0850013526677299
0.0849808209819858
0.0849632184452081
0.0849485468782808
0.0849368078000466
0.084928002426526
0.0849221316702856
0.0849191961399657
0.0849191961399657
0.0849221316702856
0.084928002426526
0.0849368078000464
0.0849485468782809
0.0849632184452086
0.084980820981986
0.0850013526677297
0.0850248113804588
0.0850511946981859
0.0850804999001663
0.0851127239682943
0.0851478635886496
0.0851859151531922
0.0852268747616018
0.0852707382232615
0.085317501059382
0.0853671585052622
0.0854197055126905
0.0854751367524755
0.0855334466171072
0.0855946292235433
0.0856586784161274
0.0857255877696187
0.0857953505923431
0.085826645188242
0.0855978312814955
0.0835607369599393
0.0776219443303224
0.0723643404197949
0.0676943638571025
0.0634893502072408
0.0597055361719905