9.99999999997963e-07 	1.00593833258374 	3.46944695195361e-18 	-0.00248191581391749 	0.000190103870879131 	1304.74814082985 	0.000373857216017586 	0
9.99999999997963e-07 	1.01006700077429 	-6.93889390390723e-18 	-0.00247063508488881 	0.00083437473875515 	293.984255355409 	0.00290475149149547 	0
9.99999999997963e-07 	1.0143469141712 	-1.73472347597681e-17 	-0.00243921339916832 	0.0023022231620491 	126.989258695368 	0.0102489193522098 	0
9.99999999997963e-07 	1.01878361332929 	-1.04083408558608e-17 	-0.00237200190358576 	0.00451752631470381 	75.7638719058572 	0.0205913271655045 	0
9.99999999997963e-07 	1.02338284177015 	-3.46944695195361e-18 	-0.00225514294724513 	0.00696686253061881 	52.4012288445491 	0.0273811592270746 	0
9.99999999997963e-07 	1.02815055341735 	-6.93889390390723e-18 	-0.00208342497351445 	0.00922170504858171 	38.406252033662 	0.0273874386397894 	0
9.99999999997963e-07 	1.03309292030413 	-1.38777878078145e-17 	-0.00186010355401482 	0.0111908956001246 	28.9346052513072 	0.023033987715977 	0
9.99999999997963e-07 	1.03821634056339 	-1.73472347597681e-17 	-0.00159161810537239 	0.0129433989695771 	22.2999773556186 	0.0176726480368455 	0
9.99999999997963e-07 	1.04352744671036 	-1.38777878078145e-17 	-0.00128399298151761 	0.0145459725112968 	17.606031286244 	0.0130522212430134 	0
9.99999999997963e-07 	1.04903311422874 	-1.04083408558608e-17 	-0.00094194377355295 	0.0160317463737899 	14.2472210646644 	0.00961531792156331 	0
9.99999999997963e-07 	1.05474047047132 	-3.46944695195361e-18 	-0.000568787919218562 	0.0174140338583509 	11.8011751871627 	0.00722117568980095 	0
9.99999999997963e-07 	1.06065690388671 	0 	-0.000166498335715684 	0.0186995318925905 	9.98109045533191 	0.00559050030504014 	0
9.99999999997963e-07 	1.06679007358401 	-3.46944695195361e-18 	0.000264076709310169 	0.0198940048333097 	8.59605998103205 	0.00447901119749051 	0
9.99999999997963e-07 	1.07314791924792 	-1.04083408558608e-17 	0.000722907265103047 	0.0210036150847395 	7.51933774644963 	0.00371238277777996 	0
9.99999999997963e-07 	1.07973867141705 	-6.93889390390723e-18 	0.00121050688805993 	0.0220347581992874 	6.66590786584803 	0.00317523975796399 	0
9.99999999997963e-07 	1.08657086213875 	3.46944695195361e-18 	0.00172773246442496 	0.02299364785817 	5.97774773222305 	0.00279302734292695 	0
9.99999999997963e-07 	1.09365333601424 	6.93889390390723e-18 	0.00227565040476062 	0.0238860082171518 	5.41444295762375 	0.00251755420613197 	0
9.99999999997963e-07 	1.10099526164836 	0 	0.00285544864915996 	0.0247169114430274 	4.94724706210642 	0.00231729076068272 	0
9.99999999997964e-07 	1.10860614351883 	-1.04083408558608e-17 	0.00346837777028667 	0.0254907202083555 	4.55529285599814 	0.00217124013583593 	0
9.99999999997964e-07 	1.11649583428022 	-1.04083408558608e-17 	0.00411571047435954 	0.0262110918883791 	4.22314033901481 	0.00206513519688949 	0
9.99999999997964e-07 	1.12467454751866 	-6.93889390390723e-18 	0.00479871290546188 	0.0268810140490792 	3.93916074235698 	0.00198907530469997 	0
9.99999999997964e-07 	1.13315287097387 	-1.04083408558608e-17 	0.00551862363313477 	0.0275028528725276 	3.69445090278954 	0.00193604112536241 	0
9.99999999997964e-07 	1.1419417802455 	-1.38777878078145e-17 	0.00627663769970009 	0.0280784044757738 	3.48208974175147 	0.00190094579110412 	0
9.99999999997964e-07 	1.15105265300151 	-1.73472347597681e-17 	0.00707389401034113 	0.0286089442076841 	3.29661949001712 	0.00188001686561696 	0
9.99999999997964e-07 	1.1604972837072 	-1.73472347597681e-17 	0.00791146489566443 	0.0290952720103792 	3.13367732209657 	0.00187038515065201 	0
9.99999999997963e-07 	1.17028789889366 	-1.38777878078145e-17 	0.00879034701020554 	0.029537753639275 	2.98972951216918 	0.00186980488365823 	0
9.99999999997963e-07 	1.1804371729856 	-1.38777878078145e-17 	0.00971145294262419 	0.0299363584896971 	2.8618767289264 	0.0018764588556029 	0
9.99999999997964e-07 	1.19095824470904 	-1.73472347597681e-17 	0.0106756030594765 	0.0302906953041873 	2.74770955774043 	0.00188881948649729 	0
9.99999999997964e-07 	1.20186473410002 	-2.42861286636753e-17 	0.0116835172178348 	0.0306000473192271 	2.64520009458986 	0.00190554764228108 	0
9.99999999997963e-07 	1.21317076013637 	-2.42861286636753e-17 	0.0127358060822525 	0.0308634085539833 	2.55261988994998 	0.00192541770106004 	0
9.99999999997963e-07 	1.22489095901541 	-2.42861286636753e-17 	0.0138329618786356 	0.0310795229955347 	2.46847747962858 	0.00194726168029612 	0
9.99999999997963e-07 	1.23704050310127 	-3.46944695195361e-17 	0.014975348514494 	0.0312469284111454 	2.39147074535317 	0.00196992805971007 	0
9.99999999997963e-07 	1.24963512056618 	-4.16333634234434e-17 	0.0161631910900989 	0.0313640064138283 	2.32045072619103 	0.00199225282980011 	0
9.99999999997963e-07 	1.26269111575138 	-4.5102810375397e-17 	0.0173965649141476 	0.0314290402043301 	2.25439445725358 	0.0020130415829422 	0
9.99999999997964e-07 	1.27622539027388 	-4.85722573273506e-17 	0.0186753842160725 	0.0314402810843307 	2.19238507404521 	0.00203106231959581 	0
9.99999999997964e-07 	1.29025546490642 	-4.5102810375397e-17 	0.0199993908115467 	0.0313960243531235 	2.1335978714771 	0.00204504915196164 	0
9.99999999997964e-07 	1.30479950225895 	-3.81639164714898e-17 	0.0213681430258823 	0.0312946945385079 	2.07729129871446 	0.00205371727993137 	0
9.99999999997963e-07 	1.31987633029101 	-3.46944695195361e-17 	0.0227810052107223 	0.0311349390595818 	2.0228020397583 	0.00205578948533138 	0
9.99999999997963e-07 	1.33550546668544 	-3.46944695195361e-17 	0.0242371382016575 	0.0309157283837827 	1.96954340082103 	0.00205003392672211 	0
9.99999999997963e-07 	1.35170714411495 	-3.46944695195361e-17 	0.0257354910563595 	0.03063645956348 	1.91700622194169 	0.00203531221899173 	0
9.99999999997963e-07 	1.3685023364343 	-4.16333634234434e-17 	0.0272747943819242 	0.0302970587981575 	1.86476147617163 	0.00201063568897114 	0
9.99999999997963e-07 	1.38591278583198 	-5.20417042793042e-17 	0.0288535555040402 	0.0298980774878299 	1.81246364346919 	0.0019752264098045 	0
9.99999999997963e-07 	1.40396103097652 	-5.55111512312578e-17 	0.0304700556495824 	0.0294407752790032 	1.75985388117089 	0.00192857830451209 	0
9.99999999997963e-07 	1.42267043619387 	-5.89805981832114e-17 	0.0321223492137636 	0.0289271830339185 	1.70676199387679 	0.0018705125111394 	0
9.99999999997963e-07 	1.44206522171365 	-7.28583859910259e-17 	0.0338082650756184 	0.0283601386498049 	1.65310626556799 	0.00180122059298064 	0
9.99999999997963e-07 	1.46217049502345 	-8.32667268468867e-17 	0.0355254098310871 	0.0277432893542952 	1.59889037934695 	0.00172128931604858 	0
9.99999999997963e-07 	1.48301228337162 	-8.32667268468867e-17 	0.0372711727557199 	0.0270810555772865 	1.54419692308739 	0.00163170177708 	0
9.99999999997963e-07 	1.50461756746086 	-8.32667268468867e-17 	0.0390427323131602 	0.0263785537332937 	1.48917734980777 	0.00153381167657761 	0
9.99999999997963e-07 	1.52701431637602 	-8.32667268468867e-17 	0.040837064109597 	0.0256414781334344 	1.43403869589345 	0.00142929032922972 	0
9.99999999997963e-07 	1.55023152379143 	-8.32667268468867e-17 	0.0426509503663483 	0.0248759455879579 	1.37902780704299 	0.00132004922745733 	0
9.99999999997963e-07 	1.57429924550461 	-8.32667268468867e-17 	0.0444809912349858 	0.0240883097919317 	1.32441421920811 	0.00120814411223811 	0
9.99999999997963e-07 	1.59924863834497 	-8.32667268468867e-17 	0.046323618581939 	0.0232849559756646 	1.27047312586272 	0.0010956689976936 	0
9.99999999997963e-07 	1.62511200050781 	-8.67361737988404e-17 	0.0481751131575631 	0.0224720891291572 	1.21746997506847 	0.000984649956166633 	0
9.99999999997963e-07 	1.65192281336592 	-9.36750677027476e-17 	0.0500316262305377 	0.0216555308388455 	1.16564813416188 	0.0008769484013644 	0
9.99999999997963e-07 	1.67971578481282 	-8.67361737988404e-17 	0.051889206729198 	0.0208405398460207 	1.1152207149051 	0.000774182043280243 	0
9.99999999997963e-07 	1.70852689419381 	-7.97972798949331e-17 	0.0537438347457473 	0.0200316699069394 	1.06636709175265 	0.000677668754693548 	0
9.99999999997963e-07 	1.73839343888296 	-7.97972798949331e-17 	0.055591461770087 	0.0192326773568472 	1.01923397117921 	0.000588394776340996 	0
9.99999999997963e-07 	1.76935408256639 	-7.63278329429795e-17 	0.0574280561619204 	0.0184464914538548 	0.973940262413093 	0.000507005363920225 	0
9.99999999997963e-07 	1.80144890529425 	-7.63278329429795e-17 	0.059249648741835 	0.0176752567688944 	0.930584628799135 	0.00043381472525557 	0
9.99999999997963e-07 	1.83471945536633 	-7.63278329429795e-17 	0.0610523731705596 	0.0169204395774807 	0.889254484953908 	0.000368832295076744 	0
9.99999999997963e-07 	1.86920880311829 	-7.63278329429795e-17 	0.062832508240127 	0.0161829629516015 	0.850035234344349 	0.000311802017853531 	0
9.99999999997963e-07 	1.9049615966783 	-7.28583859910259e-17 	0.0645865201938235 	0.0154633115201085 	0.813018612729315 	0.000262256519682447 	0
9.99999999997964e-07 	1.94202411976624 	-7.63278329429795e-17 	0.0663109204132839 	0.0147615399158591 	0.778309093029879 	0.000219609476176684 	0
9.99999999997964e-07 	1.98044435161018 	-7.63278329429795e-17 	0.0680022375818724 	0.0140771689666011 	0.746028830384079 	0.000183149966993527 	0
9.99999999997964e-07 	2.02025965173184 	-7.28583859910259e-17 	0.0696439121506285 	0.0134145505217633 	0.716550140428486 	0.000152216662143861 	0
9.99999999997964e-07 	2.06006301192217 	-7.28583859910259e-17 	0.0711943822766533 	0.0127874195712214 	0.690602268105468 	0.000126483192504728 	0
9.99999999997964e-07 	2.09845978584128 	-6.93889390390723e-17 	0.0726201425673164 	0.0122060143295107 	0.66861087695113 	0.000105460003806226 	0
9.99999999997964e-07 	2.13549967996945 	-6.93889390390723e-17 	0.0739214470982563 	0.0116682641281879 	0.650375710468575 	8.81785577626516e-05 	0
9.99999999997964e-07 	2.17123064424048 	-7.28583859910259e-17 	0.0751115692430992 	0.011168340134441 	0.635537693788113 	7.37139179692464e-05 	0
9.99999999997964e-07 	2.20569893411515 	-7.63278329429795e-17 	0.0762021150701145 	0.010701845990546 	0.623824162693941 	6.14378856283745e-05 	0
9.99999999997964e-07 	2.23894917046122 	-7.63278329429795e-17 	0.0772031939127389 	0.0102654799810427 	0.615035825292572 	5.09465324656696e-05 	0
9.99999999997964e-07 	2.27102439731725 	-7.63278329429795e-17 	0.0781236628257665 	0.0098567558605087 	0.609036075038249 	4.20049921695826e-05 	0
9.99999999997964e-07 	2.30196613761521 	-8.32667268468867e-17 	0.0789712986150162 	0.00947378892253027 	0.60574264577258 	3.45044486282986e-05 	0
9.99999999997964e-07 	2.33181444693391 	-9.0205620750794e-17 	0.0797529415322394 	0.0091151394854213 	0.605121415714052 	2.84316819990702e-05 	0
9.99999999997964e-07 	2.3606079653529 	-9.0205620750794e-17 	0.0804746211684425 	0.00877970195235554 	0.607182114843381 	2.3848420071828e-05 	0
9.99999999997964e-07 	2.3883839674739 	-9.0205620750794e-17 	0.0811416650332017 	0.00846662797574987 	0.61197567483219 	2.08782754355241e-05 	0
9.99999999997964e-07 	2.41517841067461 	-9.0205620750794e-17 	0.0817587918445003 	0.00817527406506523 	0.61959295624912 	1.969940748631e-05 	0
9.99999999997964e-07 	2.44102598165722 	-9.0205620750794e-17 	0.0823301919332838 	0.0079051659831588 	0.630164588234826 	2.05413454237035e-05 	0
9.99999999997964e-07 	2.46596014135207 	-9.0205620750794e-17 	0.0828595967601237 	0.00765597402607278 	0.64386165663473 	2.36846736612273e-05 	0
9.99999999997964e-07 	2.49001316823443 	-9.0205620750794e-17 	0.0833503391780802 	0.00742749465838749 	0.660896972245223 	2.94624751243442e-05 	0
9.99999999997964e-07 	2.51321620011054 	-9.36750677027476e-17 	0.0838054057964478 	0.00721963500257258 	0.681526636990705 	3.82625427773295e-05 	0
9.99999999997964e-07 	2.535599274427 	-1.07552855510562e-16 	0.0842274825635775 	0.00703239743084378 	0.706051601218589 	5.05294210290631e-05 	0
9.99999999997964e-07 	2.55719136715571 	-1.17961196366423e-16 	0.0846189944850301 	0.00686586207484592 	0.73481887298216 	6.6765352958084e-05 	0
9.99999999997963e-07 	2.57802043030465 	-1.17961196366423e-16 	0.0849821402224589 	0.00672016554896894 	0.768222008501399 	8.75292229823233e-05 	0
9.99999999997963e-07 	2.59811342810315 	-1.17961196366423e-16 	0.0853189221751892 	0.00659547467000255 	0.806700495824968 	0.00011343264273117 	0
9.99999999997964e-07 	2.61749637190832 	-1.17961196366423e-16 	0.0856311725287626 	0.00649195452841814 	0.850737659891373 	0.00014513247886429 	0
9.99999999997963e-07 	2.63619435387806 	-1.14491749414469e-16 	0.085920575663189 	0.00640973097711888 	0.90085678827953 	0.000183319406822124 	0
9.99999999997963e-07 	2.65423157945406 	-1.11022302462516e-16 	0.0861886872498224 	0.00634884846021898 	0.957615322902884 	0.000228702513759876 	0
9.99999999997963e-07 	2.67163139869691 	-1.14491749414469e-16 	0.086436950330655 	0.00630922505549933 	1.02159719567543 	0.000281990550506009 	0
9.99999999997963e-07 	2.68841633651388 	-1.17961196366423e-16 	0.0866667086660761 	0.00629060753153364 	1.09340370259316 	0.000343871085190621 	0
9.99999999997963e-07 	2.7046081218185 	-1.17961196366423e-16 	0.0868792176516137 	0.00629252995213686 	1.17364368725408 	0.000414989441351553 	0
9.99999999997963e-07 	2.72022771565972 	-1.17961196366423e-16 	0.0870756531312064 	0.00631427970680599 	1.26292419754828 	0.000495929798788699 	0
9.99999999997963e-07 	2.73529533835694 	-1.17961196366423e-16 	0.0872571184598206 	0.00635487465206422 	1.36184313008179 	0.00058720110775675 	0
9.99999999997963e-07 	2.74983049567625 	-1.14491749414469e-16 	0.0874246501759998 	0.00641305425144575 	1.47098562639956 	0.000689230485429146 	0
9.99999999997963e-07 	2.76385200408156 	-1.11022302462516e-16 	0.0875792226402438 	0.00648728626065806 	1.59092608681068 	0.000802366569159322 	0
9.99999999997963e-07 	2.77737801509343 	-1.11022302462516e-16 	0.0877217520179831 	0.0065757887945638 	1.72223759926083 	0.0009268950020203 	0
9.99999999997963e-07 	2.79042603878708 	-1.14491749414469e-16 	0.0878530998617131 	0.00667656577702225 	1.86551034780327 	0.00106306798365127 	0
9.99999999997963e-07 	2.80301296646003 	-1.2490009027033e-16 	0.0879740754523669 	0.00678745205023739 	2.02138019683856 	0.00121114968968708 	0
9.99999999997963e-07 	2.81515509249872 	-1.31838984174237e-16 	0.0880854357407925 	0.00690616297119723 	2.19056818758704 	0.00137147887099067 	0
9.99999999997963e-07 	2.82686813547237 	-1.31838984174237e-16 	0.088187895071568 	0.00703034222345333 	2.373931190626 	0.00154454784805756 	0
9.99999999997963e-07 	2.83816725848142 	-1.31838984174237e-16 	0.08828218458431 	0.00715760085887194 	2.5725235210867 	0.001732420843218 	0
9.99999999997963e-07 	2.84906708878691 	-1.31838984174237e-16 	0.0883689544719035 	0.00728555765599824 	2.78779073687581 	0.00193880642034036 	0
9.99999999997963e-07 	2.85958173674616 	-1.28369537222284e-16 	0.0884485967256531 	0.00741186042118086 	3.02184336519884 	0.00216552853737687 	0
9.99999999997963e-07 	2.86972481407933 	-1.2490009027033e-16 	0.0885214514228068 	0.00753398539886208 	3.27719442388376 	0.00241176790302361 	0
9.99999999997963e-07 	2.87950945149043 	-1.2490009027033e-16 	0.0885879607877634 	0.00764889127048938 	3.55604435081351 	0.00267449732822083 	0
9.99999999997963e-07 	2.88894831566566 	-1.2490009027033e-16 	0.0886485196505413 	0.00775314957598073 	3.86026919367852 	0.00294862015762105 	0
9.99999999997963e-07 	2.89805362567106 	-1.31838984174237e-16 	0.0887035139094108 	0.00784357237654344 	4.19226830796834 	0.00323099382677441 	0
9.99999999997963e-07 	2.90683716877067 	-1.38777878078145e-16 	0.0887534584796905 	0.00791768039333359 	4.55584744855351 	0.00352303599984297 	0
9.99999999997964e-07 	2.91531031568569 	-1.38777878078145e-16 	0.0887991044438079 	0.00797380376147552 	4.95695739112838 	0.00383154750095803 	0
9.99999999997964e-07 	2.92348403531448 	-1.38777878078145e-16 	0.088841438008685 	0.00801089500751058 	5.40463079346318 	0.00416644430601645 	0
9.99999999997964e-07 	2.9313689089323 	-1.38777878078145e-16 	0.0888811905484344 	0.0080281681655178 	5.91189561801502 	0.00453989901311354 	0
9.99999999997964e-07 	2.93897514388925 	-1.42247325030098e-16 	0.0889183705057848 	0.00802468326264632 	6.49609283812152 	0.0049675025979234 	0
9.99999999997964e-07 	2.94631258682425 	-1.42247325030098e-16 	0.0889526854532628 	0.00799895348101909 	7.17940457340752 	0.00546370824520757 	0
9.99999999997964e-07 	2.95339073641193 	-1.38777878078145e-16 	0.0889840968825772 	0.00794871481498162 	7.99079017191669 	0.00604380634975936 	0
9.99999999997964e-07 	2.96021875565916 	-1.38777878078145e-16 	0.0890127377473807 	0.00787068762892808 	8.9691360366778 	0.00673371669500131 	0
9.99999999997963e-07 	2.96680548376697 	-1.38777878078145e-16 	0.0890388096428023 	0.00775976849160082 	10.16803877201 	0.0075666589777346 	0
9.99999999997963e-07 	2.97315944757337 	-1.38777878078145e-16 	0.0890625369305116 	0.00760759375608799 	11.6628647127136 	0.00857508581835507 	0
9.99999999997963e-07 	2.97928887259171 	-1.45716771982052e-16 	0.0890838790534373 	0.00740091367355066 	13.5583824813981 	0.00978893699701798 	0
9.99999999997963e-07 	2.98520169365903 	-1.52655665885959e-16 	0.0891025079055855 	0.00711973273526015 	15.9975102389666 	0.0112145024462487 	0
9.99999999997963e-07 	2.99090556520806 	-1.52655665885959e-16 	0.0891181430259981 	0.00673546389152233 	19.1772129907501 	0.0127985550163946 	0
9.99999999997963e-07 	2.99640787117633 	-1.52655665885959e-16 	0.0891307052911694 	0.00621027088692274 	23.381115100188 	0.014381057362183 	0
9.99999999997963e-07 	3.00171573456492 	-1.52655665885959e-16 	0.0891402711354369 	0.00550004726880584 	29.0545053367495 	0.0156263590011261 	0
9.99999999997963e-07 	3.00683602665963 	-1.52655665885959e-16 	0.0891470265218728 	0.00456433095584198 	37.0084150298874 	0.015825040230205 	0
9.99999999997963e-07 	3.01177537592613 	-1.52655665885959e-16 	0.0891513021807482 	0.00340238691423167 	49.0448790178081 	0.0138346464738358 	0
9.99999999997963e-07 	3.01654017659085 	-1.52655665885959e-16 	0.0891536626934965 	0.00213971889079467 	70.2056160557744 	0.00935232145138827 	0
9.99999999997963e-07 	3.02113659691864 	-1.52655665885959e-16 	0.0891547735431919 	0.00105181283960519 	118.14965192784 	0.0043372162634556 	0
9.99999999997963e-07 	3.02557058719784 	-1.52655665885959e-16 	0.0891551177273712 	0.000370779679624916 	274.424410021424 	0.00120762921099799 	0
9.99999999997963e-07 	3.02984788744324 	-1.52655665885959e-16 	0.0891549774496496 	8.34216048829394e-05 	1216.28008409263 	0.000166189056348936 	0
