6 	0.00391112967796254 	2.77555756156289e-17 	-0.0140291887284628 	-5.05395483181279e-05 	2.30063286961259e-22
6 	0.0118766651674912 	2.77555756156289e-17 	-0.0363783975864426 	-0.000248526299222096 	3.64426869886271e-22
6 	0.020134001548576 	3.12250225675825e-17 	-0.0473435549574817 	-0.000646239718769988 	1.34363582925012e-22
6 	0.0286938283423948 	3.46944695195361e-17 	-0.0489058747703082 	-0.00120782350170591 	0
6 	0.0375672266585907 	3.46944695195361e-17 	-0.0455462143404492 	-0.00185450739281104 	4.942179995575e-23
6 	0.046765683540303 	3.81639164714898e-17 	-0.0408489435970397 	-0.00254753634915405 	1.32453455358498e-22
6 	0.0563011068347006 	4.16333634234434e-17 	-0.036051895637516 	-0.00328626637214962 	1.16641402702032e-22
6 	0.0661858406082648 	3.81639164714898e-17 	-0.0313447390845946 	-0.00406923475621872 	3.36097472993229e-23
6 	0.0764326811267815 	3.81639164714898e-17 	-0.0267055327111032 	-0.00489190464150648 	0
6 	0.0870548934207258 	4.16333634234434e-17 	-0.0220859060739432 	-0.00575152947313721 	-1.5015230169593e-23
6 	0.0980662284574839 	3.81639164714898e-17 	-0.0174409620763608 	-0.00664712766046417 	-4.32412140378388e-23
6 	0.109480940942647 	4.16333634234434e-17 	-0.0127321264457729 	-0.0075785257168507 	-4.14367423983994e-23
6 	0.121313807773417 	4.5102810375397e-17 	-0.00792573656937977 	-0.00854588989095469 	-2.40123757290217e-23
6 	0.13358014716801 	4.5102810375397e-17 	-0.00299135781972752 	-0.0095495663058678 	-2.16037157949411e-23
6 	0.146295838495839 	5.20417042793042e-17 	0.00209955996544897 	-0.0105900099253675 	-1.08020985960571e-23
6 	0.159477342834116 	5.55111512312578e-17 	0.00737469262046222 	-0.0116677371615826 	0
6 	0.173141724277517 	5.89805981832114e-17 	0.0128616113072476 	-0.0127832908324143 	0
6 	0.18730667202848 	6.24500451351651e-17 	0.018588389134972 	-0.0139372128694339 	0
6 	0.201990523296728 	6.24500451351651e-17 	0.0245840966603728 	-0.0151300207751699 	0
6 	0.217212287037676 	6.24500451351651e-17 	0.0308792214561949 	-0.0163621847473788 	-1.50317833105132e-23
6 	0.232990968245429 	7.28583859910259e-17 	0.0375057415267762 	-0.0176340476755602 	-4.42280331902793e-23
6 	0.241022570920844 	8.32667268468867e-17 	0.0409062297159051 	-0.018279990828835 	-5.83937349368434e-23
6 	0.24102399720546 	8.32667268468867e-17 	0.0409068394619916 	-0.0182801052266137 	-5.83936594244152e-23
6 	0.249349821006924 	8.32667268468867e-17 	0.0444992590501035 	-0.0189461395244784 	-4.33619391823199e-23
6 	0.266305741947753 	9.0205620750794e-17 	0.0518947851604746 	-0.0202982958772921 	-1.41657648149912e-23
6 	0.283883560490999 	9.36750677027476e-17 	0.059733136502874 	-0.021690770719359 	2.70271650483711e-17
6 	0.30210530600303 	9.71445146547012e-17 	0.068056603788174 	-0.0231233387179047 	2.71747319909885e-17
6 	0.320994567414413 	1.07552855510562e-16 	0.0769110805163224 	-0.0245956015560061 	9.73283066296806e-20
6 	0.340574928739976 	1.14491749414469e-16 	0.0863455687421983 	-0.0261068168577288 	-9.21075325217495e-20
6 	0.350541647779254 	1.17961196366423e-16 	0.0912145404954903 	-0.0268721093372127 	-8.373706321912e-20
6 	0.350543417709691 	1.17265782316727e-16 	0.0912154184194837 	-0.0268722444278893 	-8.60772920211773e-20
6 	0.360875246854294 	1.13796335364773e-16 	0.0964149680672754 	-0.0276562470800142 	-2.69334955885918e-17
6.00000000000001 	0.38191648941809 	1.17961196366423e-16 	0.107173733653462 	-0.0292420898165332 	-2.68892864632242e-17
6.00000000000001 	0.403729468200046 	1.2490009027033e-16 	0.11868476750531 	-0.030862760608601 	0
6.00000000000001 	0.426340516712517 	1.31838984174237e-16 	0.131012239040311 	-0.0325157241115461 	-2.9099790619966e-23
6.00000000000001 	0.437849904305537 	1.42247325030098e-16 	0.137388902048882 	-0.0333499980123245 	-5.82021188153451e-23
6.00000000000001 	0.44978191803083 	1.45716771982052e-16 	0.144226984031699 	-0.0341981590505385 	-5.91487480388417e-23
6.00000000000001 	0.474081006202549 	1.45716771982052e-16 	0.158400279152579 	-0.0359060217698474 	-9.02003122443431e-23
6.00000000000001 	0.499270241132364 	1.45716771982052e-16 	0.173609014084202 	-0.037634806893893 	-8.9671963553417e-23
6.00000000000001 	0.525382231502764 	1.45716771982052e-16 	0.189932324137364 	-0.0393798678901509 	-6.2410803245557e-23
6.00000000000001 	0.552450780547768 	1.45716771982052e-16 	0.207451788316417 	-0.0411355980957193 	-9.55390034929889e-23
6.00000000000001 	0.58051092981285 	1.49186218934005e-16 	0.226289042578954 	-0.0428888423282466 	-1.27618619379152e-22
6.00000000000001 	0.609599004517911 	1.56125112837913e-16 	0.246707721355259 	-0.0446194904107205 	3.3875808141525e-17
6.00000000000001 	0.639752660582033 	1.6306400674182e-16 	0.269111822340214 	-0.0463055480338072 	3.19476048654013e-17
6.00000000000001 	0.671010933370887 	1.66533453693773e-16 	0.293813071948057 	-0.0479199571674709 	-3.77685872064442e-17
6.00000000000001 	0.703414288229901 	1.66533453693773e-16 	0.320840228486925 	-0.0494377756593506 	-3.58404800736889e-17
6.00000000000001 	0.737004672868607 	1.66533453693773e-16 	0.350006233436988 	-0.0508445713964707 	-3.22333351066423e-22
6.00000000000001 	0.771825571663977 	1.66533453693773e-16 	0.381060713036619 	-0.0521295972882754 	-3.31650918309407e-22
6.00000000000001 	0.807922061953054 	1.66533453693773e-16 	0.413770894848872 	-0.0532787734206115 	-2.55088716220573e-22
6.00000000000001 	0.845340872387743 	1.70002900645727e-16 	0.447929476645316 	-0.054273786141555 	1.31793720104605e-24
6.00000000000001 	0.88413044342731 	1.73472347597681e-16 	0.483319588433105 	-0.0550940805247721 	8.59734373796751e-23
6.00000000000001 	0.924340990046898 	1.76941794549634e-16 	0.519672497940191 	-0.0557197574101522 	1.78694242858449e-22
6.00000000000001 	0.966024566743242 	1.80411241501588e-16 	0.556641788426913 	-0.0561343613088543 	7.20610440617275e-22
6.00000000000001 	1.00923513492173 	1.76941794549634e-16 	0.59380245334101 	-0.0563270009584876 	9.05354958300522e-22
6.00000000000001 	1.05402863275206 	1.73472347597681e-16 	0.630672207863397 	-0.0562936476695644 	7.20496769495459e-22
6.00000000000001 	1.10046304758287 	1.73472347597681e-16 	0.666746643550146 	-0.0560378024558556 	7.14572318171316e-22
6.00000000000001 	1.14859849100923 	1.73472347597681e-16 	0.701541121849402 	-0.0555705427601643 	3.57514309217699e-22
6.00000000000001 	1.19849727668995 	1.73472347597681e-16 	0.734641143364746 	-0.0549092927273047 	0
6.00000000000001 	1.25022400101563 	1.73472347597681e-16 	0.765759482087888 	-0.05407469016178 	0
6.00000000000001 	1.30384562673186 	1.73472347597681e-16 	0.79477486498574 	-0.0530863993571914 	3.00885272169664e-22
6.00000000000001 	1.35943156962566 	1.73472347597681e-16 	0.821732245770862 	-0.0519604185440343 	3.02476924563419e-22
6.00000000000001 	1.41705378838763 	1.73472347597681e-16 	0.846832222438723 	-0.050704230309223 	-5.90687609026825e-22
6.00000000000001 	1.47678687776592 	1.73472347597681e-16 	0.870377443832448 	-0.0493152449907325 	-1.17026136582802e-21
6.00000000000001 	1.53870816513278 	1.73472347597681e-16 	0.892600782529314 	-0.0477904739432503 	-8.64166693197919e-22
6.00000000000001 	1.60289781058851 	1.73472347597681e-16 	0.913533858975576 	-0.04613672166385 	2.4879742647851e-22
6.00000000000001 	1.66943891073267 	1.70002900645727e-16 	0.933091960515354 	-0.0443695290477754 	1.33581471714178e-21
6.00000000000001 	1.73841760623657 	1.70002900645727e-16 	0.9512289266942 	-0.0425021585384344 	1.06601588906946e-21
6.00000000000001 	1.8099231933566 	1.73472347597681e-16 	0.967993532640649 	-0.0405394876657105 	5.10161234081854e-22
6.00000000000001 	1.88404823953249 	1.73472347597681e-16 	0.983492415573153 	-0.0384792570653077 	1.42152041273835e-21
6.00000000000001 	1.96088870322038 	1.73472347597681e-16 	0.997042613892862 	-0.0364496285525462 	2.0894053881214e-21
6.00000000000001 	2.02025965173185 	1.73472347597681e-16 	1.00711212481454 	-0.0347733437622179 	9.12863022268346e-22
6.00000000000001 	2.06006301192217 	1.73472347597681e-16 	1.01403694896066 	-0.033506417677901 	0
6.00000000000001 	2.09845978584128 	1.73472347597681e-16 	1.01967151468474 	-0.0323921476101459 	0
6.00000000000001 	2.13549967996946 	1.73472347597681e-16 	1.0247662774131 	-0.0313093475427453 	0
6.00000000000001 	2.17123064424048 	1.73472347597681e-16 	1.02936248278918 	-0.0302574522082904 	0
6.00000000000001 	2.20569893411516 	1.73472347597681e-16 	1.03349559796875 	-0.0292359199837124 	0
6.00000000000001 	2.23894917046123 	1.73472347597681e-16 	1.0371962480533 	-0.0282441994683306 	0
6.00000000000001 	2.27102439731726 	1.76941794549634e-16 	1.04049086168548 	-0.0272817030559954 	0
6.00000000000001 	2.30196613761522 	1.80411241501588e-16 	1.04340213924899 	-0.0263478023556557 	0
6.00000000000001 	2.33181444693392 	1.80411241501588e-16 	1.04594940049731 	-0.0254418271945319 	0
6.00000000000001 	2.3606079653529 	1.76941794549634e-16 	1.04814884627391 	-0.0245630663333559 	0
6.00000000000001 	2.38838396747391 	1.73472347597681e-16 	1.05001375715501 	-0.0237107696734355 	0
6.00000000000001 	2.41517841067461 	1.73472347597681e-16 	1.05155464369619 	-0.0228841511864749 	0
6.00000000000001 	2.44102598165722 	1.73472347597681e-16 	1.0527793576097 	-0.0220823919493177 	0
6.00000000000001 	2.46596014135208 	1.73472347597681e-16 	1.053693169858 	-0.0213046429172642 	0
6.00000000000001 	2.49001316823444 	1.73472347597681e-16 	1.05429881961623 	-0.0205500272229259 	0
6.00000000000001 	2.51321620011054 	1.73472347597681e-16 	1.05459653688321 	-0.0198176418900263 	0
6.00000000000001 	2.535599274427 	1.73472347597681e-16 	1.05458404094871 	-0.0191065589329705 	0
6.00000000000001 	2.55719136715571 	1.73472347597681e-16 	1.05425651681436 	-0.0184158258829972 	0
6.00000000000001 	2.57802043030466 	1.73472347597681e-16 	1.05360657195332 	-0.017744465847499 	0
6.00000000000001 	2.59811342810315 	1.73472347597681e-16 	1.05262417646862 	-0.0170914772771686 	0
6.00000000000001 	2.61749637190832 	1.73472347597681e-16 	1.05129659079356 	-0.0164558336907424 	0
6.00000000000001 	2.63619435387806 	1.73472347597681e-16 	1.04960828660526 	-0.0158364836918592 	0
6.00000000000001 	2.65423157945406 	1.73472347597681e-16 	1.04754086862127 	-0.0152323517067213 	0
6.00000000000001 	2.67163139869691 	1.70002900645727e-16 	1.04507300741361 	-0.0146423399708857 	0
6.00000000000001 	2.68841633651388 	1.66533453693773e-16 	1.04218039622311 	-0.0140653323895986 	0
6.00000000000001 	2.70460812181851 	1.70002900645727e-16 	1.03883574779523 	-0.0135002009733843 	0
6.00000000000001 	2.72022771565972 	1.73472347597681e-16 	1.03500885012739 	-0.0129458155876351 	0
6.00000000000001 	2.73529533835695 	1.73472347597681e-16 	1.03066670216198 	-0.0124010577244733 	0
6.00000000000001 	2.74983049567626 	1.73472347597681e-16 	1.02577375112815 	-0.0118648388690667 	0
6.00000000000001 	2.76385200408157 	1.73472347597681e-16 	1.02029225155046 	-0.0113361237375209 	0
6.00000000000001 	2.77737801509344 	1.73472347597681e-16 	1.01418276103652 	-0.0108139582420027 	0
6.00000000000001 	2.79042603878708 	1.73472347597681e-16 	1.00740477915545 	-0.0102975019107633 	0
6.00000000000001 	2.80301296646003 	1.73472347597681e-16 	0.999917522647808 	-0.00978606467153624 	0
6.00000000000001 	2.81515509249873 	1.73472347597681e-16 	0.991680812809608 	-0.00927914242155954 	0
6.00000000000001 	2.82686813547238 	1.73472347597681e-16 	0.982656029493127 	-0.00877642503269712 	0
6.00000000000001 	2.83816725848143 	1.73472347597681e-16 	0.972807059009428 	-0.00827776444645848 	0
6.00000000000001 	2.84906708878692 	1.73472347597681e-16 	0.962100991155051 	-0.00778354700190054 	0
6.00000000000001 	2.85958173674617 	1.73472347597681e-16 	0.950491027700058 	-0.00729427172056649 	0
6.00000000000001 	2.86972481407933 	1.73472347597681e-16 	0.937866735853417 	-0.00680899345682653 	0
6.00000000000001 	2.87950945149043 	1.73472347597681e-16 	0.924048886933077 	-0.00632545583769383 	0
6.00000000000001 	2.88894831566567 	1.73472347597681e-16 	0.908890981776522 	-0.00584279315527966 	0
6.00000000000001 	2.89805362567107 	1.73472347597681e-16 	0.8923634276627 	-0.00536324620610869 	0
6.00000000000001 	2.90683716877067 	1.73472347597681e-16 	0.874526812673019 	-0.00489054378293573 	0
6.00000000000001 	2.9153103156857 	1.73472347597681e-16 	0.855472849195514 	-0.00442842012052261 	0
6.00000000000001 	2.92348403531449 	1.73472347597681e-16 	0.835290705300827 	-0.00398053392637457 	0
6.00000000000001 	2.9313689089323 	1.73472347597681e-16 	0.814050790826602 	-0.00355025092855378 	0
6.00000000000001 	2.93897514388925 	1.73472347597681e-16 	0.791797124913504 	-0.00314047519275162 	0
6.00000000000001 	2.94631258682425 	1.73472347597681e-16 	0.768542105593892 	-0.00275358684765368 	0
6.00000000000001 	2.95339073641193 	1.73472347597681e-16 	0.74426048825916 	-0.0023914453851256 	0
6.00000000000001 	2.96021875565916 	1.73472347597681e-16 	0.718881131535361 	-0.0020554187640239 	0
6.00000000000001 	2.96680548376697 	1.73472347597681e-16 	0.692275808481368 	-0.00174642064630211 	0
6.00000000000001 	2.97315944757337 	1.73472347597681e-16 	0.664244291616293 	-0.00146494977778862 	0
6.00000000000001 	2.97928887259171 	1.73472347597681e-16 	0.634494157994712 	-0.00121112641533391 	0
6.00000000000001 	2.98520169365903 	1.73472347597681e-16 	0.602613248996208 	-0.000984728255959136 	0
6.00000000000001 	2.99090556520807 	1.76941794549634e-16 	0.56803178334105 	-0.000785243064463347 	0
6.00000000000001 	2.99640787117633 	1.83880688453542e-16 	0.52996744311314 	-0.000611944231953108 	0
6 	3.00171573456492 	1.87350135405495e-16 	0.487300562852701 	-0.000463585315304816 	0
6 	3.00683602665963 	1.87350135405495e-16 	0.438439511990179 	-0.000338150023572866 	0
6 	3.01177537592613 	1.87350135405495e-16 	0.381635823712949 	-0.000233511197997608 	0
6 	3.01654017659085 	1.87350135405495e-16 	0.316268996734705 	-0.000148639399190012 	0
6 	3.02113659691864 	1.87350135405495e-16 	0.244492639253957 	-8.39851821172903e-05 	0
6 	3.02557058719784 	1.87350135405495e-16 	0.170901975444626 	-3.97436259113716e-05 	0
6 	3.02984788744324 	1.90819582357449e-16 	0.0997101989648965 	-1.39704426596124e-05 	0
