# Wall shear stress
# Time        	patch         	min           	max           
1.540000e+03	wallTop	(-3.142002e+01 -1.964449e-15 -6.280254e-16)	(-7.782328e-02 2.492462e-15 1.347164e-15)
1.540000e+03	wallSide	(-2.482009e+01 -5.192753e-16 -1.032364e-16)	(-7.631923e-02 3.200710e-16 5.716303e-17)
