9.99999999996687e-07 	1.00593833258374 	1.38777878078145e-17 	0.117878726137445 	-9.2525958492392e-06 	-3.27930080191975e-24
9.99999999996688e-07 	1.01006700077429 	1.38777878078145e-17 	0.216147261125143 	0.000402825326927106 	-7.93490624488388e-25
9.99999999996688e-07 	1.0143469141712 	1.38777878078145e-17 	0.32477885495967 	0.00144160641997922 	-1.58711154938839e-24
9.99999999996688e-07 	1.01878361332929 	1.38777878078145e-17 	0.431015620932012 	0.00314018247115634 	-1.34134067834004e-24
9.99999999996688e-07 	1.02338284177015 	1.38777878078145e-17 	0.522849065496097 	0.00531181931936319 	-1.09582059193542e-24
9.99999999996688e-07 	1.02815055341735 	1.04083408558608e-17 	0.594927347813837 	0.00769135882363081 	8.37140714648785e-25
9.99999999996688e-07 	1.03309292030413 	3.46944695195361e-18 	0.647992821920793 	0.0100558529529867 	3.09204286413192e-24
9.99999999996688e-07 	1.03821634056339 	3.46944695195361e-18 	0.685724138545481 	0.0122671374604906 	2.02917977623244e-24
9.99999999996688e-07 	1.04352744671036 	3.46944695195361e-18 	0.712381862612171 	0.0142730520080081 	3.2207309489315e-25
9.99999999996688e-07 	1.04903311422874 	0 	0.731565655524421 	0.016078537782659 	4.35265980878462e-25
9.99999999996688e-07 	1.05474047047132 	-3.46944695195361e-18 	0.745859035844668 	0.0177119841236349 	8.70445010541167e-25
9.99999999996688e-07 	1.06065690388671 	-3.46944695195361e-18 	0.756964605133782 	0.0192055169044221 	4.35257580310313e-25
9.99999999996688e-07 	1.06679007358401 	0 	0.765966823309777 	0.0205875136091883 	0
9.99999999996688e-07 	1.07314791924792 	0 	0.773554770710842 	0.0218808891280268 	-3.11678495447756e-25
9.99999999996688e-07 	1.07973867141705 	-3.46944695195361e-18 	0.780172862420301 	0.0231034239745865 	-2.25094398411761e-18
9.99999999996687e-07 	1.08657086213875 	-1.04083408558608e-17 	0.786114400145994 	0.0242686561411686 	-2.46500778662883e-18
9.99999999996687e-07 	1.09365333601424 	-1.38777878078145e-17 	0.791578083345717 	0.025386802808716 	1.82274381583246e-18
9.99999999996687e-07 	1.10099526164836 	-1.38777878078145e-17 	0.796702173316091 	0.0264655373146329 	2.0368082793392e-18
9.99999999996687e-07 	1.10860614351883 	-2.08166817117217e-17 	0.801585436689712 	0.0275105907880542 	1.53780068870174e-25
9.99999999996687e-07 	1.11649583428022 	-2.77555756156289e-17 	0.806300235751027 	0.028526200595456 	-5.31080821828378e-25
9.99999999996687e-07 	1.12467454751866 	-2.42861286636753e-17 	0.81090088501533 	0.0295154400899204 	-2.63630016416559e-25
9.99999999996687e-07 	1.13315287097387 	-2.42861286636753e-17 	0.815429100997482 	0.0304804609774272 	-4.27212928214516e-25
9.99999999996687e-07 	1.1419417802455 	-2.77555756156289e-17 	0.819917632627151 	0.0314226721523619 	-1.64268062318204e-24
9.99999999996687e-07 	1.15105265300151 	-2.42861286636753e-17 	0.82439273215171 	0.0323428718942177 	-1.37979830152174e-24
9.99999999996687e-07 	1.1604972837072 	-2.08166817117217e-17 	0.828875874706813 	0.0332413453312327 	-3.97299366791929e-25
9.99999999996687e-07 	1.17028789889366 	-1.73472347597681e-17 	0.833384983307278 	0.0341179359653339 	-7.39272137216654e-25
9.99999999996687e-07 	1.1804371729856 	-1.38777878078145e-17 	0.83793532278103 	0.034972098433776 	-2.39693216925279e-24
9.99999999996687e-07 	1.19095824470904 	-1.73472347597681e-17 	0.84254016775823 	0.0358029389260512 	-2.95110655423215e-24
9.99999999996688e-07 	1.20186473410002 	-2.42861286636753e-17 	0.847211312681821 	0.0366092491116715 	-4.39706155855335e-25
9.99999999996687e-07 	1.21317076013637 	-2.42861286636753e-17 	0.851959467709521 	0.0373895386920642 	6.90493386696413e-25
9.99999999996687e-07 	1.22489095901541 	-1.73472347597681e-17 	0.856794568261372 	0.0381420706606003 	0
9.99999999996687e-07 	1.23704050310127 	-1.04083408558608e-17 	0.861726014726188 	0.0388649021276371 	0
9.99999999996687e-07 	1.24963512056618 	-1.04083408558608e-17 	0.866762850691773 	0.0395559323238041 	-1.22408588536371e-24
9.99999999996687e-07 	1.26269111575138 	-6.93889390390723e-18 	0.871913882242634 	0.0402129581423973 	-4.12901517456191e-24
9.99999999996687e-07 	1.27622539027388 	0 	0.877187737290163 	0.0408337359722607 	-4.88647178874489e-24
9.99999999996687e-07 	1.29025546490642 	3.46944695195361e-18 	0.882592862624682 	0.041416046868782 	-2.28193455348352e-24
9.99999999996687e-07 	1.30479950225895 	1.04083408558608e-17 	0.888137457137142 	0.0419577613616791 	-3.00375225562061e-25
9.99999999996687e-07 	1.31987633029101 	1.38777878078145e-17 	0.893829341560485 	0.0424569002823372 	-3.77363434422168e-24
9.99999999996687e-07 	1.33550546668544 	1.38777878078145e-17 	0.899675767094321 	0.0429116880259374 	-3.46716117091827e-24
9.99999999996687e-07 	1.35170714411495 	1.38777878078145e-17 	0.905683167078287 	0.0433205946929043 	1.34383902180826e-23
9.99999999996687e-07 	1.3685023364343 	1.38777878078145e-17 	0.911856857703508 	0.0436823638597837 	2.21848226225339e-23
9.99999999996687e-07 	1.38591278583198 	1.73472347597681e-17 	0.91820069587498 	0.0439960233331241 	9.05203750912021e-24
9.99999999996687e-07 	1.40396103097652 	1.73472347597681e-17 	0.924716705053126 	0.0442608770405958 	0
9.99999999996687e-07 	1.42267043619387 	1.73472347597681e-17 	0.931404683371804 	0.0444764770158226 	0
9.99999999996687e-07 	1.44206522171366 	2.42861286636753e-17 	0.93826181229921 	0.0446425753221046 	6.14417878121382e-24
9.99999999996687e-07 	1.46217049502345 	2.77555756156289e-17 	0.945282288079789 	0.0447590571853342 	1.2290487035001e-23
9.99999999996687e-07 	1.48301228337162 	2.77555756156289e-17 	0.952457001360433 	0.0448258586101907 	-7.96805353263057e-24
9.99999999996687e-07 	1.50461756746087 	2.77555756156289e-17 	0.959773291434211 	0.0448428736678126 	-4.32019702775206e-23
9.99999999996687e-07 	1.52701431637603 	2.77555756156289e-17 	0.967214799471283 	0.0448098578973188 	-1.30142598178639e-23
9.99999999996687e-07 	1.55023152379143 	2.77555756156289e-17 	0.974761440136 	0.0447263346251217 	4.71353309888886e-23
9.99999999996687e-07 	1.57429924550461 	2.77555756156289e-17 	0.982389504073326 	0.0445915104901146 	4.87252803270097e-23
9.99999999996687e-07 	1.59924863834497 	3.12250225675825e-17 	0.990071896001783 	0.044404205384768 	3.53397582391271e-23
9.99999999996687e-07 	1.62511200050781 	3.12250225675825e-17 	0.997778505376248 	0.0441628009173256 	1.767244415974e-23
9.99999999996687e-07 	1.65192281336592 	2.77555756156289e-17 	1.00547669911929 	0.0438652108293981 	0
9.99999999996687e-07 	1.67971578481282 	2.42861286636753e-17 	1.01313191880287 	0.0435088765905367 	2.02214026020586e-23
9.99999999996687e-07 	1.70852689419381 	2.08166817117217e-17 	1.02070835777792 	0.0430907911234766 	-4.46549462590432e-24
9.99999999996687e-07 	1.73839343888296 	1.73472347597681e-17 	1.0281696876413 	0.0426075527398576 	-6.96319902006286e-23
9.99999999996687e-07 	1.76935408256639 	1.38777878078145e-17 	1.03547980073729 	0.0420554490675134 	-4.49412524216758e-23
9.99999999996687e-07 	1.80144890529425 	1.38777878078145e-17 	1.04260354080457 	0.0414305666316671 	-4.78199028484775e-23
9.99999999996687e-07 	1.83471945536633 	1.38777878078145e-17 	1.04950740840208 	0.0407289191611725 	-9.56774492911959e-23
9.99999999996687e-07 	1.86920880311829 	1.38777878078145e-17 	1.05616024208303 	0.0399465919370398 	-4.78484059994356e-23
9.99999999996687e-07 	1.9049615966783 	1.73472347597681e-17 	1.06253388634548 	0.0390798928205745 	0
9.99999999996687e-07 	1.94202411976624 	2.08166817117217e-17 	1.06860390221488 	0.0381253483003841 	0
9.99999999996688e-07 	1.98044435161018 	2.08166817117217e-17 	1.07435026278595 	0.0370799681624845 	0
9.99999999996688e-07 	2.02025965173184 	2.08166817117217e-17 	1.07971438385922 	0.0359522829275795 	0
9.99999999996688e-07 	2.06006301192217 	2.08166817117217e-17 	1.08457179893078 	0.0347762840371575 	0
9.99999999996688e-07 	2.09845978584128 	1.73472347597681e-17 	1.08884658242928 	0.0335906833885578 	0
9.99999999996688e-07 	2.13549967996945 	1.38777878078145e-17 	1.0925763451543 	0.0324137029166387 	0
9.99999999996688e-07 	2.17123064424048 	1.04083408558608e-17 	1.09583170776382 	0.0312520307808491 	0
9.99999999996688e-07 	2.20569893411515 	6.93889390390723e-18 	1.09867008076467 	0.0301110453888167 	0
9.99999999996688e-07 	2.23894917046122 	6.93889390390723e-18 	1.10113742589787 	0.0289948802171166 	0
9.99999999996688e-07 	2.27102439731725 	0 	1.10327004498199 	0.0279065310009425 	0
9.99999999996688e-07 	2.30196613761521 	-6.93889390390723e-18 	1.10509621703959 	0.0268480333192765 	0
9.99999999996688e-07 	2.33181444693391 	-1.04083408558608e-17 	1.10663760233488 	0.0258206367959367 	0
9.99999999996688e-07 	2.3606079653529 	-6.93889390390723e-18 	1.10791039572158 	0.0248249612262379 	0
9.99999999996688e-07 	2.3883839674739 	0 	1.10892624386529 	0.0238611326544208 	0
9.99999999996688e-07 	2.41517841067461 	0 	1.10969295528987 	0.0229288983710068 	0
9.99999999996688e-07 	2.44102598165722 	0 	1.11021503699543 	0.0220277213677062 	0
9.99999999996688e-07 	2.46596014135207 	0 	1.11049409110841 	0.0211568561241904 	0
9.99999999996688e-07 	2.49001316823443 	0 	1.11052910250991 	0.0203154081870124 	0
9.99999999996688e-07 	2.51321620011054 	0 	1.11031664535382 	0.0195023801176581 	0
9.99999999996688e-07 	2.535599274427 	0 	1.10985103373297 	0.018716706267576 	0
9.99999999996688e-07 	2.55719136715571 	0 	1.10912443986941 	0.0179572786015981 	0
9.99999999996688e-07 	2.57802043030465 	0 	1.10812700213642 	0.017222965507372 	0
9.99999999996688e-07 	2.59811342810315 	3.46944695195361e-18 	1.10684694474409 	0.0165126252408643 	0
9.99999999996688e-07 	2.61749637190832 	3.46944695195361e-18 	1.10527073058517 	0.0158251153905425 	0
9.99999999996688e-07 	2.63619435387806 	0 	1.10338326786991 	0.0151592995053821 	0
9.99999999996688e-07 	2.65423157945406 	0 	1.10116818893053 	0.0145140518248947 	0
9.99999999996688e-07 	2.67163139869691 	3.46944695195361e-18 	1.09860821503035 	0.0138882608678123 	0
9.99999999996688e-07 	2.68841633651388 	6.93889390390723e-18 	1.09568561339135 	0.013280832472174 	0
9.99999999996688e-07 	2.7046081218185 	6.93889390390723e-18 	1.09238274162954 	0.0126906927261047 	0
9.99999999996688e-07 	2.72022771565972 	6.93889390390723e-18 	1.08868266083024 	0.0121167910818062 	0
9.99999999996688e-07 	2.73529533835694 	6.93889390390723e-18 	1.08456978313339 	0.0115581038076173 	0
9.99999999996688e-07 	2.74983049567625 	3.46944695195361e-18 	1.08003050549324 	0.0110136378149655 	0
9.99999999996688e-07 	2.76385200408156 	0 	1.07505377136915 	0.0104824348176407 	0
9.99999999996688e-07 	2.77737801509343 	0 	1.06963149932353 	0.00996357576596447 	0
9.99999999996688e-07 	2.79042603878708 	0 	1.06375882327617 	0.00945618557527569 	0
9.99999999996688e-07 	2.80301296646003 	-3.46944695195361e-18 	1.05743410266012 	0.00895943835295855 	0
9.99999999996688e-07 	2.81515509249872 	-3.46944695195361e-18 	1.05065867872521 	0.0084725636047799 	0
9.99999999996688e-07 	2.82686813547237 	-3.46944695195361e-18 	1.04343637097031 	0.00799485419379633 	0
9.99999999996688e-07 	2.83816725848142 	-3.46944695195361e-18 	1.03577272046075 	0.00752567698431313 	0
9.99999999996688e-07 	2.84906708878691 	-3.46944695195361e-18 	1.02767399176437 	0.00706448693958129 	0
9.99999999996688e-07 	2.85958173674616 	-1.04083408558608e-17 	1.01914594241803 	0.00661084482729649 	0
9.99999999996688e-07 	2.86972481407933 	-1.04083408558608e-17 	1.01019236046035 	0.00616443768452699 	0
9.99999999996688e-07 	2.87950945149043 	-1.04083408558608e-17 	1.00081335894168 	0.0057251002830451 	0
9.99999999996688e-07 	2.88894831566566 	-1.38777878078145e-17 	0.991003401811286 	0.00529283550143128 	0
9.99999999996689e-07 	2.89805362567106 	-1.38777878078145e-17 	0.98074901785325 	0.00486783163624683 	0
9.99999999996689e-07 	2.90683716877067 	-1.38777878078145e-17 	0.970026137844925 	0.00445047510721946 	0
9.99999999996688e-07 	2.91531031568569 	-1.38777878078145e-17 	0.958796958016058 	0.00404135778879592 	0
9.99999999996688e-07 	2.92348403531448 	-1.73472347597681e-17 	0.947006178449725 	0.00364127932753203 	0
9.99999999996688e-07 	2.93136890893229 	-2.08166817117217e-17 	0.934576382100687 	0.00325124606453162 	0
9.99999999996688e-07 	2.93897514388925 	-2.42861286636753e-17 	0.921402205401774 	0.00287246947645051 	0
9.99999999996688e-07 	2.94631258682425 	-2.77555756156289e-17 	0.907342797538333 	0.00250636808076287 	0
9.99999999996688e-07 	2.95339073641193 	-2.08166817117217e-17 	0.892211863315319 	0.00215457043157379 	0
9.99999999996688e-07 	2.96021875565915 	-1.38777878078145e-17 	0.87576432543115 	0.00181888829265486 	0
9.99999999996688e-07 	2.96680548376697 	-1.38777878078145e-17 	0.857678321833013 	0.00150122834295834 	0
9.99999999996688e-07 	2.97315944757337 	-1.38777878078145e-17 	0.83752849282178 	0.00120399418349047 	0
9.99999999996688e-07 	2.97928887259171 	-2.08166817117217e-17 	0.814712518843692 	0.000930480644173725 	0
9.99999999996688e-07 	2.98520169365902 	-2.42861286636753e-17 	0.788342812720074 	0.000684553487961031 	0
9.99999999996688e-07 	2.99090556520806 	-2.08166817117217e-17 	0.757234892544341 	0.00047066098987063 	0
9.99999999996688e-07 	2.99640787117633 	-2.08166817117217e-17 	0.719966776172841 	0.000293150433495149 	0
9.99999999996688e-07 	3.00171573456492 	-2.08166817117217e-17 	0.674869969093413 	0.000154630940102587 	0
9.99999999996688e-07 	3.00683602665962 	-2.08166817117217e-17 	0.620005194725116 	5.50903191414392e-05 	0
9.99999999996688e-07 	3.01177537592612 	-2.42861286636753e-17 	0.55316147673699 	-8.1508586690479e-06 	0
9.99999999996688e-07 	3.01654017659085 	-2.77555756156289e-17 	0.472441534316566 	-3.9900964012893e-05 	0
9.99999999996688e-07 	3.02113659691864 	-2.77555756156289e-17 	0.378246469349875 	-4.65543861584785e-05 	0
9.99999999996688e-07 	3.02557058719784 	-2.42861286636753e-17 	0.274432667638826 	-3.63823174700428e-05 	0
9.99999999996688e-07 	3.02984788744324 	-2.08166817117217e-17 	0.165981482718724 	-1.94031119056867e-05 	0
