/*--------------------------------*- C++ -*----------------------------------*\
  =========                 |
  \\      /  F ield         | OpenFOAM: The Open Source CFD Toolbox
   \\    /   O peration     | Website:  https://openfoam.org
    \\  /    A nd           | Version:  7
     \\/     M anipulation  |
\*---------------------------------------------------------------------------*/
FoamFile
{
    version     2.0;
    format      ascii;
    class       volScalarField;
    location    "0";
    object      Cy;
}
// * * * * * * * * * * * * * * * * * * * * * * * * * * * * * * * * * * * * * //

dimensions      [0 1 0 0 0 0 0];

internalField   nonuniform List<scalar> 
15600
(
1.00195544733151
1.00195488366535
1.00079174802999
0.996530632836499
0.987732063851907
0.973262882318487
0.952742252468112
0.92706590456244
0.897720136934444
0.865864361386416
0.832307059793597
0.797615064458347
0.762220111263612
0.726484992641817
0.690738807814791
0.655252105080345
0.620131977782653
0.585357544420413
0.550891421113546
0.516694376359836
0.482723515931275
0.44893255014321
0.415274117966795
0.381712646504866
0.348293509396282
0.31515621818696
0.282468860349954
0.250418254286868
0.21921464217299
0.189102472089459
0.160371926755589
0.133347539200927
0.108312893111372
0.0854826958123155
0.0650628734625698
0.0472644037392387
0.0322971331171819
0.0203615131916949
0.0116359265729288
0.00626607311243094
0.00417345479003709
0.00391089466302134
0.00391089466302149
0.00391089466302136
0.00391089466302131
0.00391089466302129
0.00391089466302146
0.0039108946630212
0.00391089466302126
0.00391089466302129
0.00391089466302123
0.00391089466302131
0.00391089466302126
0.00391089466302143
0.00391089466302154
0.00391089466302142
0.00391089466302138
0.0039108946630212
0.00391089466302126
0.00391089466302132
0.00391089466302129
0.00391089466302123
0.00391089466302121
0.00391089466302137
0.00391089466302136
0.00391089466302137
0.00391089466302145
0.00391089466302146
0.00391089466302136
0.00391089466302138
0.0039108946630212
0.00391089466302126
0.00391089466302125
0.00391089466302138
0.00391089466302121
0.00391089466302137
0.00391089466302136
0.00391089466302149
0.00391089466302134
0.00417345479003684
0.00626607311243074
0.0116359265729283
0.0203615131916941
0.0322971331171813
0.0472644037392378
0.065062873462568
0.0854826958123152
0.108312893111371
0.133347539200925
0.160371926755588
0.189102472089454
0.219214642172987
0.250418254286865
0.28246886034995
0.315156218186957
0.348293509396279
0.381712646504862
0.415274117966795
0.448932550143206
0.482723515931274
0.516694376359833
0.550891421113549
0.585357544420406
0.620131977782654
0.655252105080342
0.690738807814785
0.726484992641814
0.762220111263612
0.797615064458349
0.83230705979359
0.865864361386412
0.897720136934446
0.927065904562438
0.952742252468109
0.973262882318486
0.987732063851907
0.996530632836499
1.00079174802999
1.00195488366535
1.00195544733151
1.00593820626292
1.00593764484615
1.00477915077632
1.00053503965279
0.991771581983692
0.977360143582332
0.956921414084118
0.931347549199416
0.902118910831937
0.87039027917149
0.836966906556984
0.802413362364809
0.767159659287355
0.731567142242972
0.695963597866155
0.660618497530022
0.625638511050197
0.591002840430904
0.556674250774036
0.522613666963935
0.488778365768545
0.45512224211465
0.421598123898289
0.38817057983355
0.354884801283081
0.321879742836727
0.289322821275037
0.257400109820146
0.226321011699918
0.196328999921179
0.167713099316323
0.140796548330056
0.115861799622839
0.0931227037352072
0.0727843649751292
0.0550569189779612
0.0401493747246398
0.0282613837900233
0.0195706167912242
0.0142221921054997
0.0121379248204266
0.0118764125258418
0.0118764125258417
0.0118764125258418
0.0118764125258417
0.0118764125258419
0.0118764125258417
0.0118764125258417
0.0118764125258416
0.0118764125258416
0.0118764125258417
0.0118764125258419
0.0118764125258419
0.0118764125258418
0.0118764125258419
0.0118764125258419
0.0118764125258416
0.0118764125258417
0.0118764125258418
0.0118764125258416
0.0118764125258415
0.0118764125258417
0.0118764125258417
0.0118764125258416
0.0118764125258419
0.0118764125258419
0.0118764125258418
0.011876412525842
0.0118764125258419
0.0118764125258416
0.0118764125258417
0.0118764125258417
0.0118764125258418
0.0118764125258415
0.0118764125258418
0.0118764125258416
0.0118764125258419
0.0118764125258417
0.0118764125258418
0.0121379248204267
0.0142221921054994
0.0195706167912238
0.0282613837900227
0.0401493747246389
0.0550569189779603
0.0727843649751286
0.0931227037352045
0.115861799622836
0.140796548330054
0.167713099316323
0.196328999921176
0.226321011699913
0.257400109820145
0.289322821275031
0.321879742836724
0.354884801283081
0.388170579833547
0.421598123898286
0.455122242114649
0.488778365768541
0.522613666963934
0.556674250774032
0.591002840430905
0.625638511050193
0.660618497530018
0.695963597866155
0.73156714224297
0.767159659287352
0.802413362364807
0.836966906556981
0.870390279171487
0.902118910831935
0.931347549199416
0.956921414084116
0.977360143582332
0.991771581983691
1.00053503965279
1.00477915077632
1.00593764484615
1.00593820626292
1.01006686497724
1.01006630589225
1.00891262342834
1.00468613931288
0.995959079265107
0.98160749942522
0.961253670665535
0.935786043120562
0.906678824800552
0.875081994649505
0.841797457194465
0.807387436005936
0.772280157466925
0.736835465952755
0.701379787417946
0.666181476843947
0.631346764990707
0.596854940429318
0.562668922704308
0.52874979881788
0.495055022799691
0.461538680952326
0.428153797018902
0.39486508651221
0.361717551836672
0.328849570220026
0.296427863177673
0.264637731453315
0.233687708589976
0.203820256800537
0.175323200610054
0.148518436456898
0.123687244554519
0.101042587277602
0.080788716980877
0.0631348964155902
0.0482892663943239
0.0364506491695727
0.0277959772862505
0.0224697663512243
0.0203941560291232
0.0201337299544788
0.0201337299544788
0.0201337299544786
0.0201337299544787
0.0201337299544788
0.0201337299544788
0.0201337299544788
0.0201337299544789
0.0201337299544787
0.0201337299544788
0.0201337299544788
0.020133729954479
0.0201337299544789
0.0201337299544787
0.0201337299544788
0.0201337299544788
0.0201337299544787
0.0201337299544788
0.0201337299544788
0.0201337299544788
0.0201337299544788
0.0201337299544787
0.0201337299544788
0.0201337299544788
0.0201337299544787
0.0201337299544789
0.020133729954479
0.0201337299544788
0.0201337299544788
0.0201337299544788
0.0201337299544787
0.0201337299544788
0.0201337299544789
0.0201337299544785
0.0201337299544788
0.0201337299544788
0.0201337299544788
0.0201337299544787
0.0203941560291232
0.0224697663512241
0.02779597728625
0.036450649169572
0.0482892663943229
0.0631348964155893
0.0807887169808752
0.1010425872776
0.123687244554518
0.148518436456896
0.17532320061005
0.203820256800536
0.233687708589973
0.264637731453313
0.29642786317767
0.328849570220026
0.361717551836669
0.394865086512206
0.428153797018896
0.461538680952325
0.495055022799687
0.528749798817877
0.562668922704306
0.596854940429317
0.631346764990701
0.666181476843949
0.701379787417943
0.736835465952754
0.772280157466923
0.807387436005932
0.841797457194467
0.875081994649503
0.90667882480055
0.935786043120558
0.961253670665533
0.981607499425219
0.995959079265107
1.00468613931288
1.00891262342834
1.01006630589225
1.01006686497724
1.01434676818499
1.01434621151721
1.01319751692915
1.00898930558217
1.00029997658846
0.986010448243645
0.965744630532027
0.940387132182039
0.91140578188042
0.879945581480617
0.846804965091818
0.812543724563864
0.777588234539786
0.742296783880171
0.706994388004507
0.671948244588681
0.63726412924014
0.602921420270492
0.568883197327818
0.535110715473606
0.501561612494656
0.468190173081611
0.434949624000515
0.401804832940394
0.368800606420249
0.336074723151964
0.303793183912714
0.272140488668678
0.241324269414343
0.211585940540449
0.183212082290054
0.156523199936702
0.131799358308707
0.109252599084713
0.0890862914614397
0.0715087933341422
0.0567273455493337
0.0449399106622153
0.0363226561112457
0.0310194726570569
0.0289528364307415
0.0286935363699744
0.0286935363699746
0.0286935363699747
0.0286935363699744
0.0286935363699745
0.0286935363699747
0.0286935363699745
0.0286935363699746
0.0286935363699747
0.0286935363699745
0.0286935363699748
0.0286935363699746
0.0286935363699745
0.0286935363699747
0.0286935363699746
0.0286935363699746
0.0286935363699746
0.0286935363699746
0.0286935363699746
0.0286935363699746
0.0286935363699746
0.0286935363699747
0.0286935363699745
0.0286935363699746
0.0286935363699747
0.0286935363699745
0.0286935363699747
0.0286935363699748
0.0286935363699745
0.0286935363699746
0.0286935363699747
0.0286935363699745
0.0286935363699746
0.0286935363699747
0.0286935363699746
0.0286935363699746
0.0286935363699744
0.0286935363699747
0.0289528364307415
0.0310194726570565
0.0363226561112453
0.0449399106622147
0.056727345549333
0.0715087933341413
0.0890862914614391
0.109252599084711
0.131799358308705
0.156523199936699
0.183212082290051
0.211585940540448
0.241324269414338
0.272140488668678
0.303793183912709
0.336074723151958
0.368800606420246
0.401804832940394
0.434949624000515
0.468190173081605
0.501561612494655
0.535110715473605
0.568883197327814
0.60292142027049
0.637264129240139
0.671948244588677
0.706994388004508
0.742296783880166
0.777588234539786
0.812543724563862
0.846804965091815
0.879945581480615
0.911405781880416
0.940387132182039
0.965744630532025
0.986010448243644
1.00029997658846
1.00898930558217
1.01319751692915
1.01434621151721
1.01434676818499
1.01878345638711
1.0187829022251
1.01763937824062
1.01345010908102
1.0047998934279
0.990574689855907
0.970400107452638
0.945156772728105
0.91630590135786
0.884987335821303
0.851995912714867
0.817888903106984
0.783090762073711
0.747958165975219
0.712814668013945
0.677926266146256
0.643398264139671
0.609210133336385
0.575325119356551
0.541704651480207
0.508306557984794
0.475085329218257
0.441994402408449
0.40899880299506
0.376143134430395
0.343564554981574
0.311428318281062
0.279918094181664
0.249240580098009
0.219636104214059
0.191389956904971
0.164821201320375
0.140208642393245
0.117763367384789
0.0976878299861692
0.0801894500938928
0.0654745356263091
0.0537401579541104
0.0451616913849817
0.0398823789491972
0.0378250455692123
0.0375669127742231
0.0375669127742232
0.037566912774223
0.0375669127742231
0.037566912774223
0.0375669127742231
0.0375669127742231
0.037566912774223
0.037566912774223
0.0375669127742232
0.0375669127742232
0.037566912774223
0.0375669127742231
0.037566912774223
0.0375669127742231
0.037566912774223
0.0375669127742231
0.037566912774223
0.037566912774223
0.037566912774223
0.037566912774223
0.037566912774223
0.0375669127742231
0.0375669127742231
0.037566912774223
0.0375669127742231
0.0375669127742231
0.037566912774223
0.0375669127742231
0.0375669127742229
0.0375669127742229
0.0375669127742232
0.0375669127742229
0.037566912774223
0.0375669127742231
0.037566912774223
0.0375669127742231
0.0375669127742231
0.037825045569212
0.039882378949197
0.0451616913849811
0.0537401579541098
0.0654745356263081
0.0801894500938919
0.0976878299861677
0.117763367384788
0.140208642393243
0.164821201320374
0.191389956904967
0.219636104214057
0.249240580098007
0.279918094181661
0.311428318281059
0.343564554981574
0.376143134430393
0.408998802995052
0.441994402408446
0.475085329218255
0.508306557984794
0.541704651480203
0.57532511935655
0.609210133336383
0.643398264139669
0.677926266146256
0.712814668013941
0.747958165975219
0.783090762073706
0.817888903106984
0.851995912714861
0.884987335821303
0.916305901357859
0.945156772728104
0.970400107452637
0.990574689855906
1.0047998934279
1.01345010908102
1.01763937824062
1.0187829022251
1.01878345638711
1.02338267304721
1.02338212148275
1.022243957524
1.01807432449608
1.00946465511396
0.995306132880727
0.975226128172014
0.95010113930194
0.921385526687146
0.890213784475087
0.857377020001364
0.823429891231159
0.788794863362371
0.753826941181351
0.71884816209747
0.684123280378582
0.649757110652507
0.615729220702806
0.58200302820545
0.548540143044115
0.515298590967194
0.482233075515609
0.449297252090468
0.416456309660801
0.383754641167509
0.351328761700401
0.319343150373134
0.287980616514574
0.257446888717729
0.227981169169022
0.199867411119514
0.173423182769287
0.148925983016172
0.126585909747718
0.106604467617391
0.089188104166456
0.0745421602159937
0.0628627833119844
0.0543245255807093
0.0490699586001107
0.0470222688603416
0.0467653460944177
0.0467653460944176
0.0467653460944179
0.0467653460944177
0.0467653460944177
0.0467653460944176
0.0467653460944177
0.0467653460944177
0.046765346094418
0.0467653460944179
0.0467653460944176
0.0467653460944177
0.0467653460944179
0.0467653460944178
0.0467653460944176
0.0467653460944177
0.0467653460944177
0.0467653460944177
0.0467653460944176
0.0467653460944176
0.0467653460944177
0.0467653460944177
0.0467653460944177
0.0467653460944176
0.0467653460944179
0.0467653460944178
0.0467653460944176
0.0467653460944178
0.0467653460944178
0.0467653460944179
0.0467653460944177
0.0467653460944175
0.0467653460944176
0.0467653460944178
0.0467653460944176
0.0467653460944177
0.0467653460944178
0.0467653460944176
0.0470222688603414
0.0490699586001103
0.0543245255807088
0.0628627833119837
0.0745421602159932
0.0891881041664547
0.10660446761739
0.126585909747717
0.148925983016169
0.173423182769284
0.199867411119513
0.227981169169017
0.257446888717729
0.28798061651457
0.319343150373135
0.351328761700394
0.383754641167506
0.416456309660804
0.449297252090463
0.482233075515606
0.515298590967192
0.548540143044113
0.58200302820545
0.615729220702803
0.649757110652506
0.684123280378579
0.718848162097467
0.75382694118135
0.788794863362367
0.823429891231158
0.857377020001364
0.890213784475083
0.921385526687143
0.950101139301939
0.975226128172012
0.995306132880726
1.00946465511396
1.01807432449608
1.022243957524
1.02338212148275
1.02338267304721
1.02815037202648
1.02814982315474
1.02701721558356
1.02286793805562
1.01430030037457
1.0002109023862
0.980228940212344
0.955226632638966
0.926651233702472
0.895631693341835
0.862955253060307
0.829173862017493
0.794707922646817
0.759910706923176
0.725102680923458
0.690547309645884
0.656348900643983
0.622487121678585
0.588925568788359
0.555626039079823
0.52254676300848
0.489642665120089
0.456867626983097
0.424187007086228
0.391644980141063
0.359377394494596
0.327547926364498
0.296338493030927
0.265953818768814
0.236631938518544
0.208655419419465
0.182340279961495
0.157962665178348
0.135731647347635
0.115847747325044
0.0985164046819194
0.0839419577217953
0.0723195963305407
0.0638230203385264
0.0585941052808795
0.0565564124597546
0.0563007440529548
0.0563007440529547
0.0563007440529545
0.0563007440529548
0.0563007440529548
0.0563007440529547
0.0563007440529547
0.0563007440529547
0.0563007440529547
0.0563007440529548
0.0563007440529548
0.0563007440529549
0.0563007440529547
0.0563007440529548
0.0563007440529548
0.0563007440529546
0.0563007440529549
0.0563007440529547
0.0563007440529546
0.0563007440529546
0.0563007440529549
0.0563007440529548
0.0563007440529547
0.0563007440529547
0.0563007440529547
0.056300744052955
0.0563007440529549
0.0563007440529548
0.0563007440529547
0.0563007440529547
0.0563007440529547
0.0563007440529547
0.0563007440529548
0.0563007440529547
0.0563007440529547
0.0563007440529546
0.0563007440529546
0.0563007440529548
0.0565564124597546
0.0585941052808791
0.0638230203385259
0.0723195963305401
0.0839419577217944
0.0985164046819187
0.115847747325043
0.135731647347633
0.157962665178347
0.182340279961493
0.208655419419462
0.236631938518543
0.265953818768811
0.296338493030924
0.327547926364491
0.359377394494595
0.391644980141062
0.424187007086221
0.456867626983098
0.489642665120084
0.52254676300848
0.555626039079821
0.588925568788356
0.622487121678583
0.656348900643979
0.69054730964588
0.725102680923459
0.75991070692317
0.79470792264682
0.829173862017489
0.862955253060303
0.895631693341834
0.926651233702472
0.955226632638962
0.980228940212344
1.0002109023862
1.01430030037457
1.02286793805562
1.02701721558356
1.02814982315474
1.02815037202648
1.03309272529102
1.03309217921064
1.03196533158282
1.02783715527878
1.01931308915232
1.00529534781888
0.985415019961101
0.960539887952963
0.932109839130761
0.901248076176595
0.868737833189925
0.835128251318244
0.800837594674771
0.766217338941749
0.731586321288822
0.697206670192161
0.663182167538249
0.629492584730832
0.596101702709463
0.562971512665411
0.530060457262699
0.497323690150088
0.464715327350419
0.432200903081867
0.399824365825694
0.367720872756938
0.336053267780208
0.305002543447354
0.274772382917892
0.245599611126687
0.21776535831872
0.191584036507422
0.167330387282341
0.145212419748011
0.125429634929349
0.10818642750887
0.0936860965553048
0.0821228392200871
0.0736694718203419
0.0684671483576133
0.0664398186754708
0.0661854505820374
0.0661854505820372
0.0661854505820372
0.0661854505820374
0.0661854505820373
0.0661854505820373
0.0661854505820372
0.0661854505820372
0.0661854505820373
0.0661854505820372
0.0661854505820372
0.0661854505820373
0.0661854505820373
0.0661854505820373
0.0661854505820371
0.0661854505820374
0.0661854505820372
0.0661854505820373
0.0661854505820373
0.0661854505820373
0.0661854505820374
0.0661854505820374
0.0661854505820372
0.066185450582037
0.0661854505820375
0.0661854505820374
0.0661854505820373
0.0661854505820371
0.0661854505820372
0.0661854505820375
0.0661854505820373
0.0661854505820371
0.0661854505820375
0.0661854505820374
0.0661854505820373
0.0661854505820372
0.0661854505820371
0.0661854505820373
0.0664398186754706
0.0684671483576131
0.0736694718203413
0.0821228392200865
0.093686096555304
0.108186427508868
0.125429634929348
0.14521241974801
0.167330387282339
0.19158403650742
0.217765358318719
0.245599611126685
0.274772382917888
0.305002543447353
0.336053267780207
0.367720872756934
0.399824365825687
0.432200903081867
0.464715327350416
0.497323690150085
0.530060457262697
0.562971512665409
0.596101702709462
0.629492584730829
0.663182167538247
0.697206670192161
0.731586321288819
0.76621733894175
0.800837594674766
0.835128251318242
0.868737833189925
0.90124807617659
0.932109839130758
0.960539887952962
0.985415019961098
1.00529534781888
1.01931308915231
1.02783715527878
1.03196533158282
1.03309217921064
1.03309272529102
1.03821613090147
1.0382155877147
1.03709471104358
1.03298840900866
1.02450951070802
1.0105660512234
0.990791081055068
0.966047783525761
0.93776840941631
0.907070203669279
0.874732246226021
0.841300767382927
0.807191814610079
0.772755001490163
0.738307476600795
0.70410998291109
0.670265757365369
0.636754678810431
0.603540719864712
0.570586072917757
0.537849400618479
0.505286094113627
0.472850512471201
0.440508372076066
0.408303386884559
0.376369997575416
0.344870185245176
0.313983983840431
0.283913997259542
0.254895796105916
0.227209021086828
0.201166418893583
0.177041276276472
0.155040500228347
0.135362534590865
0.118210690886819
0.103787190888457
0.0922852026541689
0.083876626627307
0.0787018688518462
0.0766852819450571
0.0764322618029348
0.0764322618029346
0.0764322618029347
0.0764322618029346
0.0764322618029348
0.0764322618029347
0.0764322618029346
0.0764322618029347
0.0764322618029346
0.0764322618029348
0.0764322618029345
0.0764322618029347
0.0764322618029346
0.0764322618029347
0.0764322618029348
0.0764322618029346
0.0764322618029348
0.0764322618029346
0.0764322618029347
0.0764322618029347
0.0764322618029345
0.0764322618029348
0.0764322618029346
0.0764322618029349
0.0764322618029345
0.0764322618029347
0.0764322618029345
0.0764322618029347
0.0764322618029348
0.0764322618029345
0.0764322618029347
0.0764322618029347
0.0764322618029346
0.0764322618029347
0.0764322618029348
0.0764322618029347
0.0764322618029348
0.0764322618029346
0.0766852819450571
0.0787018688518458
0.0838766266273066
0.0922852026541681
0.103787190888456
0.118210690886819
0.135362534590863
0.155040500228345
0.17704127627647
0.201166418893581
0.227209021086826
0.254895796105911
0.283913997259542
0.313983983840425
0.344870185245173
0.376369997575415
0.408303386884556
0.440508372076066
0.472850512471198
0.505286094113622
0.537849400618476
0.570586072917757
0.603540719864708
0.636754678810428
0.670265757365368
0.704109982911085
0.738307476600794
0.77275500149016
0.807191814610079
0.841300767382925
0.874732246226016
0.907070203669279
0.937768409416308
0.966047783525759
0.990791081055068
1.0105660512234
1.02450951070802
1.03298840900866
1.03709471104359
1.0382155877147
1.03821613090147
1.04352722129529
1.04352668110815
1.04241199413786
1.0383283677397
1.02989629202124
1.01602983576315
0.99636408307151
0.971757449611579
0.943634269868725
0.913105612856982
0.880946252232781
0.847699400837028
0.813778808305216
0.779532157902615
0.745274847742698
0.711266184506327
0.677608840213088
0.644282805092416
0.611252250468246
0.57847957730276
0.545923676291196
0.513540184780956
0.481283713790827
0.449120168545414
0.417093019877134
0.385335965716072
0.35401009273814
0.323294441166645
0.293390496095152
0.26453252784583
0.236998633015984
0.211099831973778
0.187107903353627
0.165228611672321
0.145659304867967
0.128602171631285
0.114258316982708
0.102819842197718
0.0944576983003231
0.0893115159855812
0.0873060653980433
0.0870544425905777
0.0870544425905779
0.0870544425905776
0.0870544425905777
0.0870544425905777
0.087054442590578
0.087054442590578
0.0870544425905775
0.0870544425905779
0.0870544425905777
0.0870544425905778
0.0870544425905775
0.0870544425905779
0.0870544425905779
0.0870544425905777
0.0870544425905777
0.0870544425905777
0.0870544425905778
0.0870544425905777
0.0870544425905777
0.0870544425905778
0.0870544425905778
0.0870544425905778
0.0870544425905778
0.0870544425905779
0.0870544425905777
0.0870544425905779
0.0870544425905777
0.0870544425905777
0.0870544425905779
0.0870544425905777
0.0870544425905777
0.0870544425905777
0.0870544425905779
0.0870544425905777
0.0870544425905778
0.0870544425905778
0.0870544425905777
0.0873060653980431
0.0893115159855808
0.0944576983003225
0.102819842197717
0.114258316982707
0.128602171631285
0.145659304867966
0.165228611672319
0.187107903353625
0.211099831973777
0.23699863301598
0.264532527845828
0.293390496095148
0.323294441166644
0.354010092738139
0.385335965716066
0.417093019877133
0.449120168545408
0.481283713790824
0.513540184780956
0.545923676291194
0.578479577302758
0.611252250468243
0.644282805092415
0.677608840213084
0.711266184506326
0.745274847742695
0.77953215790261
0.813778808305218
0.847699400837028
0.880946252232778
0.91310561285698
0.943634269868724
0.971757449611577
0.996364083071509
1.01602983576315
1.02989629202124
1.0383283677397
1.04241199413786
1.04352668110815
1.04352722129529
1.04903287187247
1.04903233479483
1.04792406428355
1.04386394425006
1.03548040649847
1.02169377455311
1.00214124053768
0.977676277667571
0.949715014145968
0.919362116881086
0.887387895548589
0.854332435026274
0.82060710295007
0.786557581550675
0.752497454337765
0.718684539060643
0.685220922098142
0.652086709146458
0.619246277519391
0.586662244396548
0.554293736876417
0.522096647528725
0.490025848555036
0.458047440937184
0.426204643469184
0.394630384117977
0.363484822367904
0.332945968314315
0.303214147253178
0.274522281592392
0.247146867247359
0.221397135027748
0.197543300225156
0.175789943037956
0.156333275362553
0.139374321932475
0.125113030116379
0.113740395336988
0.105426384424975
0.100309824332392
0.0983159180250294
0.0980657437449304
0.0980657437449307
0.0980657437449305
0.0980657437449306
0.0980657437449304
0.0980657437449305
0.0980657437449304
0.0980657437449306
0.0980657437449304
0.0980657437449302
0.0980657437449306
0.0980657437449309
0.0980657437449303
0.0980657437449305
0.0980657437449305
0.0980657437449306
0.0980657437449303
0.0980657437449304
0.0980657437449304
0.0980657437449307
0.0980657437449306
0.0980657437449305
0.0980657437449305
0.0980657437449305
0.0980657437449305
0.0980657437449304
0.0980657437449303
0.0980657437449306
0.0980657437449304
0.0980657437449302
0.0980657437449304
0.0980657437449306
0.0980657437449304
0.0980657437449307
0.0980657437449304
0.0980657437449304
0.0980657437449304
0.0980657437449304
0.0983159180250293
0.100309824332392
0.105426384424974
0.113740395336987
0.125113030116378
0.139374321932474
0.156333275362552
0.175789943037953
0.197543300225155
0.221397135027744
0.247146867247358
0.27452228159239
0.303214147253173
0.332945968314312
0.363484822367901
0.394630384117973
0.426204643469183
0.458047440937182
0.490025848555034
0.522096647528723
0.554293736876413
0.586662244396545
0.61924627751939
0.652086709146454
0.68522092209814
0.718684539060641
0.752497454337761
0.786557581550676
0.820607102950066
0.854332435026272
0.887387895548585
0.919362116881083
0.949715014145966
0.977676277667571
1.00214124053768
1.02169377455311
1.03548040649847
1.04386394425006
1.04792406428355
1.04903233479483
1.04903287187247
1.05474020989568
1.05473967604147
1.05363805705508
1.04960230455024
1.04126908300027
1.02756519981623
1.00813003227044
0.983811929922519
0.956018514084793
0.925847815101812
0.89406551519983
0.86120845673986
0.827685538110843
0.7938403672009
0.759984646425587
0.72637465002889
0.693111857272432
0.660176493553184
0.627533149726376
0.59514466711416
0.562970417881565
0.530966559172969
0.499088233943095
0.467301746101872
0.43565005316327
0.404265284919305
0.373306639690843
0.342951059706857
0.313397667970676
0.28487798959789
0.257666861177166
0.232071658408116
0.208360975990927
0.186738166431122
0.167398263975503
0.150541086769343
0.136365382132068
0.125060999133308
0.116796884363037
0.111711031596787
0.109729092475717
0.109480419791364
0.109480419791364
0.109480419791365
0.109480419791364
0.109480419791364
0.109480419791365
0.109480419791365
0.109480419791364
0.109480419791364
0.109480419791364
0.109480419791364
0.109480419791364
0.109480419791364
0.109480419791364
0.109480419791364
0.109480419791364
0.109480419791364
0.109480419791364
0.109480419791364
0.109480419791365
0.109480419791364
0.109480419791364
0.109480419791364
0.109480419791364
0.109480419791364
0.109480419791364
0.109480419791364
0.109480419791364
0.109480419791364
0.109480419791364
0.109480419791364
0.109480419791364
0.109480419791365
0.109480419791364
0.109480419791364
0.109480419791364
0.109480419791364
0.109480419791364
0.109729092475717
0.111711031596786
0.116796884363036
0.125060999133307
0.136365382132068
0.150541086769342
0.167398263975501
0.186738166431121
0.208360975990925
0.232071658408115
0.257666861177163
0.284877989597887
0.313397667970675
0.342951059706855
0.373306639690837
0.404265284919304
0.435650053163266
0.467301746101872
0.499088233943093
0.530966559172966
0.562970417881563
0.595144667114157
0.627533149726373
0.660176493553182
0.69311185727243
0.726374650028888
0.759984646425586
0.793840367200897
0.827685538110839
0.861208456739858
0.894065515199829
0.925847815101812
0.95601851408479
0.983811929922512
1.00813003227043
1.02756519981622
1.04126908300027
1.04960230455024
1.05363805705508
1.05473967604147
1.05474020989568
1.06065662371654
1.06065609320383
1.0595613694203
1.05555087715948
1.04726981519915
1.03365171237523
1.01433821105798
0.990172349296036
0.962552929891317
0.932571103583298
0.900987755696212
0.868336367326478
0.835023277173338
0.801389942788523
0.767746116566304
0.734346472670295
0.70129186098005
0.668562630982694
0.636123594903476
0.603937826422862
0.571964951753283
0.540161402308901
0.508482601718738
0.476895064254371
0.445441476568925
0.414253141033805
0.38348825958954
0.353322667477724
0.323954241356599
0.295613057862537
0.268572233463723
0.24313722079716
0.21957493462737
0.198087454804486
0.178868594794244
0.162116921961547
0.148029939626843
0.136796308523518
0.128583917633497
0.123529897044838
0.121560363508894
0.121313247433073
0.121313247433073
0.121313247433073
0.121313247433073
0.121313247433074
0.121313247433074
0.121313247433074
0.121313247433073
0.121313247433073
0.121313247433073
0.121313247433073
0.121313247433073
0.121313247433073
0.121313247433074
0.121313247433074
0.121313247433073
0.121313247433073
0.121313247433073
0.121313247433073
0.121313247433073
0.121313247433073
0.121313247433073
0.121313247433073
0.121313247433074
0.121313247433074
0.121313247433073
0.121313247433073
0.121313247433073
0.121313247433074
0.121313247433074
0.121313247433073
0.121313247433073
0.121313247433073
0.121313247433073
0.121313247433074
0.121313247433074
0.121313247433073
0.121313247433073
0.121560363508893
0.123529897044838
0.128583917633496
0.136796308523518
0.148029939626842
0.162116921961546
0.178868594794242
0.198087454804484
0.219574934627369
0.243137220797157
0.268572233463722
0.295613057862536
0.323954241356596
0.353322667477719
0.383488259589538
0.414253141033802
0.445441476568922
0.47689506425437
0.508482601718737
0.540161402308895
0.571964951753281
0.603937826422861
0.636123594903473
0.668562630982692
0.701291860980048
0.734346472670293
0.767746116566301
0.801389942788523
0.835023277173335
0.868336367326476
0.900987755696208
0.932571103583295
0.962552929891319
0.990172349296035
1.01433821105798
1.03365171237523
1.04726981519915
1.05555087715948
1.0595613694203
1.06065609320383
1.06065662371654
1.06678977233971
1.06678924529093
1.06570166931589
1.06171736272199
1.05349037128025
1.03996119149218
1.0207738136962
0.996765769681197
0.969326720704903
0.939540685962766
0.908163578221527
0.875725394217578
0.84262981920544
0.809216081622451
0.775791912388227
0.742610326936203
0.709771522681602
0.677255977752173
0.645028733858969
0.613053105557823
0.581288982418677
0.549693080175976
0.518221113417825
0.486839814483291
0.45559158923222
0.424606882297927
0.394042862733168
0.364074218237818
0.33489753345821
0.306741383489364
0.279877101657578
0.254608147095729
0.231199693116158
0.209852500304802
0.190759116635565
0.174116812882674
0.160121802808762
0.148961515290757
0.140802742966888
0.135781720609947
0.133825047118247
0.133579544679414
0.133579544679413
0.133579544679413
0.133579544679413
0.133579544679413
0.133579544679413
0.133579544679413
0.133579544679413
0.133579544679413
0.133579544679413