/*--------------------------------*- C++ -*----------------------------------*\
  =========                 |
  \\      /  F ield         | OpenFOAM: The Open Source CFD Toolbox
   \\    /   O peration     | Website:  https://openfoam.org
    \\  /    A nd           | Version:  7
     \\/     M anipulation  |
\*---------------------------------------------------------------------------*/
FoamFile
{
    version     2.0;
    format      ascii;
    class       volScalarField;
    location    "0";
    object      k_LES;
}
// * * * * * * * * * * * * * * * * * * * * * * * * * * * * * * * * * * * * * //

dimensions      [0 2 -2 0 0 0 0];

internalField   nonuniform List<scalar>
15600
(
0.00514870
0.00523008
0.00426657
0.00134355
0.00040994
0.00042160
0.00065977
0.00077963
0.00013477
0.00062679
0.00006681
0.00036857
0.00036442
0.00044507
0.00009072
0.00037852
0.00022304
0.00011829
0.00027835
0.00017661
0.00005346
0.00013329
0.00023845
0.00008743
0.00019531
0.00025864
0.00014262
0.00020891
0.00008806
0.00024711
0.00031063
0.00025542
0.00023884
0.00040468
0.00034176
0.00043345
0.00039159
0.00050511
0.00037119
0.00048095
0.00033175
0.00035403
0.00040961
0.00047632
0.00049927
0.00054465
0.00059325
0.00062104
0.00067034
0.00070844
0.00074866
0.00078343
0.00082234
0.00086029
0.00087051
0.00090647
0.00091773
0.00096584
0.00095682
0.00098511
0.00100460
0.00101623
0.00101567
0.00101421
0.00099331
0.00099886
0.00101934
0.00099933
0.00101773
0.00107839
0.00108689
0.00105041
0.00108630
0.00107692
0.00106755
0.00111332
0.00114388
0.00120157
0.00122743
0.00140968
0.00201096
0.00162836
0.00095819
0.00054182
0.00026882
0.00016403
0.00007322
-0.00003510
0.00005647
-0.00015480
-0.00014780
-0.00009516
-0.00000891
-0.00008727
-0.00024314
-0.00015424
-0.00006257
0.00012898
-0.00003540
-0.00005766
0.00007917
-0.00054839
-0.00024309
-0.00030844
-0.00005336
-0.00013881
0.00007152
-0.00060647
-0.00055477
-0.00082616
-0.00004937
-0.00028645
0.00005397
0.00008659
-0.00011171
0.00021345
0.00089814
0.00347723
0.00470142
0.00480072
0.01017096
0.01060587
0.00943035
0.00458407
0.00179606
0.00140090
0.00175972
0.00194857
0.00069766
0.00174126
0.00077399
0.00100340
0.00104486
0.00104923
0.00070203
0.00096720
0.00063391
0.00057273
0.00078551
0.00066192
0.00061795
0.00076743
0.00078720
0.00072184
0.00090321
0.00094377
0.00091015
0.00107592
0.00105898
0.00121116
0.00135793
0.00139188
0.00141274
0.00163304
0.00169044
0.00177194
0.00174404
0.00179813
0.00181633
0.00181606
0.00177048
0.00198060
0.00224074
0.00247496
0.00268468
0.00289106
0.00309130
0.00325774
0.00344525
0.00361750
0.00379487
0.00396586
0.00412875
0.00428595
0.00440605
0.00449754
0.00458723
0.00469792
0.00475752
0.00484408
0.00495419
0.00502230
0.00503667
0.00504933
0.00503859
0.00502354
0.00502987
0.00503852
0.00508650
0.00517335
0.00523771
0.00524938
0.00530050
0.00536140
0.00541395
0.00552557
0.00569666
0.00590055
0.00613433
0.00648252
0.00691927
0.00654592
0.00636764
0.00603172
0.00557517
0.00540191
0.00432830
0.00297738
0.00373827
0.00180463
0.00133702
0.00169345
0.00257982
0.00198496
0.00177851
0.00140011
0.00097220
0.00170233
0.00145775
0.00055701
0.00057869
0.00026868
-0.00043377
0.00122810
0.00130118
0.00030504
0.00055714
-0.00061234
0.00006778
-0.00024369
0.00077335
-0.00030663
0.00210089
0.00198828
0.00316792
0.00315487
0.00437498
0.00909566
0.01001206
0.00999290
0.01579024
0.01613523
0.01536369
0.01038993
0.00511096
0.00309233
0.00295840
0.00330298
0.00199831
0.00295545
0.00234191
0.00218478
0.00224450
0.00188248
0.00186183
0.00173992
0.00166118
0.00154286
0.00165549
0.00156026
0.00154479
0.00163599
0.00171840
0.00173926
0.00187629
0.00195958
0.00205792
0.00220398
0.00226838
0.00250038
0.00267779
0.00270919
0.00279857
0.00302679
0.00311999
0.00317290
0.00321623
0.00325142
0.00330717
0.00333452
0.00352537
0.00393719
0.00437884
0.00476600
0.00510892
0.00544807
0.00576519
0.00603646
0.00633044
0.00661835
0.00690236
0.00719793
0.00747213
0.00772697
0.00793658
0.00807810
0.00822575
0.00838572
0.00853149
0.00867909
0.00885606
0.00896029
0.00899781
0.00903081
0.00907594
0.00905561
0.00904875
0.00908955
0.00916417
0.00927764
0.00939034
0.00945801
0.00955456
0.00968845
0.00981443
0.01000717
0.01031233
0.01062869
0.01096880
0.01125931
0.01142042
0.01145395
0.01144935
0.01139797
0.01159481
0.01165412
0.01126239
0.01086922
0.01136643
0.01051388
0.00985722
0.00970092
0.00921261
0.00772073
0.00863097
0.00795104
0.00664358
0.00753511
0.00708520
0.00764981
0.00466913
0.00704892
0.00250440
0.00506486
0.00519469
0.00411205
0.00397355
0.00149452
0.00289814
0.00279775
0.00536509
0.00229597
0.00900694
0.00965747
0.01130552
0.01128876
0.01292178
0.01587126
0.01601394
0.01566979
0.02050367
0.02065090
0.02006609
0.01690678
0.00992865
0.00529855
0.00405840
0.00415543
0.00369067
0.00408632
0.00375602
0.00362979
0.00345012
0.00311129
0.00284592
0.00268198
0.00263407
0.00255714
0.00253324
0.00254268
0.00242776
0.00257636
0.00268242
0.00273887
0.00288404
0.00306453
0.00321578
0.00333910
0.00350317
0.00372153
0.00388737
0.00396673
0.00410863
0.00425491
0.00436334
0.00440055
0.00447488
0.00452103
0.00461664
0.00472069
0.00508704
0.00561745
0.00615258
0.00662765
0.00702575
0.00742925
0.00780851
0.00813662
0.00848619
0.00884013
0.00920955
0.00957449
0.00992536
0.01025006
0.01050128
0.01067322
0.01087458
0.01107908
0.01127884
0.01146871
0.01169125
0.01181224
0.01186875
0.01193383
0.01200459
0.01201620
0.01201027
0.01204455
0.01214637
0.01230188
0.01244405
0.01257366
0.01271447
0.01288439
0.01307638
0.01335383
0.01372742
0.01409100
0.01444998
0.01468357
0.01483929
0.01509788
0.01536266
0.01569103
0.01613831
0.01666548
0.01671195
0.01691614
0.01747724
0.01719067
0.01693767
0.01746700
0.01752587
0.01666572
0.01782642
0.01752510
0.01668026
0.01814940
0.01556457
0.01768675
0.01558059
0.01641465
0.01405494
0.01341977
0.01340355
0.01410002
0.01134302
0.01115616
0.01169683
0.01133692
0.01389150
0.00924225
0.02135672
0.02258779
0.02248067
0.02227463
0.02295013
0.02279353
0.02164852
0.02072260
0.02480357
0.02467600
0.02400398
0.02166585
0.01529747
0.00814161
0.00525308
0.00496384
0.00484842
0.00495880
0.00477242
0.00458694
0.00441859
0.00409642
0.00371157
0.00362271
0.00346665
0.00338917
0.00338792
0.00340664
0.00335134
0.00349685
0.00357656
0.00372166
0.00392017
0.00408456
0.00425290
0.00445192
0.00460244
0.00474647
0.00484289
0.00494667
0.00512675
0.00523411
0.00534720
0.00540723
0.00548766
0.00555777
0.00569366
0.00589402
0.00634556
0.00693891
0.00750876
0.00801379
0.00844376
0.00887224
0.00928414
0.00966074
0.01003366
0.01043823
0.01085033
0.01127733
0.01167719
0.01204002
0.01231226
0.01252126
0.01275581
0.01300138
0.01325004
0.01348398
0.01370052
0.01384389
0.01392778
0.01399798
0.01409309
0.01413867
0.01413683
0.01417146
0.01428705
0.01446796
0.01465312
0.01483847
0.01500654
0.01520339
0.01542701
0.01575849
0.01618533
0.01658919
0.01691671
0.01713603
0.01735212
0.01775676
0.01817259
0.01871247
0.01933095
0.02000623
0.02051570
0.02118477
0.02177686
0.02230038
0.02250866
0.02303892
0.02326579
0.02370226
0.02433051
0.02420228
0.02488476
0.02572131
0.02515764
0.02566349
0.02518978
0.02549782
0.02405188
0.02358747
0.02411681
0.02479353
0.02239429
0.02371157
0.02370203
0.02267323
0.02650550
0.02382962
0.03276107
0.03380818
0.03298824
0.03187030
0.03083276
0.02888208
0.02678095
0.02533724
0.02869952
0.02841581
0.02768326
0.02548125
0.02050110
0.01197157
0.00678827
0.00588740
0.00575900
0.00587046
0.00577068
0.00541439
0.00521176
0.00493573
0.00455002
0.00437636
0.00426571
0.00423464
0.00416560
0.00421420
0.00421261
0.00432326
0.00441703
0.00459769
0.00477080
0.00493466
0.00512850
0.00527151
0.00541766
0.00554456
0.00564248
0.00573214
0.00587957
0.00599216
0.00609929
0.00617375
0.00627459
0.00638047
0.00655979
0.00684294
0.00734690
0.00795859
0.00853239
0.00906081
0.00950948
0.00994827
0.01038047
0.01078709
0.01119087
0.01162700
0.01207446
0.01254450
0.01298538
0.01336496
0.01365757
0.01389360
0.01417459
0.01446184
0.01473873
0.01499532
0.01520338
0.01535410
0.01545872
0.01554713
0.01565257
0.01571709
0.01572636
0.01576835
0.01590030
0.01610834
0.01631487
0.01654772
0.01674565
0.01695033
0.01720075
0.01756595
0.01801332
0.01845505
0.01876291
0.01899909
0.01926434
0.01976134
0.02030988
0.02095916
0.02172435
0.02251626
0.02333147
0.02417637
0.02490881
0.02562868
0.02638156
0.02715123
0.02783326
0.02827107
0.02921111
0.02970600
0.03013593
0.03087341
0.03094718
0.03110754
0.03148790
0.03165801
0.03115598
0.03219709
0.03132103
0.03266511
0.03264030
0.03265700
0.03413006
0.03384860
0.03605049
0.03701242
0.03887469
0.04045936
0.04006166
0.03850841
0.03620555
0.03365274
0.03127533
0.02957344
0.03186794
0.03136037
0.03070312
0.02897232
0.02479851
0.01654227
0.00897832
0.00693861
0.00666768
0.00671618
0.00656879
0.00623069
0.00605177
0.00568530
0.00533859
0.00510690
0.00499600
0.00492780
0.00488636
0.00489778
0.00491251
0.00502298
0.00512940
0.00529431
0.00546773
0.00561551
0.00578837
0.00592854
0.00606163
0.00613565
0.00622072
0.00630744
0.00643874
0.00656192
0.00666975
0.00676989
0.00689336
0.00703823
0.00726008
0.00760996
0.00814028
0.00875034
0.00932495
0.00986929
0.01034186
0.01078556
0.01123824
0.01167107
0.01211168
0.01256797
0.01304248
0.01353560
0.01400712
0.01440623
0.01470957
0.01498268
0.01530840
0.01562630
0.01592345
0.01618518
0.01636829
0.01653671
0.01666459
0.01677337
0.01687867
0.01694069
0.01697022
0.01703032
0.01718583
0.01740614
0.01762449
0.01788908
0.01810514
0.01832844
0.01859890
0.01895912
0.01943786
0.01989609
0.02020063
0.02047460
0.02077315
0.02132803
0.02198276
0.02272647
0.02357348
0.02448721
0.02544677
0.02642306
0.02725468
0.02818625
0.02920106
0.02998704
0.03079495
0.03168077
0.03249655
0.03317247
0.03420485
0.03465745
0.03511224
0.03597743
0.03624119
0.03686063
0.03653448
0.03703168
0.03689793
0.03740510
0.03784675
0.03806302
0.03986814
0.04010767
0.04143486
0.04395276
0.04295101
0.04445001
0.04394751
0.04231892
0.03965203
0.03700551
0.03470352
0.03293864
0.03419324
0.03351594
0.03282428
0.03175778
0.02834970
0.02113286
0.01185718
0.00821304
0.00756511
0.00747382
0.00729355
0.00702231
0.00669803
0.00636414
0.00600641
0.00576615
0.00560955
0.00551718
0.00549411
0.00547943
0.00552983
0.00562059
0.00571722
0.00588333
0.00602681
0.00614975
0.00630889
0.00642067
0.00651747
0.00658008
0.00664863
0.00672499
0.00685511
0.00699157
0.00710857
0.00723424
0.00739043
0.00757383
0.00783475
0.00823753
0.00878344
0.00938619
0.00996187
0.01052103
0.01102250
0.01147010
0.01194416
0.01240635
0.01289138
0.01336587
0.01385083
0.01435344
0.01484616
0.01526018
0.01558160
0.01589544
0.01625880
0.01659975
0.01691044
0.01716148
0.01733144
0.01751250
0.01766432
0.01778600
0.01788343
0.01793406
0.01799565
0.01808075
0.01825945
0.01847653
0.01870281
0.01898287
0.01921801
0.01945268
0.01973836
0.02008322
0.02057642
0.02104893
0.02136251
0.02167166
0.02199759
0.02259106
0.02335098
0.02416386
0.02508646
0.02605946
0.02710794
0.02814292
0.02912012
0.03012611
0.03122565
0.03221129
0.03316100
0.03409028
0.03497270
0.03579504
0.03668470
0.03758953
0.03817019
0.03894718
0.03973245
0.04033798
0.04082210
0.04095611
0.04143225
0.04117277
0.04214870
0.04234304
0.04304832
0.04511348
0.04591989
0.04623875
0.04544936
0.04703841
0.04641572
0.04445946
0.04185165
0.03918861
0.03698765
0.03531666
0.03597193
0.03521920
0.03447818
0.03354271
0.03127121
0.02541505
0.01544061
0.00981029
0.00853930
0.00823864
0.00796207
0.00769252
0.00727694
0.00692724
0.00655452
0.00633478
0.00615222
0.00605794
0.00600854
0.00600063
0.00603379
0.00610631
0.00619543
0.00633793
0.00645825
0.00656146
0.00667959
0.00677808
0.00685588
0.00690318
0.00696366
0.00703461
0.00717359
0.00732323
0.00745582
0.00761336
0.00779707
0.00802022
0.00832121
0.00876092
0.00931908
0.00991423
0.01049883
0.01107323
0.01160350
0.01206276
0.01256086
0.01305519
0.01358182
0.01407603
0.01456448
0.01506491
0.01556357
0.01599885
0.01634360
0.01669472
0.01709471
0.01744600
0.01776449
0.01799422
0.01815784
0.01835654
0.01853249
0.01865483
0.01873339
0.01878160
0.01887436
0.01899277
0.01919022
0.01939343
0.01963022
0.01990706
0.02015328
0.02040125
0.02069267
0.02101708
0.02151592
0.02200556
0.02232791
0.02266324
0.02302053
0.02365352
0.02447698
0.02536389
0.02632940
0.02735098
0.02845722
0.02954285
0.03059861
0.03168573
0.03283250
0.03391100
0.03495532
0.03594322
0.03685271
0.03779825
0.03878503
0.03961861
0.04055758
0.04127626
0.04201004
0.04285673
0.04325136
0.04411055
0.04416532
0.04543561
0.04548535
0.04607774
0.04614885
0.04832765
0.04861006
0.04808966
0.04851397
0.04907806
0.04796195
0.04589731
0.04331787
0.04067856
0.03863164
0.03707141
0.03730752
0.03652675
0.03583078
0.03495516
0.03339122
0.02903817
0.01956838
0.01191431
0.00969093
0.00905798
0.00863683
0.00831859
0.00787340
0.00747070
0.00709947
0.00683210
0.00663786
0.00651874
0.00646630
0.00643374
0.00646074
0.00650615
0.00656817
0.00668332
0.00678534
0.00686717
0.00696744
0.00704685
0.00710601
0.00714316
0.00719442
0.00727266
0.00742174
0.00758738
0.00774036
0.00792502
0.00813885
0.00840168
0.00874058
0.00920574
0.00977744
0.01037444
0.01097359
0.01156393
0.01212107
0.01260484
0.01312854
0.01365047
0.01420933
0.01472607
0.01521400
0.01571318
0.01620923
0.01667051
0.01703800
0.01742041
0.01785723
0.01820493
0.01852461
0.01873229
0.01889698
0.01911619
0.01930781
0.01942813
0.01948823
0.01954253
0.01965728
0.01981548
0.02002255
0.02021423
0.02045764
0.02071793
0.02096991
0.02122312
0.02151141
0.02181972
0.02231854
0.02282439
0.02315101
0.02350469
0.02389841
0.02456376
0.02543458
0.02637597
0.02736986
0.02843064
0.02956648
0.03067321
0.03180978
0.03296099
0.03410285
0.03524411
0.03635207
0.03740433
0.03836526
0.03934015
0.04029487
0.04123737
0.04220518
0.04306478
0.04395526
0.04487080
0.04532717
0.04588597
0.04656783
0.04735394
0.04814676
0.04888575
0.04905394
0.04976385
0.05049197
0.05093205
0.05072566
0.05050583
0.04906180
0.04704105
0.04443066
0.04183196
0.03981900
0.03836109
0.03821519
0.03744223
0.03677682
0.03609631
0.03490616
0.03189721
0.02384028
0.01463224
0.01109551
0.01000085
0.00937615
0.00895488
0.00844220
0.00799938
0.00758552
0.00729287
0.00707051
0.00693709
0.00685794
0.00680089
0.00681303
0.00682797
0.00687278
0.00694898
0.00703031
0.00710186
0.00717342
0.00724358
0.00729413
0.00732948
0.00737501
0.00746188
0.00761913
0.00780745
0.00798478
0.00819457
0.00843738
0.00873486
0.00910841
0.00959665
0.01018476
0.01079250
0.01141038
0.01201877
0.01260177
0.01312017
0.01366974
0.01421341
0.01479856
0.01533549
0.01582337
0.01632434
0.01681788
0.01730513
0.01768934
0.01809926
0.01856778
0.01890734
0.01921450
0.01940956
0.01958092
0.01981608
0.02000947
0.02013638
0.02019007
0.02025147
0.02037503
0.02057116
0.02078655
0.02097195
0.02121230
0.02145871
0.02171419
0.02196425
0.02224014
0.02253613
0.02302805
0.02353536
0.02386751
0.02423492
0.02466556
0.02535267
0.02626213
0.02724168
0.02825068
0.02933976
0.03048814
0.03162609
0.03282835
0.03400897
0.03516261
0.03633655
0.03747486
0.03856780
0.03949604
0.04054194
0.04155120
0.04255718
0.04359334
0.04446540
0.04544504
0.04627884
0.04701188
0.04772656
0.04827041
0.04874296
0.04948199
0.05030860
0.05089881
0.05070613
0.05124005
0.05328985
0.05206649
0.05135512
0.04991131
0.04790392
0.04533261
0.04273201
0.04070240
0.03926028
0.03889089
0.03810152
0.03744705
0.03686722
0.03604694
0.03403394
0.02784080
0.01793864
0.01286555
0.01111019
0.01020792
0.00961492
0.00903143
0.00852712
0.00806782
0.00772929
0.00747640
0.00730984
0.00720307
0.00712269
0.00711008
0.00710072
0.00711418
0.00716094
0.00721716
0.00727791
0.00733355
0.00739798
0.00744412
0.00747500
0.00752008
0.00761891
0.00778596
0.00799651
0.00820306
0.00843929
0.00870721
0.00903828
0.00944108
0.00995378
0.01056061
0.01118828
0.01182550
0.01245545
0.01306304
0.01362078
0.01419031
0.01475626
0.01536571
0.01592188
0.01641036
0.01691430
0.01741462
0.01791751
0.01831711
0.01874797
0.01924008
0.01957293
0.01985617
0.02004623
0.02022741
0.02047060
0.02066395
0.02080052
0.02085350
0.02092490
0.02104625
0.02127084
0.02149687
0.02167916
0.02191443
0.02215900
0.02241046
0.02264937
0.02290871
0.02318698
0.02366718
0.02415982
0.02450286
0.02488745
0.02534155
0.02603967
0.02698754
0.02799401
0.02900152
0.03011000
0.03126736
0.03243164
0.03367056
0.03488923
0.03602245
0.03721531
0.03840281
0.03951418
0.04045301
0.04150592
0.04251235
0.04358089
0.04464420
0.04565215
0.04658122
0.04750466
0.04832631
0.04900797
0.04962704
0.04997964
0.05090452
0.05179125
0.05228576
0.05181177
0.05270291
0.05345549
0.05232105
0.05168896
0.05038479
0.04844975
0.04601199
0.04347122
0.04140970
0.03994091
0.03941228
0.03859810
0.03795166
0.03742305
0.03684294
0.03557526
0.03125789
0.02173499
0.01508625
0.01246921
0.01116306
0.01035750
0.00966834
0.00907432
0.00855142
0.00815973
0.00786443
0.00766237
0.00752028
0.00740777
0.00736308
0.00732834
0.00731749
0.00733190
0.00736772
0.00741498
0.00746184
0.00752124
0.00756696
0.00760447
0.00765096
0.00775977
0.00793801
0.00816917
0.00840581
0.00866742
0.00896153
0.00932413
0.00975767
0.01029019
0.01092313
0.01157809
0.01223492
0.01288352
0.01351411
0.01411302
0.01469578
0.01528514
0.01592197
0.01649059
0.01698681
0.01749489
0.01800692
0.01851357
0.01893648
0.01938274
0.01988718
0.02021709
0.02046987
0.02065708
0.02085169
0.02109484
0.02129376
0.02143377
0.02148441
0.02156444
0.02169014
0.02192904
0.02216126
0.02234308
0.02258329
0.02283589
0.02307529
0.02329584
0.02352686
0.02378904
0.02424296
0.02471867
0.02507250
0.02548086
0.02594666
0.02664243
0.02763235
0.02864192
0.02964704
0.03077541
0.03193307
0.03311922
0.03437675
0.03561639
0.03672883
0.03792892
0.03915565
0.04027403
0.04120616
0.04227487
0.04330967
0.04441483
0.04554451
0.04655050
0.04752118
0.04838269
0.04934335
0.04995104
0.05052978
0.05088220
0.05184391
0.05258664
0.05294166
0.05297333
0.05394120
0.05280254
0.05259873
0.05195320
0.05061638
0.04880920
0.04651889
0.04408205
0.04200226
0.04048921
0.03980789
0.03896240
0.03829943
0.03781614
0.03738303
0.03663707
0.03392720
0.02574887
0.01778118
0.01410954
0.01230105
0.01121659
0.01035278
0.00965849
0.00904686
0.00860078
0.00825448
0.00800661
0.00781994
0.00767037
0.00758755
0.00753322
0.00749204
0.00747942
0.00749408
0.00752739
0.00756953
0.00762757
0.00767674
0.00772613
0.00777994
0.00789677
0.00808392
0.00833282
0.00859775
0.00888462
0.00921000
0.00960290
0.01006724
0.01061860
0.01128685
0.01197414
0.01265025
0.01331278
0.01396238
0.01459930
0.01519857
0.01580609
0.01646826
0.01704775
0.01756178
0.01807407
0.01859432
0.01910077
0.01955199
0.02001811
0.02051467
0.02084806
0.02106747
0.02125888
0.02147470
0.02170731
0.02190998
0.02204910
0.02209804
0.02218444
0.02231531
0.02256023
0.02279292
0.02297958
0.02323540
0.02349812
0.02372569
0.02391526
0.02412293
0.02436531
0.02476768
0.02522829
0.02559137
0.02602625
0.02649810
0.02719248
0.02821238
0.02919656
0.03021096
0.03136066
0.03250977
0.03370608
0.03495337
0.03620646
0.03732997
0.03853274
0.03976465
0.04086803
0.04183463
0.04291350
0.04393898
0.04510753
0.04619979
0.04723659
0.04821265
0.04915030
0.05001529
0.05060895
0.05115060
0.05171722
0.05238583
0.05313950
0.05325231
0.05347406
0.05408703
0.05262745
0.05283475
0.05200833
0.05077939
0.04903281
0.04688231
0.04455158
0.04248870
0.04093570
0.04013630
0.03924917
0.03855880
0.03808092
0.03774502
0.03734436
0.03588106
0.02961666
0.02097930
0.01610593
0.01367778
0.01222583
0.01115055
0.01029818
0.00958619
0.00906432
0.00865554
0.00835965
0.00812454
0.00792554
0.00780314
0.00772626
0.00765660
0.00761810
0.00761427
0.00762735
0.00766823
0.00772828
0.00778192
0.00784587
0.00791479
0.00803831
0.00823067
0.00849187
0.00878401
0.00909867
0.00945694
0.00988210
0.01037585
0.01095173
0.01166017
0.01237939
0.01307548
0.01375488
0.01442143
0.01508551
0.01570425
0.01632914
0.01700461
0.01760634
0.01814732
0.01865683
0.01918006
0.01968405
0.02015802
0.02065152
0.02112499
0.02146486
0.02166052
0.02186320
0.02210185
0.02232207
0.02251875
0.02266266
0.02271541
0.02279870
0.02292461
0.02317800
0.02341015
0.02360027
0.02386621
0.02414700
0.02436025
0.02451822
0.02470976
0.02493373
0.02526800
0.02570852
0.02608609
0.02653517
0.02701203
0.02771514
0.02873526
0.02968320
0.03070894
0.03187386
0.03300743
0.03420639
0.03542512
0.03667296
0.03782784
0.03903644
0.04025188
0.04134605
0.04234748
0.04340000
0.04446040
0.04560707
0.04672247
0.04774595
0.04873124
0.04962540
0.05053614
0.05107437
0.05178400
0.05229938
0.05282184
0.05316249
0.05381119
0.05411383
0.05386079
0.05321679
0.05297390
0.05195387
0.05074164
0.04912319
0.04711673
0.04491201
0.04289066
0.04130834
0.04040694
0.03947870
0.03875685
0.03826299
0.03798790
0.03779291
0.03719349
0.03300251
0.02455054
0.01850506
0.01534001
0.01342499
0.01206551
0.01102862
0.01017906
0.00957152
0.00908830
0.00873304
0.00844301
0.00818907
0.00802237
0.00791798
0.00782061
0.00775803
0.00773573
0.00772793
0.00776679
0.00783023
0.00789089
0.00796907
0.00805752
0.00818848
0.00838352
0.00865228
0.00897087
0.00931514
0.00970758
0.01016371
0.01069154
0.01129873
0.01204632
0.01279574
0.01351203
0.01421582
0.01489436
0.01557585
0.01622499
0.01686424
0.01754505
0.01817165
0.01873559
0.01924493
0.01976478
0.02026910
0.02075444
0.02127439
0.02173129
0.02207372
0.02226197
0.02246799
0.02272609
0.02294688
0.02312954
0.02328895
0.02334289
0.02341116
0.02353228
0.02378862
0.02402211
0.02421305
0.02447712
0.02477896
0.02497364
0.02511507
0.02529094
0.02548850
0.02576702
0.02618577
0.02657724
0.02702563
0.02749891
0.02821115
0.02921926
0.03012981
0.03116512
0.03231748
0.03343383
0.03461719
0.03581038
0.03704146
0.03824202
0.03945615
0.04064596
0.04173218
0.04274030
0.04375813
0.04485261
0.04599375
0.04710210
0.04811518
0.04910260
0.05001371
0.05081628
0.05144870
0.05212223
0.05277674
0.05312442
0.05336996
0.05407062
0.05394921
0.05383511
0.05374962
0.05293247
0.05187148
0.05061999
0.04908570
0.04721865
0.04516532
0.04321323
0.04161576
0.04062693
0.03966640
0.03891109
0.03838450
0.03813017
0.03805751
0.03800479
0.03570015
0.02831833
0.02130623
0.01733670
0.01486484
0.01315427
0.01188205
0.01086386
0.01013526
0.00957170
0.00913731
0.00878999
0.00847660
0.00825817
0.00811445
0.00798949
0.00790580
0.00786697
0.00783815
0.00787238
0.00794109
0.00800946
0.00810081
0.00820911
0.00834851
0.00854615
0.00882333
0.00916349
0.00954316
0.00997236
0.01045347
0.01101656
0.01166134
0.01244434
0.01322300
0.01395534
0.01469022
0.01538199
0.01607265
0.01675743
0.01740522
0.01809619
0.01874401
0.01932316
0.01983858
0.02035506
0.02086493
0.02135064
0.02189265
0.02234501
0.02268111
0.02288174
0.02308399
0.02335072
0.02359292
0.02376807
0.02393032
0.02397019
0.02402995
0.02415482
0.02440408
0.02462863
0.02483162
0.02508985
0.02540152
0.02558066
0.02571487
0.02588032
0.02604085
0.02628205
0.02667026
0.02706343
0.02750159
0.02797348
0.02869032
0.02967984
0.03054820
0.03159710
0.03270978
0.03379978
0.03495815
0.03613994
0.03735641
0.03859565
0.03980466
0.04096264
0.04204552
0.04303896
0.04402140
0.04514750
0.04627358
0.04738088
0.04838187
0.04935382
0.05024574
0.05109161
0.05170585
0.05233825
0.05289781
0.05324553
0.05358168
0.05406388
0.05369242
0.05416104
0.05341840
0.05260372
0.05162612
0.05044620
0.04898332
0.04724030
0.04532062
0.04345994
0.04186554
0.04080561
0.03982031
0.03903331
0.03846932
0.03820433
0.03820249
0.03846326
0.03762801
0.03197883
0.02450245
0.01965426
0.01658205
0.01444361
0.01289304
0.01166233
0.01078576
0.01012067
0.00959144
0.00918100
0.00879983
0.00852500
0.00832623
0.00817280
0.00806768
0.00801453
0.00796453
0.00798963
0.00806562
0.00814079
0.00824385
0.00837178
0.00852283
0.00872366
0.00901053
0.00937367
0.00979046
0.01025414
0.01075955
0.01135496
0.01203915
0.01285628
0.01366488
0.01440851
0.01517100
0.01588698
0.01658124
0.01728831
0.01795497
0.01866053
0.01932971
0.01992010
0.02044276
0.02095812
0.02148087
0.02196128
0.02251612
0.02297365
0.02330594
0.02351339
0.02373313
0.02399766
0.02427076
0.02443745
0.02457809
0.02460261
0.02465896
0.02480987
0.02504650
0.02524420
0.02546444
0.02571373
0.02603191
0.02619113
0.02632218
0.02647623
0.02660180
0.02681086
0.02715818
0.02753414
0.02797473
0.02844740
0.02916526
0.03011925
0.03095247
0.03200835
0.03306831
0.03412749
0.03526236
0.03643362
0.03763529
0.03890040
0.04008569
0.04122663
0.04229615
0.04326310
0.04421679
0.04536457
0.04647170
0.04756420
0.04855536
0.04951230
0.05040186
0.05117225
0.05182726
0.05240943
0.05306999
0.05334769
0.05367314
0.05365263
0.05367644
0.05372864
0.05304244
0.05230609
0.05135351
0.05017026
0.04879787
0.04718165
0.04540139
0.04363483
0.04206771
0.04094618
0.03993945
0.03912828
0.03853369
0.03823326
0.03825646
0.03867152
0.03884670
0.03521493
0.02797683
0.02231762
0.01861922
0.01598380
0.01409065
0.01261796
0.01154860
0.01075550
0.01011886
0.00963234
0.00917432
0.00883462
0.00857119
0.00838296
0.00824963
0.00818424
0.00811332
0.00812357
0.00820566
0.00828668
0.00839969
0.00854827
0.00871355
0.00892090
0.00921577
0.00960896
0.01005804
0.01055019
0.01108065
0.01171339
0.01243922
0.01329014
0.01413498
0.01488916
0.01566257
0.01640509
0.01710650
0.01782142
0.01851998
0.01924484
0.01993563
0.02053032
0.02106621
0.02158334
0.02211864
0.02260271
0.02315784
0.02361141
0.02395817
0.02416675
0.02441372
0.02469133
0.02498403
0.02513910
0.02524431
0.02525864
0.02531933
0.02550085
0.02571958
0.02589037
0.02611009
0.02635571
0.02666485
0.02680545
0.02693672
0.02707317
0.02716612
0.02734487
0.02763868
0.02799133
0.02844030
0.02891753
0.02963049
0.03053018
0.03135519
0.03240292
0.03341145
0.03444224
0.03555337
0.03669810
0.03788162
0.03915654
0.04031191
0.04145182
0.04248510
0.04342504
0.04436882
0.04551580
0.04660507
0.04767483
0.04865945
0.04957204
0.05041844
0.05116199
0.05181538
0.05237984
0.05289326
0.05324540
0.05341235
0.05341709
0.05373862
0.05315406
0.05276027
0.05194854
0.05099512
0.04987025
0.04855892
0.04705250
0.04539913
0.04374045
0.04221910
0.04105288
0.04002572
0.03919718
0.03857612
0.03823324
0.03824323
0.03871499
0.03948678
0.03781453
0.03156157
0.02530544
0.02098904
0.01780294
0.01550850
0.01375415
0.01245075
0.01149804
0.01073825
0.01015955
0.00961425
0.00920240
0.00886439
0.00863225
0.00846325
0.00838205
0.00829367
0.00828143
0.00836222
0.00844910
0.00857009
0.00873947
0.00891956
0.00913945
0.00944532
0.00986701
0.01034679
0.01086186
0.01141940
0.01209705
0.01286431
0.01375093
0.01463158
0.01540347
0.01618221
0.01694093
0.01765746
0.01837575
0.01910866
0.01985297
0.02056979
0.02116139
0.02171699
0.02225272
0.02279408
0.02329124
0.02382839
0.02426546
0.02462509
0.02486754
0.02513534
0.02542902
0.02572498
0.02587830
0.02594980
0.02595054
0.02602428
0.02622308
0.02640419
0.02656472
0.02676997
0.02701860
0.02729932
0.02742449
0.02754774
0.02766766
0.02773876
0.02788017
0.02811217
0.02843277
0.02888539
0.02939961
0.03008061
0.03091302
0.03176168
0.03279760
0.03375346
0.03474750
0.03581837
0.03694545
0.03810790
0.03936630
0.04050748
0.04162871
0.04263022
0.04352832
0.04448186
0.04561917
0.04667974
0.04773118
0.04869486
0.04955385
0.05036017
0.05106712
0.05173913
0.05228242
0.05275004
0.05305417
0.05336996
0.05343183
0.05312687
0.05282451
0.05239926
0.05156774
0.05061348
0.04952112
0.04828402
0.04687732
0.04534063
0.04377956
0.04231976
0.04112633
0.04008782
0.03924120
0.03860078
0.03822173
0.03818393
0.03866298
0.03970714
0.03963517
0.03498786
0.02857874
0.02366581
0.01994958
0.01718110
0.01511065
0.01352137
0.01237004
0.01147201
0.01077708
0.01013996
0.00964649
0.00922251
0.00893345
0.00872412
0.00861346
0.00851295
0.00847227
0.00854078
0.00863164
0.00876227
0.00894360
0.00914484
0.00938254
0.00970242
0.01014802
0.01065381
0.01119252
0.01178539
0.01250864
0.01331499
0.01423848
0.01514736
0.01595041
0.01673862
0.01750941
0.01824190
0.01896687
0.01973076
0.02049866
0.02123481
0.02183340
0.02241055
0.02296583
0.02351844
0.02403235
0.02454102
0.02496544
0.02533674
0.02561617
0.02592093
0.02620690
0.02647770
0.02664649
0.02670565
0.02668205
0.02677162
0.02696760
0.02711076
0.02726972
0.02746436
0.02771187
0.02793794
0.02804843
0.02815692
0.02826382
0.02832606
0.02843063
0.02859025
0.02886018
0.02933008
0.02989034
0.03051578
0.03130993
0.03217740
0.03319680
0.03409408
0.03504880
0.03606793
0.03718566
0.03832189
0.03954667
0.04067055
0.04176061
0.04274902
0.04360798
0.04456783
0.04568540
0.04670632
0.04774749
0.04867019
0.04947821
0.05024653
0.05093118
0.05158755
0.05213270
0.05247018
0.05280741
0.05304185
0.05309697
0.05285272
0.05253632
0.05194275
0.05113102
0.05019209
0.04915063
0.04797032
0.04665640
0.04522888
0.04376212
0.04236870
0.04117138
0.04013061
0.03927200
0.03861068
0.03819852
0.03810768
0.03853672
0.03966744
0.04068037
0.03800798
0.03200840
0.02661507
0.02241032
0.01914001
0.01670012
0.01479548
0.01340309
0.01234006
0.01150273
0.01077332
0.01017874
0.00966751
0.00930091
0.00904386
0.00888910
0.00877502
0.00870634
0.00875438
0.00884404
0.00898655
0.00917348
0.00939561
0.00965778
0.00999635
0.01045646
0.01098134
0.01154344
0.01218172
0.01294414
0.01380221
0.01475442
0.01568676
0.01652589
0.01732789
0.01811006
0.01885785
0.01959377
0.02038745
0.02118569
0.02192869
0.02256663
0.02317317
0.02371567
0.02428737
0.02480685
0.02530831
0.02572914
0.02610628
0.02639167
0.02673423
0.02701932
0.02726684
0.02744522
0.02751079
0.02746216
0.02756724
0.02773118
0.02785684
0.02800552
0.02819745
0.02843804
0.02858995
0.02867697
0.02876992
0.02888348
0.02892946
0.02899879
0.02909455
0.02931964
0.02979915
0.03036969
0.03094680
0.03172958
0.03260823
0.03358646
0.03444548
0.03535225
0.03634440
0.03744038
0.03853559
0.03970039
0.04078674
0.04186713
0.04285233
0.04369922
0.04464393
0.04571065
0.04670450
0.04772495
0.04858565
0.04934471
0.05007503
0.05074275
0.05138575
0.05190175
0.05220699
0.05246293
0.05260322
0.05254561
0.05248257
0.05206995
0.05146160
0.05067041
0.04975807
0.04875544
0.04764815
0.04641251
0.04507899
0.04370222
0.04237739
0.04119164
0.04016003
0.03929883
0.03861552
0.03817002
0.03802214
0.03836392
0.03947328
0.04109933
0.04035364
0.03540415
0.02979730
0.02517974
0.02141510
0.01856758
0.01631310
0.01462757
0.01336139
0.01235678
0.01152513
0.01081596
0.01021968