/*--------------------------------*- C++ -*----------------------------------*\
  =========                 |
  \\      /  F ield         | OpenFOAM: The Open Source CFD Toolbox
   \\    /   O peration     | Website:  https://openfoam.org
    \\  /    A nd           | Version:  7
     \\/     M anipulation  |
\*---------------------------------------------------------------------------*/
FoamFile
{
    version     2.0;
    format      ascii;
    class       volVectorField;
    location    "0";
    object      U_LES;
}
// * * * * * * * * * * * * * * * * * * * * * * * * * * * * * * * * * * * * * //

dimensions      [0 1 -1 0 0 0 0];

internalField   nonuniform List<vector>
15600
(
(0.08342349 -0.00021667 0.00000000)
(0.08690185 -0.00035215 0.00000000)
(0.07863203 -0.00055288 0.00000000)
(0.03589300 -0.00048724 0.00000000)
(0.00880806 -0.00070225 0.00000000)
(-0.00215249 0.00047368 0.00000000)
(-0.00516727 0.00251955 0.00000000)
(-0.00546394 0.00313616 0.00000000)
(-0.00153926 0.00104080 0.00000000)
(-0.00435928 0.00291753 0.00000000)
(-0.00249901 0.00124352 0.00000000)
(-0.00193324 0.00213216 0.00000000)
(-0.00289248 0.00298565 0.00000000)
(-0.00321171 0.00225786 0.00000000)
(-0.00160393 0.00107479 0.00000000)
(-0.00312338 0.00225106 0.00000000)
(-0.00204801 0.00187380 0.00000000)
(-0.00201351 0.00184170 0.00000000)
(-0.00280150 0.00296997 0.00000000)
(-0.00318096 0.00228516 0.00000000)
(-0.00276913 0.00150079 0.00000000)
(-0.00436588 0.00254006 0.00000000)
(-0.00522049 0.00383493 0.00000000)
(-0.00429206 0.00253851 0.00000000)
(-0.00702098 0.00418953 0.00000000)
(-0.00735764 0.00508697 0.00000000)
(-0.00494712 0.00395567 0.00000000)
(-0.00804151 0.00459133 0.00000000)
(-0.00621158 0.00328230 0.00000000)
(-0.00716071 0.00607181 0.00000000)
(-0.00801706 0.00680552 0.00000000)
(-0.00919257 0.00462275 0.00000000)
(-0.00819900 0.00403532 0.00000000)
(-0.00991373 0.00460034 0.00000000)
(-0.00862408 0.00413890 0.00000000)
(-0.00896258 0.00347940 0.00000000)
(-0.00804618 0.00265222 0.00000000)
(-0.00926576 0.00194411 0.00000000)
(-0.00877402 0.00058526 0.00000000)
(-0.01047022 0.00033088 0.00000000)
(-0.01031213 0.00010958 0.00000000)
(-0.01251552 0.00006819 0.00000000)
(-0.01506316 0.00006813 0.00000000)
(-0.01732917 0.00006173 0.00000000)
(-0.01917355 0.00004449 0.00000000)
(-0.02081390 0.00004484 0.00000000)
(-0.02244354 0.00004333 0.00000000)
(-0.02391760 0.00003542 0.00000000)
(-0.02517940 0.00003154 0.00000000)
(-0.02608179 0.00001964 0.00000000)
(-0.02667290 0.00001480 0.00000000)
(-0.02713490 0.00001067 0.00000000)
(-0.02739110 0.00000496 0.00000000)
(-0.02753705 0.00000381 0.00000000)
(-0.02779190 0.00000839 0.00000000)
(-0.02802628 0.00000692 0.00000000)
(-0.02815181 -0.00000330 0.00000000)
(-0.02777475 -0.00000753 0.00000000)
(-0.02766793 -0.00000370 0.00000000)
(-0.02746590 -0.00000844 0.00000000)
(-0.02703779 -0.00001334 0.00000000)
(-0.02657519 -0.00001191 0.00000000)
(-0.02615483 -0.00001287 0.00000000)
(-0.02557728 -0.00001671 0.00000000)
(-0.02489413 -0.00001836 0.00000000)
(-0.02428040 -0.00001173 0.00000000)
(-0.02388947 -0.00000678 0.00000000)
(-0.02372646 -0.00000841 0.00000000)
(-0.02335692 -0.00000900 0.00000000)
(-0.02286889 -0.00000827 0.00000000)
(-0.02270889 -0.00000469 0.00000000)
(-0.02251377 -0.00001308 0.00000000)
(-0.02195586 -0.00001108 0.00000000)
(-0.02181640 0.00000006 0.00000000)
(-0.02194965 0.00000814 0.00000000)
(-0.02213324 0.00000787 0.00000000)
(-0.02283397 0.00002762 0.00000000)
(-0.02365973 0.00003237 0.00000000)
(-0.02461885 0.00000999 0.00000000)
(-0.02605220 -0.00004014 0.00000000)
(-0.02804190 -0.00131163 0.00000000)
(-0.02324538 -0.00194345 0.00000000)
(-0.01612190 -0.00351515 0.00000000)
(-0.01314962 -0.00178796 0.00000000)
(-0.00674325 -0.00184783 0.00000000)
(-0.00422051 -0.00048992 0.00000000)
(-0.00289714 -0.00144030 0.00000000)
(0.00084150 0.00041312 0.00000000)
(-0.00098256 -0.00047915 0.00000000)
(0.00199733 0.00113332 0.00000000)
(0.00186331 0.00103209 0.00000000)
(0.00118155 0.00058442 0.00000000)
(-0.00054372 -0.00026902 0.00000000)
(0.00007564 0.00024942 0.00000000)
(-0.00056765 -0.00017438 0.00000000)
(0.00018146 0.00013301 0.00000000)
(0.00011792 0.00008976 0.00000000)
(-0.00012337 -0.00016878 0.00000000)
(0.00005722 0.00008856 0.00000000)
(-0.00012007 -0.00002403 0.00000000)
(0.00052689 0.00047060 0.00000000)
(-0.00106539 -0.00117917 0.00000000)
(-0.00138211 -0.00110996 0.00000000)
(-0.00107471 -0.00099868 0.00000000)
(0.00181561 0.00025226 0.00000000)
(-0.00171985 -0.00102510 0.00000000)
(0.00018516 0.00047449 0.00000000)
(-0.00678383 -0.00556525 0.00000000)
(0.00091295 -0.00132906 0.00000000)
(-0.01208681 -0.00696373 0.00000000)
(0.00082170 -0.00022187 0.00000000)
(-0.00652071 -0.00439659 0.00000000)
(0.00140568 0.00105782 0.00000000)
(0.00758990 0.00547325 0.00000000)
(0.02010085 0.01671817 0.00000000)
(0.03547784 -0.00043842 0.00000000)
(0.05099350 0.00238528 0.00000000)
(0.08381704 0.00111443 0.00000000)
(0.08606430 0.00071776 0.00000000)
(0.08161778 0.00008470 0.00000000)
(0.13597220 -0.00036087 0.00000000)
(0.14027869 -0.00083043 0.00000000)
(0.13207675 -0.00117788 0.00000000)
(0.08607727 -0.00112012 0.00000000)
(0.02824183 -0.00264418 0.00000000)
(-0.00098782 0.00059563 0.00000000)
(-0.01044576 0.00459669 0.00000000)
(-0.01070559 0.00563698 0.00000000)
(-0.00631674 0.00419212 0.00000000)
(-0.00844257 0.00616156 0.00000000)
(-0.00639242 0.00400510 0.00000000)
(-0.00609901 0.00532268 0.00000000)
(-0.00550023 0.00639609 0.00000000)
(-0.00638332 0.00505910 0.00000000)
(-0.00569785 0.00402935 0.00000000)
(-0.00644901 0.00494477 0.00000000)
(-0.00598998 0.00455860 0.00000000)
(-0.00542632 0.00582333 0.00000000)
(-0.00750718 0.00647184 0.00000000)
(-0.00759566 0.00712406 0.00000000)
(-0.00953496 0.00630843 0.00000000)
(-0.01102677 0.00840362 0.00000000)
(-0.01197802 0.01023886 0.00000000)
(-0.01436375 0.01016462 0.00000000)
(-0.01664660 0.01218639 0.00000000)
(-0.01750451 0.01366037 0.00000000)
(-0.01927443 0.01400266 0.00000000)
(-0.02104431 0.01406953 0.00000000)
(-0.02243253 0.01383795 0.00000000)
(-0.02217444 0.01667461 0.00000000)
(-0.02364018 0.01680022 0.00000000)
(-0.02471175 0.01276860 0.00000000)
(-0.02487227 0.01220911 0.00000000)
(-0.02492933 0.01102621 0.00000000)
(-0.02500941 0.01031169 0.00000000)
(-0.02427909 0.00821688 0.00000000)
(-0.02429241 0.00635911 0.00000000)
(-0.02413281 0.00484953 0.00000000)
(-0.02572479 0.00309018 0.00000000)
(-0.02697772 0.00164561 0.00000000)
(-0.03141444 0.00097281 0.00000000)
(-0.03819340 0.00078597 0.00000000)
(-0.04483293 0.00070994 0.00000000)
(-0.05059508 0.00059028 0.00000000)
(-0.05526601 0.00049445 0.00000000)
(-0.05941417 0.00046773 0.00000000)
(-0.06333295 0.00044137 0.00000000)
(-0.06688200 0.00038910 0.00000000)
(-0.06989003 0.00030739 0.00000000)
(-0.07190527 0.00019446 0.00000000)
(-0.07319231 0.00013682 0.00000000)
(-0.07401935 0.00009517 0.00000000)
(-0.07451272 0.00004461 0.00000000)
(-0.07482654 0.00003187 0.00000000)
(-0.07511300 0.00006968 0.00000000)
(-0.07556021 0.00004647 0.00000000)
(-0.07533583 -0.00005127 0.00000000)
(-0.07469023 -0.00008625 0.00000000)
(-0.07383388 -0.00005980 0.00000000)
(-0.07311439 -0.00010027 0.00000000)
(-0.07181167 -0.00015589 0.00000000)
(-0.07035828 -0.00014691 0.00000000)
(-0.06903889 -0.00015271 0.00000000)
(-0.06742355 -0.00019223 0.00000000)
(-0.06547615 -0.00020918 0.00000000)
(-0.06409513 -0.00012433 0.00000000)
(-0.06322797 -0.00008063 0.00000000)
(-0.06228641 -0.00009948 0.00000000)
(-0.06138097 -0.00010326 0.00000000)
(-0.06052727 -0.00008774 0.00000000)
(-0.05983967 -0.00006025 0.00000000)
(-0.05884981 -0.00014105 0.00000000)
(-0.05787431 -0.00009052 0.00000000)
(-0.05737544 -0.00000853 0.00000000)
(-0.05752935 0.00004962 0.00000000)
(-0.05822955 0.00011971 0.00000000)
(-0.05974961 0.00023736 0.00000000)
(-0.06165262 0.00023187 0.00000000)
(-0.06299974 0.00012983 0.00000000)
(-0.06233642 -0.00048541 0.00000000)
(-0.05629476 -0.00511301 0.00000000)
(-0.05250559 -0.00805028 0.00000000)
(-0.05077529 -0.01095580 0.00000000)
(-0.04811615 -0.01179970 0.00000000)
(-0.04677699 -0.01213243 0.00000000)
(-0.04383426 -0.01167037 0.00000000)
(-0.03339583 -0.01598622 0.00000000)
(-0.02739496 -0.01350645 0.00000000)
(-0.02741559 -0.01431612 0.00000000)
(-0.01911631 -0.00951465 0.00000000)
(-0.01481426 -0.00732469 0.00000000)
(-0.01253996 -0.00703565 0.00000000)
(-0.00918181 -0.00722211 0.00000000)
(-0.00656105 -0.00493051 0.00000000)
(-0.00411191 -0.00415980 0.00000000)
(-0.00271963 -0.00262765 0.00000000)
(-0.00155044 -0.00121394 0.00000000)
(-0.00059962 -0.00062561 0.00000000)
(0.00084307 0.00057073 0.00000000)
(0.00075014 0.00037791 0.00000000)
(0.00088342 0.00124122 0.00000000)
(0.00392660 0.00161713 0.00000000)
(-0.00094298 -0.00122583 0.00000000)
(0.00610540 0.00379514 0.00000000)
(0.00714780 0.00608412 0.00000000)
(0.00449482 0.00258955 0.00000000)
(0.00487592 0.00488816 0.00000000)
(-0.00284135 -0.00378332 0.00000000)
(0.00715244 0.00335380 0.00000000)
(0.01419013 0.00969949 0.00000000)
(0.02390146 0.01258978 0.00000000)
(-0.00787622 -0.00536096 0.00000000)
(0.06279163 0.04098433 0.00000000)
(0.07710708 0.05120885 0.00000000)
(0.09041586 0.03793671 0.00000000)
(0.11410083 0.00661074 0.00000000)
(0.13164838 0.00666563 0.00000000)
(0.15904038 0.00429296 0.00000000)
(0.14772681 0.00155124 0.00000000)
(0.13700095 0.00031043 0.00000000)
(0.19445791 -0.00041350 0.00000000)
(0.19662691 -0.00127758 0.00000000)
(0.18894975 -0.00192535 0.00000000)
(0.14444874 -0.00266429 0.00000000)
(0.06283540 -0.00633170 0.00000000)
(0.00767080 0.00020073 0.00000000)
(-0.01358432 0.00651774 0.00000000)
(-0.01635492 0.00826224 0.00000000)
(-0.01234734 0.00796945 0.00000000)
(-0.01291522 0.00961959 0.00000000)
(-0.01175445 0.00826188 0.00000000)
(-0.01129130 0.00894182 0.00000000)
(-0.01000559 0.01021385 0.00000000)
(-0.00984580 0.00926217 0.00000000)
(-0.01051340 0.00792464 0.00000000)
(-0.01022459 0.00855879 0.00000000)
(-0.01133368 0.00892127 0.00000000)
(-0.01131128 0.01058363 0.00000000)
(-0.01340105 0.01066753 0.00000000)
(-0.01406306 0.01273701 0.00000000)
(-0.01690610 0.01230928 0.00000000)
(-0.01884074 0.01556406 0.00000000)
(-0.02135002 0.01766419 0.00000000)
(-0.02465136 0.01879302 0.00000000)
(-0.02711886 0.02125911 0.00000000)
(-0.02924229 0.02248666 0.00000000)
(-0.03233781 0.02354116 0.00000000)
(-0.03387342 0.02323318 0.00000000)
(-0.03588901 0.02325116 0.00000000)
(-0.03727493 0.02471726 0.00000000)
(-0.03848163 0.02416999 0.00000000)
(-0.03906448 0.02058644 0.00000000)
(-0.03952282 0.01926708 0.00000000)
(-0.03963764 0.01713511 0.00000000)
(-0.04002228 0.01515897 0.00000000)
(-0.03948615 0.01237549 0.00000000)
(-0.04002843 0.01016538 0.00000000)
(-0.04036950 0.00776048 0.00000000)
(-0.04249361 0.00592471 0.00000000)
(-0.04555873 0.00341821 0.00000000)
(-0.05322465 0.00243574 0.00000000)
(-0.06304995 0.00205967 0.00000000)
(-0.07220085 0.00183006 0.00000000)
(-0.07991470 0.00151600 0.00000000)
(-0.08625996 0.00126894 0.00000000)
(-0.09187364 0.00118056 0.00000000)
(-0.09682310 0.00108467 0.00000000)
(-0.10137921 0.00096212 0.00000000)
(-0.10500423 0.00072199 0.00000000)
(-0.10734782 0.00045064 0.00000000)
(-0.10857250 0.00028642 0.00000000)
(-0.10938081 0.00019107 0.00000000)
(-0.10973697 0.00008637 0.00000000)
(-0.10982800 0.00005563 0.00000000)
(-0.10996443 0.00011408 0.00000000)
(-0.10998798 0.00005210 0.00000000)
(-0.10933398 -0.00017173 0.00000000)
(-0.10798978 -0.00025992 0.00000000)
(-0.10666605 -0.00021038 0.00000000)
(-0.10524112 -0.00029721 0.00000000)
(-0.10321275 -0.00044484 0.00000000)
(-0.10091211 -0.00041682 0.00000000)
(-0.09878063 -0.00042816 0.00000000)
(-0.09634250 -0.00052054 0.00000000)
(-0.09377768 -0.00053965 0.00000000)
(-0.09168950 -0.00032190 0.00000000)
(-0.09032140 -0.00023363 0.00000000)
(-0.08907216 -0.00027847 0.00000000)
(-0.08757671 -0.00027791 0.00000000)
(-0.08608170 -0.00026290 0.00000000)
(-0.08482231 -0.00020569 0.00000000)
(-0.08344431 -0.00033377 0.00000000)
(-0.08219202 -0.00022041 0.00000000)
(-0.08158729 -0.00003627 0.00000000)
(-0.08168749 0.00012169 0.00000000)
(-0.08244256 0.00027773 0.00000000)
(-0.08413704 0.00054577 0.00000000)
(-0.08609908 0.00049003 0.00000000)
(-0.08666962 0.00012122 0.00000000)
(-0.08394015 -0.00138657 0.00000000)
(-0.07781520 -0.00731282 0.00000000)
(-0.07561067 -0.01110019 0.00000000)
(-0.07278389 -0.01618197 0.00000000)
(-0.07066259 -0.01849358 0.00000000)
(-0.06720423 -0.02158679 0.00000000)
(-0.06327677 -0.02266351 0.00000000)
(-0.05739075 -0.02715215 0.00000000)
(-0.05425853 -0.02692058 0.00000000)
(-0.04851273 -0.02647411 0.00000000)
(-0.04428656 -0.02540618 0.00000000)
(-0.03721263 -0.02346879 0.00000000)
(-0.02947535 -0.02209726 0.00000000)
(-0.02371284 -0.01972125 0.00000000)
(-0.01689898 -0.01542563 0.00000000)
(-0.01787204 -0.01250293 0.00000000)
(-0.01002531 -0.00866813 0.00000000)
(-0.00440384 -0.00494543 0.00000000)
(-0.00273463 -0.00159184 0.00000000)
(0.00309085 0.00310478 0.00000000)
(0.00805270 0.00437790 0.00000000)
(0.01028807 0.00794186 0.00000000)
(0.01796134 0.01190580 0.00000000)
(0.01605073 0.00929564 0.00000000)
(0.02129217 0.01544064 0.00000000)
(0.02095144 0.02421482 0.00000000)
(0.03214795 0.02101221 0.00000000)
(0.02230376 0.02720526 0.00000000)
(0.03634552 0.02157381 0.00000000)
(0.04569842 0.02841177 0.00000000)
(0.05256517 0.03507268 0.00000000)
(0.06393951 0.06069033 0.00000000)
(0.05582176 0.03656484 0.00000000)
(0.16810625 0.10261204 0.00000000)
(0.19362085 0.11636225 0.00000000)
(0.23801667 0.08001134 0.00000000)
(0.24000276 0.02938376 0.00000000)
(0.25126488 0.01858965 0.00000000)
(0.24476657 0.00888775 0.00000000)
(0.21846642 0.00329638 0.00000000)
(0.19941875 0.00083182 0.00000000)
(0.25342162 -0.00022275 0.00000000)
(0.25216302 -0.00151774 0.00000000)
(0.24336559 -0.00268367 0.00000000)
(0.20391061 -0.00430922 0.00000000)
(0.11027901 -0.01037916 0.00000000)
(0.02655384 -0.00166635 0.00000000)
(-0.01216481 0.00727617 0.00000000)
(-0.02032710 0.01035360 0.00000000)
(-0.01864880 0.01178814 0.00000000)
(-0.01744778 0.01268619 0.00000000)
(-0.01672960 0.01234094 0.00000000)
(-0.01675085 0.01297678 0.00000000)
(-0.01506095 0.01373671 0.00000000)
(-0.01443481 0.01353386 0.00000000)
(-0.01497227 0.01163462 0.00000000)
(-0.01450161 0.01256284 0.00000000)
(-0.01618683 0.01285748 0.00000000)
(-0.01713327 0.01468177 0.00000000)
(-0.01896974 0.01523400 0.00000000)
(-0.02089864 0.01763049 0.00000000)
(-0.02359220 0.01816607 0.00000000)
(-0.02652390 0.02197518 0.00000000)
(-0.03006960 0.02408028 0.00000000)
(-0.03354173 0.02667969 0.00000000)
(-0.03685826 0.02961808 0.00000000)
(-0.04048561 0.03105740 0.00000000)
(-0.04346714 0.03235046 0.00000000)
(-0.04530122 0.03224384 0.00000000)
(-0.04816088 0.03244440 0.00000000)
(-0.04995763 0.03272873 0.00000000)
(-0.05152332 0.03129837 0.00000000)
(-0.05273696 0.02780861 0.00000000)
(-0.05360763 0.02606010 0.00000000)
(-0.05368308 0.02301405 0.00000000)
(-0.05439876 0.02015049 0.00000000)
(-0.05440944 0.01688666 0.00000000)
(-0.05528368 0.01409580 0.00000000)
(-0.05635510 0.01101918 0.00000000)
(-0.05920796 0.00855528 0.00000000)
(-0.06411955 0.00570612 0.00000000)
(-0.07389404 0.00434467 0.00000000)
(-0.08535122 0.00370376 0.00000000)
(-0.09570453 0.00324506 0.00000000)
(-0.10437308 0.00266918 0.00000000)
(-0.11137824 0.00223482 0.00000000)
(-0.11749784 0.00204648 0.00000000)
(-0.12274257 0.00184423 0.00000000)
(-0.12734573 0.00162743 0.00000000)
(-0.13096928 0.00117101 0.00000000)
(-0.13302884 0.00070777 0.00000000)
(-0.13409776 0.00040393 0.00000000)
(-0.13443980 0.00024873 0.00000000)
(-0.13449744 0.00009552 0.00000000)
(-0.13430414 0.00004598 0.00000000)
(-0.13403956 0.00009473 0.00000000)
(-0.13346068 -0.00001753 0.00000000)
(-0.13241022 -0.00037566 0.00000000)
(-0.13059198 -0.00052316 0.00000000)
(-0.12856619 -0.00047799 0.00000000)
(-0.12637898 -0.00060090 0.00000000)
(-0.12389190 -0.00085687 0.00000000)
(-0.12100544 -0.00080111 0.00000000)
(-0.11819393 -0.00081991 0.00000000)
(-0.11530414 -0.00096858 0.00000000)
(-0.11214042 -0.00097379 0.00000000)
(-0.10969302 -0.00059076 0.00000000)
(-0.10803799 -0.00045286 0.00000000)
(-0.10633842 -0.00053822 0.00000000)
(-0.10445246 -0.00053180 0.00000000)
(-0.10265094 -0.00051839 0.00000000)
(-0.10087198 -0.00043398 0.00000000)
(-0.09921584 -0.00056764 0.00000000)
(-0.09785693 -0.00038270 0.00000000)
(-0.09710340 -0.00008975 0.00000000)
(-0.09700641 0.00017734 0.00000000)
(-0.09759823 0.00044361 0.00000000)
(-0.09896873 0.00084602 0.00000000)
(-0.10036644 0.00067765 0.00000000)
(-0.09993842 -0.00009187 0.00000000)
(-0.09625726 -0.00236037 0.00000000)
(-0.09133972 -0.00833357 0.00000000)
(-0.08916612 -0.01299072 0.00000000)
(-0.08714490 -0.01884263 0.00000000)
(-0.08469798 -0.02228502 0.00000000)
(-0.08104626 -0.02700828 0.00000000)
(-0.07666270 -0.02939187 0.00000000)
(-0.07155776 -0.03373101 0.00000000)
(-0.06758294 -0.03401862 0.00000000)
(-0.05945190 -0.03473625 0.00000000)
(-0.05428714 -0.03330555 0.00000000)
(-0.04749748 -0.03177847 0.00000000)
(-0.04184440 -0.03045794 0.00000000)
(-0.03612416 -0.02682759 0.00000000)
(-0.03024838 -0.02269135 0.00000000)
(-0.02183125 -0.01789571 0.00000000)
(-0.01548715 -0.01187476 0.00000000)
(-0.00923031 -0.00621807 0.00000000)
(0.00194886 -0.00114859 0.00000000)
(0.00871680 0.00674342 0.00000000)
(0.01917281 0.01080331 0.00000000)
(0.02687304 0.01842116 0.00000000)
(0.03469978 0.02629928 0.00000000)
(0.04289581 0.02882354 0.00000000)
(0.04398424 0.04080717 0.00000000)
(0.05496560 0.04837832 0.00000000)
(0.06869590 0.05191029 0.00000000)
(0.06929197 0.06204846 0.00000000)
(0.09513936 0.06622737 0.00000000)
(0.10660228 0.07536951 0.00000000)
(0.13233934 0.08909578 0.00000000)
(0.13062575 0.14155951 0.00000000)
(0.17482857 0.11568535 0.00000000)
(0.28643244 0.16313906 0.00000000)
(0.33808869 0.18331866 0.00000000)
(0.38866853 0.12761838 0.00000000)
(0.38276239 0.06176501 0.00000000)
(0.37539847 0.03296284 0.00000000)
(0.33479277 0.01524537 0.00000000)
(0.29278814 0.00621125 0.00000000)
(0.26408218 0.00195219 0.00000000)
(0.31281530 0.00040637 0.00000000)
(0.30743696 -0.00156814 0.00000000)
(0.29623137 -0.00326857 0.00000000)
(0.25810240 -0.00571608 0.00000000)
(0.16559794 -0.01331527 0.00000000)
(0.05687831 -0.00470694 0.00000000)
(-0.00560993 0.00707949 0.00000000)
(-0.02307490 0.01225891 0.00000000)
(-0.02363210 0.01459290 0.00000000)
(-0.02122427 0.01634032 0.00000000)
(-0.02145555 0.01616461 0.00000000)
(-0.02126325 0.01651574 0.00000000)
(-0.01991345 0.01689384 0.00000000)
(-0.01893415 0.01696682 0.00000000)
(-0.01928257 0.01547384 0.00000000)
(-0.01933386 0.01652792 0.00000000)
(-0.02057383 0.01700457 0.00000000)
(-0.02250378 0.01894732 0.00000000)
(-0.02449877 0.02000140 0.00000000)
(-0.02725822 0.02271968 0.00000000)
(-0.03051633 0.02431195 0.00000000)
(-0.03416072 0.02835586 0.00000000)
(-0.03817670 0.03080008 0.00000000)
(-0.04242818 0.03445252 0.00000000)
(-0.04662306 0.03735044 0.00000000)
(-0.05061529 0.03886997 0.00000000)
(-0.05376240 0.04054188 0.00000000)
(-0.05665175 0.04058500 0.00000000)
(-0.05941132 0.04024270 0.00000000)
(-0.06107864 0.03963167 0.00000000)
(-0.06256016 0.03759348 0.00000000)
(-0.06421751 0.03430801 0.00000000)
(-0.06577996 0.03194122 0.00000000)
(-0.06624599 0.02833787 0.00000000)
(-0.06736794 0.02483758 0.00000000)
(-0.06812726 0.02111237 0.00000000)
(-0.06955127 0.01774689 0.00000000)
(-0.07145128 0.01427120 0.00000000)
(-0.07518546 0.01121437 0.00000000)
(-0.08167313 0.00820444 0.00000000)
(-0.09246902 0.00650946 0.00000000)
(-0.10455912 0.00554867 0.00000000)
(-0.11519166 0.00479614 0.00000000)
(-0.12391561 0.00393244 0.00000000)
(-0.13108986 0.00328861 0.00000000)
(-0.13715830 0.00295710 0.00000000)
(-0.14220597 0.00262587 0.00000000)
(-0.14653069 0.00228567 0.00000000)
(-0.14967670 0.00158952 0.00000000)
(-0.15136913 0.00091575 0.00000000)
(-0.15192738 0.00045954 0.00000000)
(-0.15188457 0.00024258 0.00000000)
(-0.15150336 0.00004958 0.00000000)
(-0.15095998 -0.00002187 0.00000000)
(-0.15022010 -0.00000612 0.00000000)
(-0.14918079 -0.00018033 0.00000000)
(-0.14755670 -0.00065680 0.00000000)
(-0.14536310 -0.00087481 0.00000000)
(-0.14283996 -0.00086090 0.00000000)
(-0.14012387 -0.00100125 0.00000000)
(-0.13713077 -0.00135487 0.00000000)
(-0.13394669 -0.00128107 0.00000000)
(-0.13071310 -0.00130764 0.00000000)
(-0.12732099 -0.00150948 0.00000000)
(-0.12389462 -0.00147628 0.00000000)
(-0.12116757 -0.00091881 0.00000000)
(-0.11927343 -0.00072309 0.00000000)
(-0.11730005 -0.00086216 0.00000000)
(-0.11510219 -0.00085520 0.00000000)
(-0.11298439 -0.00083252 0.00000000)
(-0.11099282 -0.00073027 0.00000000)
(-0.10913790 -0.00082876 0.00000000)
(-0.10765459 -0.00057292 0.00000000)
(-0.10675235 -0.00017654 0.00000000)
(-0.10632625 0.00018508 0.00000000)
(-0.10652735 0.00056822 0.00000000)
(-0.10743648 0.00105977 0.00000000)
(-0.10814228 0.00074385 0.00000000)
(-0.10686134 -0.00044916 0.00000000)
(-0.10304537 -0.00327113 0.00000000)
(-0.09902099 -0.00898429 0.00000000)
(-0.09681438 -0.01423885 0.00000000)
(-0.09491552 -0.02033982 0.00000000)
(-0.09221734 -0.02475908 0.00000000)
(-0.08855373 -0.02997266 0.00000000)
(-0.08350318 -0.03331108 0.00000000)
(-0.07878576 -0.03733984 0.00000000)
(-0.07399956 -0.03809639 0.00000000)
(-0.06569928 -0.03899171 0.00000000)
(-0.06038506 -0.03833032 0.00000000)
(-0.05353170 -0.03738253 0.00000000)
(-0.04691831 -0.03479128 0.00000000)
(-0.03808827 -0.03040046 0.00000000)
(-0.03270071 -0.02455337 0.00000000)
(-0.02202707 -0.02056810 0.00000000)
(-0.01271077 -0.01312036 0.00000000)
(-0.00500837 -0.00440055 0.00000000)
(0.00741998 0.00085224 0.00000000)
(0.01808847 0.01073990 0.00000000)
(0.02885351 0.01708548 0.00000000)
(0.04202173 0.02804864 0.00000000)
(0.05115577 0.04035271 0.00000000)
(0.06487027 0.04487962 0.00000000)
(0.07234111 0.06358761 0.00000000)
(0.08982670 0.07250775 0.00000000)
(0.10460752 0.07960315 0.00000000)
(0.12366478 0.10074881 0.00000000)
(0.14867968 0.10922821 0.00000000)
(0.16876685 0.12992657 0.00000000)
(0.20108828 0.13562031 0.00000000)
(0.23115308 0.21437183 0.00000000)
(0.29706750 0.19914518 0.00000000)
(0.38045253 0.20265743 0.00000000)
(0.45710624 0.22452323 0.00000000)
(0.49714184 0.15941092 0.00000000)
(0.50009861 0.09539169 0.00000000)
(0.47641731 0.04896331 0.00000000)
(0.41959351 0.02288098 0.00000000)
(0.36609998 0.01004949 0.00000000)
(0.32933849 0.00364785 0.00000000)
(0.37067970 0.00148483 0.00000000)
(0.36178346 -0.00135315 0.00000000)
(0.34842439 -0.00363399 0.00000000)
(0.30968572 -0.00689220 0.00000000)
(0.22359108 -0.01493393 0.00000000)
(0.09716036 -0.00835406 0.00000000)
(0.00717685 0.00596312 0.00000000)
(-0.02398538 0.01388719 0.00000000)
(-0.02781001 0.01727968 0.00000000)
(-0.02591735 0.02029182 0.00000000)
(-0.02676994 0.02035363 0.00000000)
(-0.02586490 0.02048804 0.00000000)
(-0.02483209 0.02059495 0.00000000)
(-0.02389589 0.02077717 0.00000000)
(-0.02402617 0.01960220 0.00000000)
(-0.02428697 0.02059166 0.00000000)
(-0.02560416 0.02165386 0.00000000)
(-0.02817322 0.02360425 0.00000000)
(-0.03023923 0.02505097 0.00000000)
(-0.03370560 0.02792949 0.00000000)
(-0.03748532 0.03038196 0.00000000)
(-0.04149557 0.03448781 0.00000000)
(-0.04606363 0.03750088 0.00000000)
(-0.05096528 0.04129131 0.00000000)
(-0.05518534 0.04438983 0.00000000)
(-0.05947758 0.04606432 0.00000000)
(-0.06304327 0.04750005 0.00000000)
(-0.06572704 0.04743669 0.00000000)
(-0.06846675 0.04698408 0.00000000)
(-0.07055572 0.04581999 0.00000000)
(-0.07241010 0.04325166 0.00000000)
(-0.07428323 0.03989735 0.00000000)
(-0.07610091 0.03702817 0.00000000)
(-0.07724264 0.03305948 0.00000000)
(-0.07877073 0.02909951 0.00000000)
(-0.08026568 0.02499107 0.00000000)
(-0.08239044 0.02124144 0.00000000)
(-0.08524086 0.01738200 0.00000000)
(-0.08992450 0.01393273 0.00000000)
(-0.09747888 0.01079787 0.00000000)
(-0.10869021 0.00875982 0.00000000)
(-0.12064198 0.00746385 0.00000000)
(-0.13092675 0.00638520 0.00000000)
(-0.13938386 0.00522253 0.00000000)
(-0.14628543 0.00435983 0.00000000)
(-0.15200617 0.00385088 0.00000000)
(-0.15660313 0.00336913 0.00000000)
(-0.16031676 0.00287359 0.00000000)
(-0.16292470 0.00194663 0.00000000)
(-0.16415397 0.00105511 0.00000000)
(-0.16425630 0.00044964 0.00000000)
(-0.16380888 0.00016738 0.00000000)
(-0.16305878 -0.00006037 0.00000000)
(-0.16208105 -0.00016080 0.00000000)
(-0.16096031 -0.00018774 0.00000000)
(-0.15941035 -0.00044327 0.00000000)
(-0.15737120 -0.00100030 0.00000000)
(-0.15493909 -0.00131184 0.00000000)
(-0.15193402 -0.00134864 0.00000000)
(-0.14876583 -0.00149215 0.00000000)
(-0.14557839 -0.00191113 0.00000000)
(-0.14207941 -0.00184379 0.00000000)
(-0.13852113 -0.00187619 0.00000000)
(-0.13484161 -0.00211751 0.00000000)
(-0.13127141 -0.00202360 0.00000000)
(-0.12833799 -0.00130405 0.00000000)
(-0.12620788 -0.00104242 0.00000000)
(-0.12403051 -0.00124169 0.00000000)
(-0.12163081 -0.00123643 0.00000000)
(-0.11935108 -0.00118602 0.00000000)
(-0.11718195 -0.00107797 0.00000000)
(-0.11520259 -0.00111860 0.00000000)
(-0.11359786 -0.00079730 0.00000000)
(-0.11241912 -0.00031046 0.00000000)
(-0.11167174 0.00013321 0.00000000)
(-0.11151346 0.00062317 0.00000000)
(-0.11173028 0.00116719 0.00000000)
(-0.11171545 0.00068965 0.00000000)
(-0.10993600 -0.00088779 0.00000000)
(-0.10628532 -0.00404630 0.00000000)
(-0.10284933 -0.00948448 0.00000000)
(-0.10061327 -0.01505591 0.00000000)
(-0.09862804 -0.02125497 0.00000000)
(-0.09569020 -0.02617902 0.00000000)
(-0.09184632 -0.03158552 0.00000000)
(-0.08656813 -0.03566163 0.00000000)
(-0.08182586 -0.03939082 0.00000000)
(-0.07608392 -0.04013528 0.00000000)
(-0.06839257 -0.04186521 0.00000000)
(-0.06190130 -0.04105143 0.00000000)
(-0.05506880 -0.03924232 0.00000000)
(-0.04786944 -0.03578663 0.00000000)
(-0.03871815 -0.03213584 0.00000000)
(-0.03059446 -0.02555310 0.00000000)
(-0.01983768 -0.02045856 0.00000000)
(-0.01007180 -0.01275451 0.00000000)
(0.00107700 -0.00334557 0.00000000)
(0.01324951 0.00376851 0.00000000)
(0.02543228 0.01423655 0.00000000)
(0.03796259 0.02313773 0.00000000)
(0.05297780 0.03493665 0.00000000)
(0.06468052 0.04891973 0.00000000)
(0.08016477 0.05663698 0.00000000)
(0.09625106 0.07581402 0.00000000)
(0.11071271 0.08646311 0.00000000)
(0.13012888 0.09894350 0.00000000)
(0.16005612 0.12362273 0.00000000)
(0.18373561 0.13617122 0.00000000)
(0.21785188 0.16124615 0.00000000)
(0.25847082 0.17479721 0.00000000)
(0.30217496 0.24608529 0.00000000)
(0.38624495 0.24591416 0.00000000)
(0.42453506 0.20830334 0.00000000)
(0.51411742 0.23027003 0.00000000)
(0.56221822 0.18439799 0.00000000)
(0.57768950 0.11936742 0.00000000)
(0.55089211 0.06256463 0.00000000)
(0.49234812 0.03091056 0.00000000)
(0.43462729 0.01452148 0.00000000)
(0.39265728 0.00593878 0.00000000)
(0.42466984 0.00290079 0.00000000)
(0.41203747 -0.00077467 0.00000000)
(0.39720831 -0.00373082 0.00000000)
(0.36010155 -0.00772516 0.00000000)
(0.27814534 -0.01570350 0.00000000)
(0.14467757 -0.01163797 0.00000000)
(0.02806825 0.00333391 0.00000000)
(-0.02133377 0.01447536 0.00000000)
(-0.03142125 0.02019346 0.00000000)
(-0.03124749 0.02401751 0.00000000)
(-0.03204287 0.02435143 0.00000000)
(-0.03093718 0.02454782 0.00000000)
(-0.03015478 0.02460750 0.00000000)
(-0.02904974 0.02479640 0.00000000)
(-0.02920584 0.02406486 0.00000000)
(-0.02958641 0.02501541 0.00000000)
(-0.03120962 0.02632788 0.00000000)
(-0.03387448 0.02840947 0.00000000)
(-0.03630486 0.03036044 0.00000000)
(-0.03999144 0.03327015 0.00000000)
(-0.04397650 0.03627229 0.00000000)
(-0.04836964 0.04045068 0.00000000)
(-0.05332052 0.04378943 0.00000000)
(-0.05833874 0.04762198 0.00000000)
(-0.06272970 0.05073627 0.00000000)
(-0.06706725 0.05236636 0.00000000)
(-0.07073111 0.05357305 0.00000000)
(-0.07360764 0.05340479 0.00000000)
(-0.07642749 0.05260849 0.00000000)
(-0.07849372 0.05091603 0.00000000)
(-0.08047424 0.04831084 0.00000000)
(-0.08269469 0.04481900 0.00000000)
(-0.08487005 0.04139423 0.00000000)
(-0.08666285 0.03724667 0.00000000)
(-0.08869627 0.03294120 0.00000000)
(-0.09091858 0.02860565 0.00000000)
(-0.09377574 0.02446825 0.00000000)
(-0.09755977 0.02038078 0.00000000)
(-0.10313313 0.01665617 0.00000000)
(-0.11130938 0.01338574 0.00000000)
(-0.12238859 0.01101890 0.00000000)
(-0.13375520 0.00936248 0.00000000)
(-0.14344237 0.00795181 0.00000000)
(-0.15135570 0.00649355 0.00000000)
(-0.15779423 0.00540279 0.00000000)
(-0.16301892 0.00469550 0.00000000)
(-0.16706683 0.00403770 0.00000000)
(-0.17011002 0.00336813 0.00000000)
(-0.17207960 0.00222707 0.00000000)
(-0.17282813 0.00111929 0.00000000)
(-0.17255175 0.00037096 0.00000000)
(-0.17169761 0.00002437 0.00000000)
(-0.17059497 -0.00023654 0.00000000)
(-0.16931361 -0.00037081 0.00000000)
(-0.16778883 -0.00044883 0.00000000)
(-0.16584337 -0.00079493 0.00000000)
(-0.16349014 -0.00140022 0.00000000)
(-0.16080090 -0.00182729 0.00000000)
(-0.15743887 -0.00192986 0.00000000)
(-0.15393395 -0.00205876 0.00000000)
(-0.15053718 -0.00250678 0.00000000)
(-0.14690796 -0.00247562 0.00000000)
(-0.14314664 -0.00251200 0.00000000)
(-0.13931867 -0.00277472 0.00000000)
(-0.13566899 -0.00260584 0.00000000)
(-0.13258499 -0.00174898 0.00000000)
(-0.13017417 -0.00141283 0.00000000)
(-0.12785947 -0.00166832 0.00000000)
(-0.12533236 -0.00166277 0.00000000)
(-0.12293633 -0.00156791 0.00000000)
(-0.12066593 -0.00146757 0.00000000)
(-0.11855588 -0.00144447 0.00000000)
(-0.11672723 -0.00106533 0.00000000)
(-0.11534391 -0.00049953 0.00000000)
(-0.11426507 0.00001361 0.00000000)
(-0.11366153 0.00059026 0.00000000)
(-0.11328229 0.00115957 0.00000000)
(-0.11250979 0.00052667 0.00000000)
(-0.11041557 -0.00137172 0.00000000)
(-0.10704066 -0.00469712 0.00000000)
(-0.10400964 -0.00987744 0.00000000)
(-0.10168618 -0.01554946 0.00000000)
(-0.09946541 -0.02172086 0.00000000)
(-0.09631191 -0.02707582 0.00000000)
(-0.09211736 -0.03242226 0.00000000)
(-0.08696480 -0.03684317 0.00000000)
(-0.08182589 -0.04028921 0.00000000)
(-0.07554189 -0.04130011 0.00000000)
(-0.06802402 -0.04275874 0.00000000)
(-0.06142796 -0.04189165 0.00000000)