3 	0.00391112967796255 	3.46944695195361e-18 	-0.0568952909492943 	-0.000444694320459352 	2.10281068011833e-21
3 	0.0118766651674914 	1.04083408558608e-17 	-0.147103938626564 	-0.00189077544947124 	7.33904738622416e-22
3 	0.0201340015485761 	1.73472347597681e-17 	-0.201838357024521 	-0.00504952533583468 	-4.20977485216807e-21
3 	0.0286938283423949 	2.77555756156289e-17 	-0.229101675747392 	-0.00898013624923023 	2.84751766027794e-21
3 	0.0375672266585909 	3.46944695195361e-17 	-0.240779602139967 	-0.0127500312090826 	2.61043709562326e-23
3 	0.0467656835403032 	3.46944695195361e-17 	-0.245503969038164 	-0.016236157332789 	-3.27167418176997e-21
3 	0.0526479212582088 	3.64291929955129e-17 	-0.246894325986051 	-0.0183077679659681 	-3.96929758133671e-21
3 	0.0575013897627896 	3.98986399474666e-17 	-0.247142404365423 	-0.01987709120459 	-2.99329658914151e-21
3 	0.0661858406082648 	4.5102810375397e-17 	-0.246870082356839 	-0.0225229902365978 	-9.10146814968218e-22
3 	0.0764326811267815 	5.89805981832114e-17 	-0.245393247242314 	-0.0253483969584749 	-9.84347784189658e-22
3 	0.0870548934207258 	6.93889390390723e-17 	-0.242928027804379 	-0.0279887579691958 	-1.50359786047648e-21
3 	0.0980662284574839 	5.89805981832114e-17 	-0.239642883672577 	-0.0304664910960697 	-4.01732663434229e-22
3 	0.109480940942647 	5.20417042793042e-17 	-0.23565297696273 	-0.0327983291473009 	9.59467271782778e-24
3 	0.121313807773417 	5.89805981832114e-17 	-0.231042038589178 	-0.0349957781968015 	4.41592580117943e-22
3 	0.13358014716801 	5.89805981832114e-17 	-0.225872456192343 	-0.0370663742142707 	-2.98344630053347e-21
3 	0.146295838495838 	5.55111512312578e-17 	-0.220190817564669 	-0.0390146882568244 	-2.89663372487866e-21
3 	0.159477342834115 	6.07153216591882e-17 	-0.214031405367725 	-0.0408430634550398 	-4.5166830348201e-22
3 	0.173141724277517 	6.59194920871187e-17 	-0.207418594194587 	-0.0425521579075583 	-2.1636742051104e-21
3 	0.18730667202848 	6.93889390390723e-17 	-0.200368561117129 	-0.0441413437748084 	2.99059059280088e-21
3 	0.201990523296728 	7.63278329429795e-17 	-0.192890518001081 	-0.0456090028482321 	3.07145024182393e-22
3 	0.217212287037676 	8.06646416329215e-17 	-0.184987588250146 	-0.0469527512965556 	1.09085765100043e-23
3 	0.232991668560441 	8.32667268468867e-17 	-0.176657408109447 	-0.0481696182930826 	-1.39856295022842e-22
3 	0.249349095037321 	9.08561420542853e-17 	-0.167892507726924 	-0.0492561967390134 	2.95576969837287e-21
3 	0.266305741947753 	9.34582272682505e-17 	-0.158680510590356 	-0.0502087797568616 	-3.21686579839658e-21
3 	0.283883560490999 	9.36750677027476e-17 	-0.148990365876365 	-0.0510565702260216 	2.99621590072182e-21
3 	0.30210530600303 	9.36750677027476e-17 	-0.138810236615527 	-0.0517706382406933 	-2.34883380780522e-22
3 	0.320994567414413 	9.36750677027476e-17 	-0.128116757802225 	-0.0523359565674044 	-3.64960734328443e-22
3 	0.340575797787321 	1.00613961606655e-16 	-0.116876056796612 	-0.0527492758955011 	2.25158124427579e-22
3 	0.360874345971201 	1.00613961606655e-16 	-0.105048152206155 	-0.0530078567659401 	3.40141022578454e-21
3 	0.38191648941809 	9.36750677027476e-17 	-0.0925862965661759 	-0.0531096883784453 	-5.42564813124852e-21
3 	0.403729468200046 	8.67361737988404e-17 	-0.0794361679951864 	-0.053053738737602 	1.30524262231838e-23
3 	0.426341520272734 	8.32667268468867e-17 	-0.065534891033647 	-0.0528402353326245 	1.50365974960831e-21
3 	0.449781918030829 	7.63278329429795e-17 	-0.0508098654719574 	-0.0524709728051242 	2.41993404826568e-21
3 	0.470050820755539 	7.45931094670027e-17 	-0.0378017871645183 	-0.0520474701447831 	8.2974440124445e-22
3 	0.482418898762182 	7.80625564189563e-17 	-0.0297577383326698 	-0.0517484578452063 	1.9763688339021e-22
3 	0.499270241132364 	6.59194920871187e-17 	-0.0185975215093392 	-0.0512876552383733 	5.9809481765935e-25
3 	0.525382231502763 	6.93889390390723e-17 	-0.000931058286774283 	-0.0504869439064446 	1.4629933793906e-21
3 	0.552450780547768 	8.50014503228635e-17 	0.0179550298378683 	-0.0495563653017515 	-1.64454140151992e-21
3 	0.58051092981285 	8.15320033709099e-17 	0.0382020738636428 	-0.0485086495642622 	3.67932479469735e-23
3 	0.609599004517911 	7.37257477290143e-17 	0.0599731722829021 	-0.0473586615458009 	8.0910793949695e-21
3 	0.639752660582033 	7.45931094670027e-17 	0.0834531104235605 	-0.0461226914718268 	2.63033983830112e-22
3 	0.671010933370887 	7.37257477290143e-17 	0.108849157568068 	-0.044817998316753 	0
3 	0.703414288229901 	6.93889390390723e-17 	0.13651095273566 	-0.0435057059257407 	1.00386336627076e-18
3 	0.737004672868607 	6.93889390390723e-17 	0.167242099555061 	-0.0421031120480123 	4.38629013074084e-17
3 	0.771825571663977 	6.93889390390723e-17 	0.202070076896734 	-0.0406330008570714 	-4.46490166847888e-17
3 	0.807922061953055 	6.93889390390723e-17 	0.241150402825379 	-0.0390980491589155 	-6.45416604736114e-18
3 	0.845340872387744 	7.63278329429795e-17 	0.283911724898904 	-0.0375440825934985 	3.1358702584477e-21
3.00000000000001 	0.866676392750136 	8.32667268468867e-17 	0.308857578126687 	-0.036658204523345 	1.5130407755186e-21
3.00000000000001 	0.886455402111195 	8.67361737988404e-17 	0.332335743830727 	-0.0358549890772132 	5.69723569020918e-21
3.00000000000001 	0.92445065876506 	9.19403442267708e-17 	0.377723383885908 	-0.0342692769392577 	1.00676973963052e-20
3.00000000000001 	0.966210582287602 	9.54097911787244e-17 	0.427932421036249 	-0.0324673337664907 	1.5273935050046e-22
3.00000000000001 	1.00949415586823 	1.06685493772574e-16 	0.479733620660463 	-0.0305170245576169 	3.81694483228473e-20
3.00000000000001 	1.05435664465128 	1.10154940724527e-16 	0.532535976511649 	-0.0284150041571038 	-2.3136288843433e-20
3.00000000000001 	1.10085528468405 	1.00613961606655e-16 	0.58576576526627 	-0.0261492894904076 	2.98384311131947e-20
3.00000000000001 	1.14904934932428 	1.00613961606655e-16 	0.638198786921984 	-0.0237870024931746 	-4.46903866879598e-21
3.00000000000001 	1.19900021737469 	1.11022302462516e-16 	0.688965708909914 	-0.021381847738116 	1.413718131623e-20
3.00000000000001 	1.22713389413205 	1.22298005056365e-16 	0.716225610686046 	-0.0200515784238346 	1.53401746852708e-20
3.00000000000001 	1.25366308516615 	1.22298005056365e-16 	0.739915555007246 	-0.0188681389832773 	1.36136916445766e-20
3.00000000000001 	1.30497068633627 	1.21430643318376e-16 	0.783352267622711 	-0.016664674940023 	3.46928039701928e-21
3.00000000000001 	1.36091955943679 	1.23599047663348e-16 	0.825925883351671 	-0.0144812469924602 	3.27243252480214e-20
3.00000000000001 	1.41883962727306 	1.27068494615301e-16 	0.864942549827691 	-0.0124970949300361 	-2.53765591412763e-20
3.00000000000001 	1.47879577048623 	1.35308431126191e-16 	0.900412532855807 	-0.0107558097300208 	-4.5898670480443e-21
3.00000000000001 	1.53641771586125 	1.28369537222284e-16 	0.930743222504847 	-0.00935197469738587 	-1.15196016798242e-20
3.00000000000001 	1.56800193463397 	1.14491749414469e-16 	0.946353883866944 	-0.00865360807179126 	-1.57409358711686e-20
3.00000000000001 	1.60525271041419 	1.17961196366423e-16 	0.963167889742369 	-0.00793467616938074 	-1.428195534708e-20
3.00000000000001 	1.67193277963729 	1.24466409401336e-16 	0.991198126895021 	-0.00678468611875104 	2.12550599670613e-20
3.00000000000001 	1.74083042492046 	1.17527515497429e-16 	1.01695136487947 	-0.00582432253329663 	1.37547101384285e-21
3.00000000000001 	1.81200624734564 	1.14491749414469e-16 	1.04046262554483 	-0.00500168385870072 	9.50138821696438e-21
3.00000000000001 	1.86045129005489 	1.07552855510562e-16 	1.05514930847122 	-0.00451103149152082 	3.17403525809222e-21
3.00000000000001 	1.89781873885847 	1.07552855510562e-16 	1.06566781978814 	-0.00417659725308325 	5.0493605837501e-21
3.00000000000001 	1.96145309574692 	1.1666015375944e-16 	1.08206126169278 	-0.00367617676601881 	1.84087194434292e-21
3.00000000000001 	2.02025965173185 	1.15359111152458e-16 	1.09626154229011 	-0.00324227697270988 	0
3.00000000000001 	2.06006301192217 	1.15359111152458e-16 	1.10512536384725 	-0.00298292715535818 	0
3.00000000000001 	2.09845978584128 	1.15359111152458e-16 	1.11301559362138 	-0.00275705786951591 	0
3.00000000000001 	2.13549967996946 	1.11889664200504e-16 	1.12014519360855 	-0.00255247668972345 	0
3.00000000000001 	2.17123064424049 	1.0842021724855e-16 	1.1265821031608 	-0.00236774885907833 	0
3.00000000000001 	2.20569893411516 	1.11889664200504e-16 	1.1323850039267 	-0.00220030969574588 	0
3.00000000000001 	2.23894917046123 	1.15359111152458e-16 	1.13760473421621 	-0.0020481077719774 	0
3.00000000000001 	2.27102439731726 	1.15359111152458e-16 	1.14228537849127 	-0.00190940203098784 	0
3.00000000000001 	2.30196613761522 	1.15359111152458e-16 	1.14646509548367 	-0.00178268981756611 	0
3.00000000000001 	2.33181444693392 	1.25767452008319e-16 	1.15017676050823 	-0.00166666285805119 	0
3.00000000000001 	2.36060796535291 	1.36175792864179e-16 	1.15344847110043 	-0.0015601754609698 	0
3.00000000000001 	2.38838396747391 	1.39645239816133e-16 	1.15630394893063 	-0.0014622196569408 	0
3.00000000000001 	2.41517841067462 	1.43982048506075e-16 	1.15876286042285 	-0.00137190569413785 	0
3.00000000000001 	2.44102598165723 	1.51788304147971e-16 	1.16084107229385 	-0.00128844631464057 	0
3.00000000000001 	2.46596014135208 	1.62196645003831e-16 	1.16255085445711 	-0.00121114377165175 	0
3.00000000000001 	2.49001316823444 	1.69135538907739e-16 	1.16390104059661 	-0.00113937889725599 	0
3.00000000000001 	2.51321620011055 	1.69135538907739e-16 	1.16489715576443 	-0.00107260174710117 	-8.4087183858602e-18
3.00000000000001 	2.53559927442701 	1.65666091955785e-16 	1.16554152031957 	-0.00101032349268577 	-8.03691849848601e-18
3.00000000000001 	2.55719136715572 	1.62196645003831e-16 	1.16583334020456 	-0.00095210932991997 	9.14539038228626e-18
3.00000000000001 	2.57802043030466 	1.65666091955785e-16 	1.16576879475828 	-0.000897572238755126 	8.77359049490696e-18
3.00000000000001 	2.59811342810316 	1.72604985859692e-16 	1.16534113475047 	-0.000846367472872339 	0
3.00000000000001 	2.61749637190833 	1.72604985859692e-16 	1.16454080475956 	-0.000798187687431917 	0
3.00000000000001 	2.63619435387807 	1.72604985859692e-16 	1.16335560493315 	-0.000752758631281985 	0
3.00000000000001 	2.65423157945407 	1.72604985859692e-16 	1.1617709069514 	-0.000709835340926402 	0
3.00000000000001 	2.67163139869692 	1.72604985859692e-16 	1.15976993694001 	-0.000669198779251346 	0
3.00000000000001 	2.68841633651389 	1.72604985859692e-16 	1.1573341334437 	-0.000630652864420699 	0
3.00000000000001 	2.70460812181851 	1.72604985859692e-16 	1.15444358089852 	-0.000594021835145145 	0
3.00000000000001 	2.72022771565973 	1.72604985859692e-16 	1.15107750837542 	-0.000559147899129429 	0
3.00000000000001 	2.73529533835695 	1.72604985859692e-16 	1.14721483054958 	-0.000525889113043712 	0
3.00000000000001 	2.74983049567626 	1.72604985859692e-16 	1.14283469466276 	-0.000494117445894405 	0
3.00000000000001 	2.76385200408157 	1.72604985859692e-16 	1.13791698624149 	-0.00046371698432795 	0
3.00000000000001 	2.77737801509344 	1.72604985859692e-16 	1.1324427402849 	-0.000434582249449175 	0
3.00000000000001 	2.79042603878709 	1.72604985859692e-16 	1.12639440567739 	-0.000406616611092914 	0
3.00000000000001 	2.80301296646004 	1.76074432811646e-16 	1.11975591934304 	-0.000379730806970841 	0
3.00000000000001 	2.81515509249873 	1.76074432811646e-16 	1.11251256179336 	-0.000353841598886299 	0
3.00000000000001 	2.82686813547238 	1.76074432811646e-16 	1.10465058409956 	-0.000328870622710735 	0
3.00000000000001 	2.83816725848143 	1.795438797636e-16 	1.09615661391376 	-0.000304743508327577 	0
3.00000000000001 	2.84906708878692 	1.795438797636e-16 	1.08701686120621 	-0.000281389359698546 	0
3.00000000000001 	2.85958173674617 	1.76074432811646e-16 	1.07721615037277 	-0.000258740710474961 	0
3.00000000000001 	2.86972481407934 	1.76074432811646e-16 	1.06673680346243 	-0.000236734077543043 	0
3.00000000000001 	2.87950945149044 	1.86482773667507e-16 	1.05555739009243 	-0.000215310860252218 	0
3.00000000000001 	2.88894831566567 	1.8995222061946e-16 	1.04365134455153 	-0.00019441799504106 	0
3.00000000000001 	2.89805362567107 	1.86482773667507e-16 	1.03098543076003 	-0.000174012642083297 	0
3.00000000000001 	2.90683716877068 	1.86482773667507e-16 	1.01751699143331 	-0.000154099677209487 	0
3.00000000000001 	2.9153103156857 	1.83013326715553e-16 	1.00316431386402 	-0.000134569002771557 	0
3.00000000000001 	2.92348403531449 	1.76074432811646e-16 	0.987798318847273 	-0.000115306441235043 	0
3.00000000000001 	2.9313689089323 	1.76074432811646e-16 	0.971298494867501 	-9.61661951537318e-05 	0
3.00000000000001 	2.93897514388926 	1.795438797636e-16 	0.95356833395827 	-7.71326119682421e-05 	0
3.00000000000001 	2.94631258682426 	1.83013326715553e-16 	0.93449912857501 	-5.82468289046135e-05 	0
3.00000000000001 	2.95339073641194 	1.86482773667507e-16 	0.913946716523644 	-3.96255700589844e-05 	0
3.00000000000001 	2.96021875565916 	1.83013326715553e-16 	0.891716456069123 	-2.14842674113e-05 	0
3.00000000000001 	2.96680548376698 	1.795438797636e-16 	0.867549966064544 	-4.14817750694917e-06 	0
3.00000000000001 	2.97315944757338 	1.76074432811646e-16 	0.841108595422629 	1.19511854637739e-05 	0
3.00000000000001 	2.97928887259172 	1.72604985859692e-16 	0.81194971415038 	2.62944398299753e-05 	0
3.00000000000001 	2.98520169365903 	1.76074432811646e-16 	0.779492454615553 	3.83084856609179e-05 	0
3.00000000000001 	2.99090556520807 	1.76074432811646e-16 	0.742969576218659 	4.74143021640048e-05 	0
3.00000000000001 	2.99640787117634 	1.72604985859692e-16 	0.701361095597443 	5.3083398442147e-05 	0
3.00000000000001 	3.00171573456493 	1.76074432811646e-16 	0.653320544267812 	5.49034702288862e-05 	0
3.00000000000001 	3.00683602665963 	1.76074432811646e-16 	0.597100717752156 	5.26856024573784e-05 	0
3.00000000000001 	3.01177537592613 	1.72604985859692e-16 	0.530377582285195 	4.67596005081888e-05 	0
3.00000000000001 	3.01654017659086 	1.76074432811646e-16 	0.450341794572007 	3.77113650138058e-05 	0
3.00000000000001 	3.02113659691865 	1.795438797636e-16 	0.356510722014485 	2.66805095605528e-05 	0
3.00000000000001 	3.02557058719785 	1.795438797636e-16 	0.254347927169738 	1.54481987760805e-05 	0
3.00000000000001 	3.02984788744325 	1.795438797636e-16 	0.151071442249408 	6.29846496004831e-06 	0
