6 	0.00391112967796265 	1.73472347597681e-17 	0.253721943124194 	3.99621738674043e-05 	760.073743462083 	1.11998836967193e-06 	5.41416802808946e-38
6 	0.0118766651674913 	2.42861286636753e-17 	0.253723377180522 	0.000355009752380625 	304.406282261904 	6.49671073945261e-06 	0
6 	0.020134001548576 	2.42861286636753e-17 	0.253716435607334 	0.00144995594049902 	67.756024633082 	1.09106730569332e-05 	0
6 	0.028693828342395 	2.08166817117217e-17 	0.253703215530201 	0.00352463640986389 	26.7840625903393 	1.88614609816305e-05 	0
6 	0.0375672266585908 	2.42861286636753e-17 	0.253677240626169 	0.00599208674061106 	14.3065664261507 	7.90226545691693e-05 	0
6 	0.0467656835403032 	2.42861286636753e-17 	0.253635694253602 	0.00826897437146541 	9.34001732668716 	0.000182638220417508 	0
6 	0.0563011068347008 	2.42861286636753e-17 	0.25358095549404 	0.0102344593209302 	6.91553279791176 	0.000289557791479631 	0
6 	0.0661858406082648 	2.77555756156289e-17 	0.253516704129131 	0.0119575220252984 	5.52448237954958 	0.000389881221992893 	0
6 	0.0764326811267815 	2.77555756156289e-17 	0.253445398958984 	0.0135104531898453 	4.63155122237311 	0.0004876681413985 	0
6 	0.0870548934207258 	3.12250225675825e-17 	0.253368462842634 	0.0149433739758345 	4.01288864854912 	0.00058649280692277 	0
6 	0.0980662284574839 	3.81639164714898e-17 	0.253286924242463 	0.0162899503975591 	3.56075084764222 	0.000688596930604457 	0
6 	0.109480940942647 	4.16333634234434e-17 	0.253201660165423 	0.0175734760811026 	3.2173397242401 	0.00079550550795346 	0
6 	0.121313807773417 	3.98986399474666e-17 	0.253113447080206 	0.0188107122855504 	2.94897933161693 	0.000908401790717791 	0
6 	0.13358014716801 	3.29597460435593e-17 	0.253022989817369 	0.0200141815951863 	2.73475251344678 	0.00102831464622439 	0
6 	0.146295838495838 	2.77555756156289e-17 	0.252930948203316 	0.021193559821596 	2.56099398359029 	0.00115621401043488 	0
6 	0.159477342834115 	2.94902990916057e-17 	0.252837954440897 	0.022356546795685 	2.41840618732733 	0.00129306283820858 	0
6 	0.173141724277517 	3.98986399474666e-17 	0.252744622719553 	0.0235094491779612 	2.30045029939363 	0.00143984445061769 	0
6 	0.18730667202848 	5.20417042793042e-17 	0.252651555421664 	0.0246577017305027 	2.20240074334873 	0.00159759370286514 	0
6 	0.201990523296728 	5.3776427755281e-17 	0.252559344344556 	0.0258058103809092 	2.12076411124239 	0.00176740563409677 	0
6 	0.217212287037676 	4.85722573273506e-17 	0.252468567806902 	0.0269576318480641 	2.05290847693742 	0.00195045428953161 	0
6 	0.232991668560441 	3.98986399474666e-17 	0.252379787836579 	0.0281165171618659 	1.99681966006407 	0.00214799972097342 	0
6 	0.249349095037321 	3.46944695195361e-17 	0.252293545148607 	0.0292854007209783 	1.95093622294021 	0.0023613952893829 	0
6 	0.266305741947753 	3.03576608295941e-17 	0.252210351920231 	0.0304668481559694 	1.9140348720208 	0.00259209327693742 	0
6 	0.283883560490998 	2.08166817117217e-17 	0.252130682520392 	0.0316630808057917 	1.88514899059477 	0.00284164838055499 	0
6 	0.30210530600303 	6.93889390390723e-18 	0.252054962103093 	0.0328759803298148 	1.86350943793406 	0.00311171810421154 	0
6 	0.320994567414413 	7.37257477290143e-18 	0.251983552841246 	0.0341070754218423 	1.8485005786938 	0.0034040589864939 	0
6 	0.340575797787321 	1.77809156287623e-17 	0.251916737522542 	0.0353575114697459 	1.8396268668354 	0.00372051720488449 	0
6 	0.360874345971201 	1.43114686768087e-17 	0.251854700165731 	0.036628003201437 	1.83648679878298 	0.00406301163962164 	0
6 	0.38191648941809 	1.30104260698261e-18 	0.251797473270549 	0.0379187723379979 	1.8387549762603 	0.00443352689687047 	0
6 	0.403729468200045 	-6.93889390390723e-18 	0.251743600573075 	0.0392295647317006 	1.84628718501392 	0.00483500677989327 	0
6 	0.426341520272733 	-1.38777878078145e-17 	0.251694106615772 	0.0405591626585594 	1.85871331368048 	0.00526852151283006 	0
6 	0.449781918030828 	-2.08166817117217e-17 	0.251648480088222 	0.0419056355367376 	1.87582991319085 	0.00573584645986744 	0
6 	0.474081006202548 	-2.77555756156289e-17 	0.251605941462892 	0.0432660780277362 	1.89744712787807 	0.0062385064546502 	0
6 	0.499270241132363 	-3.81639164714898e-17 	0.251565396121562 	0.0446364397513186 	1.92337639167846 	0.00677763084497271 	0
6 	0.525382231502763 	-4.16333634234434e-17 	0.251525392076127 	0.046011335873248 	1.9534181468052 	0.0073537633792812 	0
6 	0.552450780547767 	-4.16333634234434e-17 	0.251483997931023 	0.0473838432210197 	1.98734947736868 	0.00796663170076818 	0
6 	0.58051092981285 	-3.46944695195361e-17 	0.251438385151601 	0.048745290051418 	2.02491178660722 	0.00861498859180787 	0
6 	0.609599004517911 	-2.77555756156289e-17 	0.251384938269212 	0.0500850475610722 	2.0657987967537 	0.00930440663285796 	0
6 	0.639752660582033 	-2.77555756156289e-17 	0.251323795616442 	0.0513909812058586 	2.10966851448747 	0.0100935595418732 	0
6 	0.671010933370887 	-3.12250225675825e-17 	0.251261386929664 	0.0526533661771421 	2.15626329273234 	0.0110501286697871 	0
6 	0.703414288229901 	-3.81639164714898e-17 	0.251184904291263 	0.0538636144372416 	2.20515078477023 	0.0121189162234403 	0
6 	0.737004672868606 	-3.81639164714898e-17 	0.251062994696947 	0.0549918661234087 	2.25442319017943 	0.0132497908752186 	0
6 	0.771255893458755 	-3.81639164714898e-17 	0.250877608183166 	0.055960635757204 	2.29955467881822 	0.0142670799640602 	0
6 	0.788979504711946 	-4.16333634234434e-17 	0.250764373193971 	0.0564066700471469 	2.32102356831082 	0.0147376575055202 	0
6 	0.807922061953054 	-4.5102810375397e-17 	0.250610923206995 	0.0567459278431621 	2.33837929847863 	0.0151037276416502 	0
6 	0.845340872387743 	-4.5102810375397e-17 	0.2502690830595 	0.0572437201865533 	2.36504669300166 	0.0156787101614229 	0
6 	0.88413044342731 	-3.46944695195361e-17 	0.249840536222753 	0.0574152269758267 	2.37707582106583 	0.0160098968504958 	0
6 	0.924340990046898 	-3.64291929955129e-17 	0.249315831747925 	0.0572288913165337 	2.37261969064042 	0.0161146822972433 	0
6 	0.966024566743242 	-5.03069808033274e-17 	0.248682451652376 	0.0566667149383331 	2.35080691703379 	0.0159983775493941 	0
6 	1.00923513492173 	-6.07153216591882e-17 	0.247925537716796 	0.0557230617396771 	2.31157015576974 	0.0156541618852495 	0
6 	1.05402863275206 	-6.24500451351651e-17 	0.24702911375302 	0.0544065807896594 	2.25554390508273 	0.0150753787743655 	0
6 	1.10046304758287 	-6.11490025281825e-17 	0.245977610232912 	0.0527434164039967 	2.1840087080034 	0.0142694799128755 	0
6 	1.14859849100923 	-5.91974386177085e-17 	0.244757373266714 	0.0507790207982845 	2.09884550924752 	0.013266331903846 	0
6 	1.19849727668995 	-5.87637577487143e-17 	0.243350906199064 	0.0485732830384477 	2.00228194833023 	0.0121164498920362 	0
6 	1.25022400101563 	-6.24500451351651e-17 	0.241744581690456 	0.0462046107237287 	1.897127531267 	0.0108896368783205 	0
6 	1.30384562673186 	-6.24500451351651e-17 	0.239950760381294 	0.0437594786379471 	1.78683044757827 	0.00965452247388967 	0
6 	1.35943156962566 	-5.89805981832114e-17 	0.237975709039747 	0.0413273943680608 	1.67750680223097 	0.00846599815012015 	0
6 	1.41705378838763 	-5.55111512312578e-17 	0.235831775018292 	0.0389730317600224 	1.57285216143412 	0.00736306184220353 	0
6 	1.47678687776592 	-5.20417042793042e-17 	0.233535428848439 	0.0367239335206521 	1.4731863792576 	0.0063672317825843 	0
6 	1.533710603315 	-5.55111512312578e-17 	0.231303433578213 	0.0347490537411362 	1.38502775631313 	0.0055490782740098 	0
6 	1.56522813627809 	-5.55111512312578e-17 	0.230056830798171 	0.033702902774253 	1.3379076525122 	0.00513364710883576 	0
6 	1.60289781058851 	-5.20417042793042e-17 	0.228567080767257 	0.0325288326787098 	1.28382474830804 	0.00469849242532651 	0
6 	1.66943891073267 	-5.3776427755281e-17 	0.225936339547033 	0.0305466638969473 	1.19121903652862 	0.00400431579801951 	0
6 	1.73841760623657 	-5.03069808033274e-17 	0.223233121397236 	0.0286284887053838 	1.10117767469738 	0.00338955509164405 	0
6 	1.8099231933566 	-5.29090660172926e-17 	0.220481189204532 	0.0267711598128933 	1.0175391651485 	0.002844113719817 	0
6 	1.88404823953249 	-5.18248638448071e-17 	0.217711128421291 	0.024978853760884 	0.944845827125213 	0.00236701007719681 	0
6 	1.96088870322038 	-4.74880551548651e-17 	0.214970331894493 	0.0232495064707659 	0.884673608637467 	0.00196414764679567 	0
6 	2.02025965173185 	-4.85722573273506e-17 	0.213109603564679 	0.0219636528155549 	0.84733126479809 	0.00166067930845344 	0
6 	2.06006301192217 	-4.5102810375397e-17 	0.211796238490516 	0.0210840501021515 	0.824398782575516 	0.00147713949269346 	0
6 	2.09845978584128 	-4.5102810375397e-17 	0.210607247224082 	0.0202627315670834 	0.805409868202379 	0.00131075338016581 	0
6 	2.13549967996946 	-5.20417042793042e-17 	0.209495862260102 	0.0194794093561307 	0.789558043907635 	0.00115608370596133 	0
6 	2.17123064424048 	-5.89805981832114e-17 	0.208455144817921 	0.0187326146302348 	0.77663655814224 	0.00101330887505849 	0
6 	2.20569893411516 	-6.59194920871187e-17 	0.207481632155134 	0.0180208934783274 	0.766485224705405 	0.000882293206412488 	0
6 	2.23894917046123 	-7.28583859910259e-17 	0.206571631037682 	0.0173428263199848 	0.75898480091089 	0.0007626291139363 	0
6 	2.27102439731726 	-7.97972798949331e-17 	0.205721384079452 	0.0166970087934822 	0.754052853186641 	0.000653751896150016 	0
6 	2.30196613761522 	-8.67361737988404e-17 	0.204927297010815 	0.016082074918311 	0.751640717850975 	0.000555033930927753 	0
6 	2.33181444693392 	-8.67361737988404e-17 	0.204185949844568 	0.0154967273836659 	0.751731424832795 	0.000465846528241198 	0
6.00000000000001 	2.3606079653529 	-8.32667268468867e-17 	0.203494088741688 	0.0149397534421968 	0.754338514985361 	0.00038559759275579 	0
6.00000000000001 	2.38838396747391 	-7.63278329429795e-17 	0.202848626269258 	0.0144100354408119 	0.759505707816839 	0.000313754737087953 	0
6.00000000000001 	2.41517841067461 	-6.93889390390723e-17 	0.202246641280472 	0.0139065589068112 	0.767307388184035 	0.000249859668013073 	0
6.00000000000001 	2.44102598165722 	-6.93889390390723e-17 	0.201685376550585 	0.0134284193467479 	0.777849889710324 	0.000193537665344447 	0
6.00000000000001 	2.46596014135208 	-6.93889390390723e-17 	0.201162234870166 	0.0129748285094752 	0.791273565281546 	0.000144504630892044 	0
6.00000000000001 	2.49001316823444 	-6.93889390390723e-17 	0.200674774009865 	0.0125451206136543 	0.807755648211902 	0.000102573309789935 	0
6.00000000000001 	2.51321620011054 	-6.93889390390723e-17 	0.200220700607601 	0.0121387578766297 	0.827513919584788 	6.76597576381394e-05 	0
6.00000000000001 	2.535599274427 	-6.93889390390723e-17 	0.199797863893979 	0.0117553301663372 	0.850811217610292 	3.9790595770147e-05 	0
6.00000000000001 	2.55719136715571 	-6.93889390390723e-17 	0.199404249322478 	0.0113945583267397 	0.877960829295704 	1.91114564303796e-05 	0
6.00000000000001 	2.57802043030466 	-6.93889390390723e-17 	0.199037971633066 	0.0110562984839359 	0.909332783314005 	5.89682122228591e-06 	0
6.00000000000001 	2.59811342810315 	-7.28583859910259e-17 	0.198697267738535 	0.010740544647497 	0.945361045714233 	5.61353059213301e-07 	0
6.00000000000001 	2.61749637190832 	-7.63278329429795e-17 	0.19838048966559 	0.010447429016006 	0.986551585387281 	3.6725649309581e-06 	0
6.00000000000001 	2.63619435387806 	-7.63278329429795e-17 	0.198086097596187 	0.0101772194686886 	1.03349121413482 	1.59644448555797e-05 	0
6.00000000000001 	2.65423157945406 	-8.32667268468867e-17 	0.197812653039133 	0.00993031338791494 	1.08685701561935 	3.83514038050008e-05 	0
6.00000000000001 	2.67163139869691 	-9.0205620750794e-17 	0.19755881217729 	0.00970722655747708 	1.14742605758321 	7.19416045590213e-05 	0
6.00000000000001 	2.68841633651388 	-9.0205620750794e-17 	0.197323319447692 	0.00950857545416144 	1.21608493787668 	0.000118048401638218 	0
6.00000000000001 	2.70460812181851 	-9.0205620750794e-17 	0.197105001340673 	0.00933505109758116 	1.29383856041728 	0.000178198293380643 	0
6.00000000000001 	2.72022771565972 	-9.0205620750794e-17 	0.196902760416595 	0.00918738439269579 	1.38181737164521 	0.000254133505866065 	0
6.00000000000001 	2.73529533835695 	-9.0205620750794e-17 	0.196715569626306 	0.00906630168124482 	1.481282148472 	0.000347807170290622 	0
6.00000000000001 	2.74983049567626 	-9.0205620750794e-17 	0.196542466993943 	0.00897246966202999 	1.59362539298375 	0.000461369157368741 	0
6.00000000000001 	2.76385200408157 	-9.0205620750794e-17 	0.19638255069885 	0.00890643003335292 	1.72036851050661 	0.000597141067899059 	0
6.00000000000001 	2.77737801509344 	-8.32667268468867e-17 	0.196234974587722 	0.00886852564387845 	1.8631542918004 	0.000757579677163709 	0
6.00000000000001 	2.79042603878708 	-7.63278329429795e-17 	0.196098944138987 	0.00885882150444314 	2.0237348464622 	0.000945229267251091 	0
6.00000000000001 	2.80301296646003 	-6.59194920871187e-17 	0.195973712886154 	0.00887702556050495 	2.20395606783471 	0.00116266465610219 	0
6.00000000000001 	2.81515509249873 	-5.55111512312578e-17 	0.195858579304286 	0.00892241535567235 	2.40574091905629 	0.00141242822996601 	0
6.00000000000001 	2.82686813547238 	-5.55111512312578e-17 	0.195752884153176 	0.00899377715485505 	2.63107522822473 	0.00169696575010478 	0
6.00000000000001 	2.83816725848143 	-5.20417042793042e-17 	0.195656008248157 	0.00908936377710837 	2.88200112772882 	0.00201856699963121 	0
6.00000000000001 	2.84906708878692 	-5.20417042793042e-17 	0.195567370554091 	0.00920687618807259 	3.16062459765705 	0.00237931837063323 	0
6.00000000000001 	2.85958173674617 	-4.85722573273506e-17 	0.195486426321323 	0.00934347181299934 	3.46914464192956 	0.00278107527440844 	0
6.00000000000001 	2.86972481407933 	-3.46944695195361e-17 	0.195412665364639 	0.00949579979330989 	3.80991241255252 	0.00322546281701031 	0
6 	2.87950945149043 	-2.77555756156289e-17 	0.195345613525364 	0.00966006052594738 	4.18552923697772 	0.00371429111492315 	0
6 	2.88894831566567 	-2.77555756156289e-17 	0.195284840777296 	0.00983208231097819 	4.59902226866394 	0.00425709973254812 	0
6 	2.89805362567107 	-2.77555756156289e-17 	0.195229938833862 	0.0100073592258866 	5.05466218033522 	0.00487927236719093 	0
6 	2.90683716877067 	-2.77555756156289e-17 	0.195180480933101 	0.0101808088418259 	5.55963707031392 	0.00556151811172619 	0
6 	2.9153103156857 	-2.77555756156289e-17 	0.195136024747122 	0.0103462256392056 	6.12036060678861 	0.00632322872116693 	0
6 	2.92348403531449 	-2.77555756156289e-17 	0.19509619040175 	0.0104942490673051 	6.73904240443942 	0.00712999046894548 	0
6 	2.9313689089323 	-2.77555756156289e-17 	0.195060694584582 	0.010615085191119 	7.41786039915178 	0.00796284735764866 	0
6.00000000000001 	2.93897514388925 	-3.12250225675825e-17 	0.195029316882294 	0.0106999591914721 	8.16227638557115 	0.00881734051797547 	0
6.00000000000001 	2.94631258682425 	-3.46944695195361e-17 	0.195001877871354 	0.0107413600881899 	8.98325803399483 	0.00969859642111028 	0
6.00000000000001 	2.95339073641193 	-3.12250225675825e-17 	0.194978230596023 	0.0107326045468303 	9.899054180042 	0.0106181328707243 	0
6 	2.96021875565916 	-2.77555756156289e-17 	0.194958254249154 	0.0106670858622992 	10.9374180904169 	0.0115924613356943 	0
6 	2.96680548376697 	-2.77555756156289e-17 	0.194941844861697 	0.0105373471639432 	12.1386503575771 	0.0126426602278276 	0
6.00000000000001 	2.97315944757337 	-3.12250225675825e-17 	0.194928900643741 	0.0103339610254467 	13.5601978981221 	0.0137935960189266 	0
6.00000000000001 	2.97928887259171 	-4.16333634234434e-17 	0.194919300134915 	0.0100440476292234 	15.2849643548914 	0.0150707743911821 	0
6.00000000000001 	2.98520169365903 	-5.55111512312578e-17 	0.19491287196281 	0.0096492704197703 	17.4348067269076 	0.0164913470134742 	0
6.00000000000001 	2.99090556520807 	-5.89805981832114e-17 	0.194909358495994 	0.00912328268772098 	20.1928919906769 	0.0180429106886378 	0
6.00000000000001 	2.99640787117633 	-5.55111512312578e-17 	0.194908387598883 	0.00842888756708223 	23.8439844968667 	0.019637046707958 	0
6.00000000000001 	3.00171573456492 	-5.20417042793042e-17 	0.194909492084293 	0.00751635054705713 	28.8538779016874 	0.0210310850327815 	0
6.00000000000001 	3.00683602665963 	-5.20417042793042e-17 	0.194912145027753 	0.00632544634945815 	36.0493912210584 	0.0216333723888365 	0
6.00000000000001 	3.01177537592613 	-5.55111512312578e-17 	0.194915572165129 	0.00480138465391146 	47.0907163030217 	0.0196357607014981 	0
6.00000000000001 	3.01654017659085 	-4.85722573273506e-17 	0.1949187784452 	0.00302879228545554 	65.9687731292717 	0.0135633131754365 	0
6 	3.02113659691864 	-4.85722573273506e-17 	0.194921173237509 	0.00140766793488424 	105.271739897804 	0.00558685683627586 	0
6 	3.02557058719784 	-5.20417042793042e-17 	0.194922971028817 	0.000424837336513006 	216.557887020942 	0.00109798984539943 	0
6 	3.02984788744324 	-5.20417042793042e-17 	0.194924756035293 	6.885307869773e-05 	718.793237794752 	8.80041207033292e-05 	0
