6 	0.00391112967796265 	1.73472347597681e-17 	-0.0134945854514222 	-8.04771605457019e-05 	-1.34315874099191e-20
6 	0.0118766651674913 	2.42861286636753e-17 	-0.0353651441331361 	-0.000197275931472152 	-1.04073812573953e-20
6 	0.020134001548576 	2.42861286636753e-17 	-0.0474973937734999 	-0.000407020417445954 	3.52499806230784e-21
6 	0.028693828342395 	2.08166817117217e-17 	-0.050682865908962 	-0.000743456396215181 	6.05475454417524e-21
6 	0.0375672266585908 	2.42861286636753e-17 	-0.0486297473914484 	-0.00112365574777031 	3.34595880435847e-21
6 	0.0467656835403032 	2.42861286636753e-17 	-0.0448469033711521 	-0.00152400806278407 	1.6420899992062e-21
6 	0.0563011068347008 	2.42861286636753e-17 	-0.0407451033177491 	-0.00194842447923224 	3.23502250566457e-21
6 	0.0661858406082648 	2.77555756156289e-17 	-0.0366308576329898 	-0.0023972924299002 	8.08889668388439e-22
6 	0.0764326811267815 	2.77555756156289e-17 	-0.0325358729814038 	-0.00286799807613696 	4.46354035572772e-21
6 	0.0870548934207258 	3.12250225675825e-17 	-0.0284387229695311 	-0.003358766964341 	4.55195484541155e-21
6 	0.0980662284574839 	3.81639164714898e-17 	-0.0243102521398824 	-0.00386882502789006 	3.93294164750183e-21
6 	0.109480940942647 	4.16333634234434e-17 	-0.0201224421878081 	-0.00439784197281486 	1.29205736140274e-21
6 	0.121313807773417 	3.98986399474666e-17 	-0.0158495918419063 	-0.00494565278584989 	-2.67185662205268e-17
6 	0.13358014716801 	3.29597460435593e-17 	-0.0114678815941025 	-0.00551216088925727 	2.10768622538467e-17
6 	0.146295838495838 	2.77555756156289e-17 	-0.00695469331901616 	-0.0060972911148718 	2.11976983827936e-16
6 	0.159477342834115 	2.94902990916057e-17 	-0.00228798725671986 	-0.00670095462837281 	-1.6063716011035e-16
6 	0.173141724277517 	3.98986399474666e-17 	0.00255421592983638 	-0.00732301892968267 	-3.7568636917147e-17
6 	0.18730667202848 	5.20417042793042e-17 	0.00759424573915092 	-0.00796327671378599 	-4.28546444530149e-22
6 	0.201990523296728 	5.3776427755281e-17 	0.0128551548954975 	-0.00862142174094317 	-2.76630040590215e-21
6 	0.217212287037676 	4.85722573273506e-17 	0.0183610581148027 	-0.0092970223816827 	2.83551805315609e-22
6 	0.232991668560441 	3.98986399474666e-17 	0.0241374292362897 	-0.00998949309889014 	-3.76362239681324e-21
6 	0.249349095037321 	3.46944695195361e-17 	0.0302113775214512 	-0.0106980619804374 	3.21618193254113e-21
6 	0.266305741947753 	3.03576608295941e-17 	0.0366119139925746 	-0.0114217344104653 	-8.99243964452635e-24
6 	0.283883560490998 	2.08166817117217e-17 	0.0433702139395652 	-0.0121592524102792 	2.92979054111393e-22
6 	0.30210530600303 	6.93889390390723e-18 	0.0505198786273994 	-0.0129090490197958 	3.90081180640056e-21
6 	0.320994567414413 	7.37257477290143e-18 	0.0580971973700333 	-0.01366919712587 	-8.99669575364372e-21
6 	0.340575797787321 	1.77809156287623e-17 	0.0661414093132362 	-0.0144373521986486 	-8.95202434559829e-21
6 	0.360874345971201 	1.43114686768087e-17 	0.0746949623391915 	-0.0152106884534474 	1.85439000753556e-20
6 	0.38191648941809 	1.30104260698261e-18 	0.08380396675086 	-0.0159857352383647 	-9.66641101826912e-21
6 	0.403729468200045 	-6.93889390390723e-18 	0.0935289546924954 	-0.0167543592503585 	1.3328192863948e-18
6 	0.426341520272733 	-1.38777878078145e-17 	0.103915960399279 	-0.01751544605305 	1.79219478118392e-16
6 	0.449781918030828 	-2.08166817117217e-17 	0.1150230927484 	-0.0182633687748827 	-1.80084887289817e-16
6 	0.474081006202548 	-2.77555756156289e-17 	0.126912690108992 	-0.0189915715406431 	-5.90867495040659e-18
6 	0.499270241132363 	-3.81639164714898e-17 	0.139651338722069 	-0.0196924591167256 	3.45489088834753e-22
6 	0.525382231502763 	-4.16333634234434e-17 	0.153309769903432 	-0.0203572686808873 	0
6 	0.552450780547767 	-4.16333634234434e-17 	0.167962591141035 	-0.0209759408188525 	1.06760817290652e-21
6 	0.58051092981285 	-3.46944695195361e-17 	0.183687807235638 	-0.0215371666730546 	1.25305803075854e-21
6 	0.609599004517911 	-2.77555756156289e-17 	0.20056625124373 	-0.0220286291650132 	-1.3315752329425e-20
6 	0.639752660582033 	-2.77555756156289e-17 	0.218698728285931 	-0.0224350202872413 	-2.35338233391655e-20
6 	0.671010933370887 	-3.12250225675825e-17 	0.238337236257984 	-0.0227337962308939 	-3.70006623353171e-21
6 	0.703414288229901 	-3.81639164714898e-17 	0.260011738824723 	-0.0229030525394323 	2.58662996237077e-17
6 	0.737004672868606 	-3.81639164714898e-17 	0.284202433422332 	-0.0229181144452243 	2.95796248117427e-17
6 	0.771255893458755 	-3.81639164714898e-17 	0.310549115788959 	-0.0227660710099209 	-2.77084144582768e-17
6 	0.788979504711946 	-4.16333634234434e-17 	0.324578727807839 	-0.0226432330016127 	-6.15672731521238e-17
6 	0.807922061953054 	-4.5102810375397e-17 	0.340153031773952 	-0.022432173588839 	-2.96099953804097e-17
6 	0.845340872387743 	-4.5102810375397e-17 	0.371391483898618 	-0.0219257385198063 	2.65342884102541e-21
6 	0.88413044342731 	-3.46944695195361e-17 	0.40448807247489 	-0.0212380420822101 	-5.0002673082583e-21
6 	0.924340990046898 	-3.64291929955129e-17 	0.439220972912784 	-0.0203676960755226 	4.31992723719026e-21
6 	0.966024566743242 	-5.03069808033274e-17 	0.475397329683147 	-0.0193145588584508 	-2.02507301253437e-20
6 	1.00923513492173 	-6.07153216591882e-17 	0.512801093526525 	-0.0180829471466219 	3.31705685255981e-20
6 	1.05402863275206 	-6.24500451351651e-17 	0.551150962730826 	-0.0166853184333261 	-3.36471843152535e-20
6 	1.10046304758287 	-6.11490025281825e-17 	0.590085339141034 	-0.0151448934410084 	-4.33155244944466e-20
6 	1.14859849100923 	-5.91974386177085e-17 	0.629176523448203 	-0.0134961630768986 	-1.080802610123e-21
6 	1.19849727668995 	-5.87637577487143e-17 	0.667946811845594 	-0.0117787566058388 	-4.97026964571161e-20
6 	1.25022400101563 	-6.24500451351651e-17 	0.7059028440918 	-0.0100431293493447 	-3.37655133480807e-21
6 	1.30384562673186 	-6.24500451351651e-17 	0.742695374990313 	-0.00835019925671305 	-6.41468177915286e-20
6 	1.35943156962566 	-5.89805981832114e-17 	0.77802883495021 	-0.00674569441596686 	-4.3483686463911e-20
6 	1.41705378838763 	-5.55111512312578e-17 	0.811686567325524 	-0.00526572682911367 	7.87889420118496e-20
6 	1.47678687776592 	-5.20417042793042e-17 	0.843549458400389 	-0.00393358021531445 	8.65025883765955e-21
6 	1.533710603315 	-5.55111512312578e-17 	0.871281871844943 	-0.00284666100458436 	1.66314018397431e-21
6 	1.56522813627809 	-5.55111512312578e-17 	0.88586653668155 	-0.00230067229886564 	1.75770436415227e-20
6 	1.60289781058851 	-5.20417042793042e-17 	0.901949887432865 	-0.00173941079025567 	1.62660282460403e-20
6 	1.66943891073267 	-5.3776427755281e-17 	0.928598671499156 	-0.000874287249621802 	6.73800921808253e-21
6 	1.73841760623657 	-5.03069808033274e-17 	0.953488928905995 	-0.000166188915189618 	3.17662702116816e-20
6 	1.8099231933566 	-5.29090660172926e-17 	0.976593188783694 	0.0003890125223675 	-4.18167637684707e-20
6 	1.88404823953249 	-5.18248638448071e-17 	0.997874765716911 	0.000800530809861744 	1.19884330917003e-23
6 	1.96088870322038 	-4.74880551548651e-17 	1.017218877976 	0.00106689894279639 	0
6 	2.02025965173185 	-4.85722573273506e-17 	1.03056373251785 	0.0013001265331443 	0
6 	2.06006301192217 	-4.5102810375397e-17 	1.03932617648748 	0.00145680899681285 	0
6 	2.09845978584128 	-4.5102810375397e-17 	1.0471689431992 	0.00158954151633933 	0
6 	2.13549967996946 	-5.20417042793042e-17 	1.05433512289948 	0.00171269192403709 	0
6 	2.17123064424048 	-5.89805981832114e-17 	1.06087096024851 	0.00182556875499668 	0
6 	2.20569893411516 	-6.59194920871187e-17 	1.06681976906156 	0.00192773462169872 	0
6 	2.23894917046123 	-7.28583859910259e-17 	1.07222138872187 	0.00201962480652269 	0
6 	2.27102439731726 	-7.97972798949331e-17 	1.07711191232367 	0.0021019539571844 	0
6 	2.30196613761522 	-8.67361737988404e-17 	1.08152362123467 	0.00217550530882803 	0
6 	2.33181444693392 	-8.67361737988404e-17 	1.08548504287511 	0.0022410726230108 	0
6.00000000000001 	2.3606079653529 	-8.32667268468867e-17 	1.08902107099311 	0.00229942064125607 	0
6.00000000000001 	2.38838396747391 	-7.63278329429795e-17 	1.09215311129513 	0.00235125969557933 	0
6.00000000000001 	2.41517841067461 	-6.93889390390723e-17 	1.09489922858144 	0.00239723415993611 	0
6.00000000000001 	2.44102598165722 	-6.93889390390723e-17 	1.09727428126212 	0.00243791982191735 	0
6.00000000000001 	2.46596014135208 	-6.93889390390723e-17 	1.09929003541104 	0.00247382636002894 	0
6.00000000000001 	2.49001316823444 	-6.93889390390723e-17 	1.10095525444363 	0.00250540263663064 	0
6.00000000000001 	2.51321620011054 	-6.93889390390723e-17 	1.1022757632476 	0.00253304311524426 	0
6.00000000000001 	2.535599274427 	-6.93889390390723e-17 	1.1032544883358 	0.00255709488395194 	0
6.00000000000001 	2.55719136715571 	-6.93889390390723e-17 	1.10389147581437 	0.00257786459558135 	0
6.00000000000001 	2.57802043030466 	-6.93889390390723e-17 	1.10418388939115 	0.00259562524739604 	0
6.00000000000001 	2.59811342810315 	-7.28583859910259e-17 	1.10412599323093 	0.00261062243337283 	0
6.00000000000001 	2.61749637190832 	-7.63278329429795e-17 	1.10370912639037 	0.0026230799726867 	0
6.00000000000001 	2.63619435387806 	-7.63278329429795e-17 	1.10292167734512 	0.00263320489912237 	0
6.00000000000001 	2.65423157945406 	-8.32667268468867e-17 	1.10174906925196 	0.00264119174059835 	0
6.00000000000001 	2.67163139869691 	-9.0205620750794e-17 	1.10017376892446 	0.00264722597312512 	0
6.00000000000001 	2.68841633651388 	-9.0205620750794e-17 	1.09817533461174 	0.00265148653124212 	0
6.00000000000001 	2.70460812181851 	-9.0205620750794e-17 	1.09573051894566 	0.0026541471674467 	0
6.00000000000001 	2.72022771565972 	-9.0205620750794e-17 	1.092813443725 	0.00265537638253084 	0
6.00000000000001 	2.73529533835695 	-9.0205620750794e-17 	1.08939586180122 	0.00265533558806817 	0
6.00000000000001 	2.74983049567626 	-9.0205620750794e-17 	1.08544751718417 	0.00265417524940086 	0
6.00000000000001 	2.76385200408157 	-9.0205620750794e-17 	1.08093660702047 	0.0026520288468347 	0
6.00000000000001 	2.77737801509344 	-8.32667268468867e-17 	1.07583033842542 	0.00264900462998467 	0
6.00000000000001 	2.79042603878708 	-7.63278329429795e-17 	1.07009556001325 	0.0026451753554391 	0
6.00000000000001 	2.80301296646003 	-6.59194920871187e-17 	1.06369943389155 	0.00264056646685367 	0
6.00000000000001 	2.81515509249873 	-5.55111512312578e-17 	1.05661010100465 	0.00263514348983879 	0
6.00000000000001 	2.82686813547238 	-5.55111512312578e-17 	1.04879728310834 	0.00262879972168021 	0
6.00000000000001 	2.83816725848143 	-5.20417042793042e-17 	1.04023276000984 	0.00262134552128097 	0
6.00000000000001 	2.84906708878692 	-5.20417042793042e-17 	1.0308906616576 	0.00261250053465055 	0
6.00000000000001 	2.85958173674617 	-4.85722573273506e-17 	1.02074752051779 	0.00260188970986386 	0
6.00000000000001 	2.86972481407933 	-3.46944695195361e-17 	1.00978203838421 	0.00258904314600741 	0
6 	2.87950945149043 	-2.77555756156289e-17 	0.997974530644169 	0.0025734031537067 	0
6 	2.88894831566567 	-2.77555756156289e-17 	0.985304876238208 	0.0025543557698176 	0
6 	2.89805362567107 	-2.77555756156289e-17 	0.97172654012996 	0.00253118730169113 	0
6 	2.90683716877067 	-2.77555756156289e-17 	0.957096067394647 	0.00250290074652222 	0
6 	2.9153103156857 	-2.77555756156289e-17 	0.941271589232241 	0.0024681528181221 	0
6 	2.92348403531449 	-2.77555756156289e-17 	0.924241583267498 	0.00242552727769855 	0
6 	2.9313689089323 	-2.77555756156289e-17 	0.90604895811961 	0.0023735900187982 	0
6.00000000000001 	2.93897514388925 	-3.12250225675825e-17 	0.886735483133968 	0.00231101017278572 	0
6.00000000000001 	2.94631258682425 	-3.46944695195361e-17 	0.866311823421015 	0.00223663181863377 	0
6.00000000000001 	2.95339073641193 	-3.12250225675825e-17 	0.844742220075624 	0.00214952115161362 	0
6 	2.96021875565916 	-2.77555756156289e-17 	0.821934113647317 	0.00204900905182496 	0
6 	2.96680548376697 	-2.77555756156289e-17 	0.797726118269457 	0.00193473249762405 	0
6.00000000000001 	2.97315944757337 	-3.12250225675825e-17 	0.771870332852925 	0.00180667656205239 	0
6.00000000000001 	2.97928887259171 	-4.16333634234434e-17 	0.744006161809384 	0.00166522129109588 	0
6.00000000000001 	2.98520169365903 	-5.55111512312578e-17 	0.713622908915902 	0.00151119829602691 	0
6.00000000000001 	2.99090556520807 	-5.89805981832114e-17 	0.680008151665784 	0.00134595694688725 	0
6.00000000000001 	2.99640787117633 	-5.55111512312578e-17 	0.642178494484879 	0.00117143586338358 	0
6.00000000000001 	3.00171573456492 	-5.20417042793042e-17 	0.59879009099434 	0.000990394808541905 	0
6.00000000000001 	3.00683602665963 	-5.20417042793042e-17 	0.547991435996172 	0.00080688704648322 	0
6.00000000000001 	3.01177537592613 	-5.55111512312578e-17 	0.487122947981144 	0.00062497866722732 	0
6.00000000000001 	3.01654017659085 	-4.85722573273506e-17 	0.413440542642106 	0.000449187908803812 	0
6 	3.02113659691864 	-4.85722573273506e-17 	0.32713201978833 	0.000287704144742892 	0
6 	3.02557058719784 	-5.20417042793042e-17 	0.233482012834768 	0.000153231028847107 	0
6 	3.02984788744324 	-5.20417042793042e-17 	0.138870628295326 	5.8043450567524e-05 	0
