0.999999999999999 	0.721847518079339 	6.93889390390723e-18 	0.0589723560645684 	1.68185521345208e-07 	2523.33291684605 	2.46860134679726e-09 	4.25749001940056e-38
1 	0.727010756247634 	1.38777878078145e-17 	0.0589422953102808 	1.73669053023272e-06 	864.1746744455 	5.3667568805566e-08 	0
1 	0.732362547176676 	2.42861286636753e-17 	0.0589073145463126 	8.850350076831e-06 	206.242879131002 	4.64381519537516e-07 	0
0.999999999999999 	0.737909754876601 	2.77555756156289e-17 	0.058872989339106 	2.93758745009548e-05 	84.5846158379034 	2.23638761984433e-06 	0
0.999999999999999 	0.743659491684055 	3.12250225675825e-17 	0.0588385105349972 	7.43788173717931e-05 	44.3848024931596 	7.05259717944006e-06 	0
0.999999999999999 	0.749619127137594 	3.12250225675825e-17 	0.0588033334061879 	0.000156878512443932 	26.6435100587061 	1.57876260566809e-05 	0
0.999999999999999 	0.755796297162971 	2.77555756156289e-17 	0.0587673208623194 	0.000289007506095052 	17.3642348855131 	2.55668152976837e-05 	0
0.999999999999999 	0.762198913578607 	3.12250225675825e-17 	0.0587304022782678 	0.000477193768996933 	11.9682280766982 	2.91733607604737e-05 	0
0.999999999999999 	0.768835173931957 	2.77555756156289e-17 	0.0586926464342559 	0.000717885679154858 	8.63155025779724 	2.19565717425111e-05 	0
0.999999999999999 	0.775713571677737 	2.42861286636753e-17 	0.0586544773675232 	0.000998522283935307 	6.50767374024372 	9.71164421348724e-06 	0
0.999999999999999 	0.782842906709361 	2.77555756156289e-17 	0.0586168230187681 	0.00130424223700373 	5.14155786791555 	4.20812523186794e-06 	0
0.999999999999999 	0.79023229625525 	2.77555756156289e-17 	0.0585811000627142 	0.00162464703999546 	4.26138413545956 	1.3143011009771e-05 	0
0.999999999999999 	0.797891186152054 	2.77555756156289e-17 	0.0585490906822332 	0.00195623262299354 	3.70031975695093 	3.85029158621021e-05 	0
0.999999999999999 	0.805829362507172 	2.77555756156289e-17 	0.058522852419135 	0.00230119613016028 	3.35892401205196 	8.09894171188205e-05 	0
0.999999999999999 	0.814056963763349 	2.77555756156289e-17 	0.0585046304728329 	0.00266591212948342 	3.18178744505198 	0.000143802597493641 	0
1 	0.82258449317852 	2.77555756156289e-17 	0.0584964130559301 	0.00306096498940418 	3.14247521256182 	0.000234626121688145 	0
1 	0.831422831734416 	2.08166817117217e-17 	0.0584991572677194 	0.00350019570907467 	3.2325164542863 	0.000367033938092976 	0
1 	0.840583251487919 	1.38777878078145e-17 	0.0585141986474857 	0.00399586882489711 	3.44424142764294 	0.000563984206485818 	0
0.999999999999999 	0.850077429379545 	1.38777878078145e-17 	0.0585490125037587 	0.00456011525034137 	3.75422849287596 	0.000865386923408478 	0
0.999999999999999 	0.859917461513852 	2.08166817117217e-17 	0.0586153018047651 	0.00521280781827848 	4.14758881119306 	0.00133282950669173 	0
1 	0.870115877927021 	2.08166817117217e-17 	0.0587129691131149 	0.00597442547211031 	4.62027364933937 	0.00205955347311277 	0
1 	0.880685657857366 	6.93889390390723e-18 	0.058810442398534 	0.00684777999581895 	5.16488185401083 	0.00317471851735713 	0
1 	0.891640245534879 	0 	0.0588681276086882 	0.00783501043953039 	5.78364297633391 	0.00463892595950501 	0
1 	0.902993566506546 	0 	0.0588993261744766 	0.00893101951056994 	6.47784488674917 	0.00657397817966029 	0
1 	0.91476004451458 	-3.46944695195361e-18 	0.0589451181184035 	0.0100950304995435 	7.23017011393443 	0.00896766236439415 	0
1 	0.926954618945262 	-3.46944695195361e-18 	0.0590170996384705 	0.0112635413564197 	7.98329155311022 	0.0116873733966404 	0
1 	0.939592762866604 	0 	0.0591084154401236 	0.0123765316700114 	8.66709625619703 	0.0145252988979366 	0
1 	0.952690501673641 	0 	0.0592234943150436 	0.0133902862209969 	9.23453101466582 	0.0172274161003871 	0
1 	0.966264432360689 	-1.04083408558608e-17 	0.059372620658516 	0.0142629414927344 	9.63674785688388 	0.0194701310763593 	0
1 	0.980331743440524 	-2.42861286636753e-17 	0.0595513822435136 	0.0149617005167513 	9.8279233845709 	0.0209190214805068 	0
1 	0.994910235531055 	-2.77555756156289e-17 	0.0597436500078919 	0.0154747417341663 	9.77984724219758 	0.0213317335097297 	0
1 	1.01001834263073 	-3.12250225675825e-17 	0.0599366238246386 	0.0158137235794427 	9.48711201285955 	0.0206295338595437 	0
1 	1.02567515410451 	-3.46944695195361e-17 	0.060126234400799 	0.0160099395873516 	8.96466182168615 	0.0189255604548648 	0
1 	1.04190043740303 	-3.46944695195361e-17 	0.0603054534754702 	0.0161075413973011 	8.245565196514 	0.0165035459295035 	0
1 	1.0587146615383 	-3.81639164714898e-17 	0.0604661066503057 	0.0161545631640491 	7.37354298033303 	0.0136422593201355 	0
1 	1.07613902133991 	-4.85722573273506e-17 	0.0606119557463894 	0.0161987358968507 	6.40539364857574 	0.010789055556132 	0
1 	1.09419546251674 	-5.55111512312578e-17 	0.060746974254427 	0.0162761476878535 	5.40875637993569 	0.00819381661961519 	0
1 	1.11290670754982 	-5.89805981832114e-17 	0.0608708572531223 	0.0164104309561385 	4.43674639014398 	0.00603874243283922 	0
1 	1.1322962824429 	-5.89805981832114e-17 	0.060977955392267 	0.0166082048523766 	3.54671860048059 	0.00438300623264159 	0
1 	1.15238854435835 	-5.55111512312578e-17 	0.0610464355651178 	0.0168590612418735 	2.81038188319087 	0.00318705260625684 	0
1 	1.17320871016676 	-5.89805981832114e-17 	0.061059733106446 	0.0171473239841131 	2.25908499011771 	0.00238480218401543 	0
1 	1.19478288593983 	-6.59194920871187e-17 	0.061032938051591 	0.0174594135156936 	1.87963857819133 	0.00189399998361666 	0
1 	1.21713809741713 	-6.93889390390723e-17 	0.0610012005400134 	0.0177846823176545 	1.63887644775827 	0.0016262421688754 	0
1 	1.24030232147844 	-7.28583859910259e-17 	0.0609958003798471 	0.01811525927805 	1.49640477124196 	0.0015029956050203 	0
1 	1.26430451865469 	-6.93889390390723e-17 	0.0610352131001339 	0.0184446834136875 	1.41457724067713 	0.00146166941940407 	0
1 	1.28917466671171 	-5.89805981832114e-17 	0.0611258727921257 	0.0187663399415106 	1.3650885681622 	0.00145675824554902 	0
1 	1.31494379534233 	-5.55111512312578e-17 	0.0612662570023366 	0.019072904047698 	1.32940369303905 	0.00145933792323831 	0
1 	1.34164402200408 	-5.55111512312578e-17 	0.0614513651654458 	0.0193566402002795 	1.29674837921482 	0.00145457363890173 	0
1 	1.36930858894086 	-5.20417042793042e-17 	0.0616757809535033 	0.0196100240461311 	1.26203022126175 	0.00143803615390658 	0
1 	1.39797190142901 	-4.85722573273506e-17 	0.061935464846905 	0.0198262810805283 	1.22402818598877 	0.00141160536504125 	0
1 	1.42766956728968 	-4.5102810375397e-17 	0.06222881696385 	0.0199996493762354 	1.1837301447242 	0.00137968180213003 	0
1 	1.45843843771138 	-4.85722573273506e-17 	0.0625570162775201 	0.0201253633077377 	1.14290329105444 	0.00134631796950803 	0
1 	1.49031664942857 	-5.89805981832114e-17 	0.0629235560227066 	0.0201994732153633 	1.10309392930514 	0.00131363338025366 	0
1 	1.52334366830421 	-6.24500451351651e-17 	0.0633332093125781 	0.0202186498987712 	1.06514607701737 	0.00128149918003938 	0
1 	1.55756033436658 	-5.55111512312578e-17 	0.0637908913552894 	0.0201800847875945 	1.02915860239543 	0.00124813264880603 	0
1 	1.59300890835284 	-5.20417042793042e-17 	0.0643008301721842 	0.0200815232417129 	0.994702284937567 	0.00121108561986343 	0
1 	1.62973311981477 	-5.89805981832114e-17 	0.0648662125796016 	0.0199214014171457 	0.961116028573399 	0.00116816307992325 	0
1 	1.66777821684437 	-6.24500451351651e-17 	0.0654892258581255 	0.0196990232130434 	0.927756932935021 	0.00111799324660105 	0
1 	1.70719101748042 	-5.89805981832114e-17 	0.0661712903583406 	0.0194147166441621 	0.894148699346544 	0.00106018965975443 	0
1 	1.74801996285975 	-5.55111512312578e-17 	0.0669132893764621 	0.019069933571871 	0.860029906670895 	0.000995213804072496 	0
1 	1.7903151721808 	-4.85722573273506e-17 	0.0677156999899948 	0.0186672816789746 	0.825335575464636 	0.000924113636929356 	0
1 	1.83412849954993 	-3.81639164714898e-17 	0.0685786338800496 	0.0182104881858141 	0.790151061846991 	0.000848280739100441 	0
1 	1.87951359278536 	-3.46944695195361e-17 	0.0695017347176584 	0.0177042895503356 	0.754665269293817 	0.00076928150537272 	0
1 	1.9265259542571 	-3.46944695195361e-17 	0.0704835378413169 	0.017154229189302 	0.719133512750639 	0.000688799364660904 	0
1 	1.97522300384574 	-3.81639164714898e-17 	0.071537114708458 	0.0165572532140024 	0.683338020174749 	0.000608112118366019 	0
1 	2.04004996790234 	-4.16333634234434e-17 	0.0729596339929345 	0.0157641672280421 	0.638967992409762 	0.000507433325674477 	0
1 	2.11873460271874 	-4.16333634234434e-17 	0.0746793529199245 	0.0148407185355042 	0.590610787153135 	0.000399805276624457 	0
1 	2.19463865000285 	-3.46944695195361e-17 	0.0763632712062306 	0.0139791281341894 	0.548448783421157 	0.000309251864463528 	0
1 	2.26786037121375 	-2.77555756156289e-17 	0.0779826792526799 	0.0131896968616809 	0.512405486003864 	0.000236506921055112 	0
1 	2.33849455540975 	-2.77555756156289e-17 	0.0795287755313112 	0.0124683923638597 	0.481739029357954 	0.000179177889052915 	0
1 	2.40663264195737 	-2.42861286636753e-17 	0.0809972330566201 	0.0118095404912599 	0.455735050920062 	0.000134616339959246 	0
1 	2.47236283890404 	-2.42861286636753e-17 	0.0823863976166738 	0.011206950855141 	0.433751379674383 	0.000100342919229238 	0
1 	2.5357702371677 	-2.77555756156289e-17 	0.0836963916938306 	0.0106546091892981 	0.415234394118243 	7.41926472842509e-05 	0
1 	2.59693692069108 	-2.77555756156289e-17 	0.0849286033062941 	0.01014702411542 	0.399726538286613 	5.43594627436748e-05 	0
1 	2.65594207270333 	-2.77555756156289e-17 	0.0860853133036045 	0.00967925945592923 	0.386851754066834 	3.93861519450629e-05 	0
1 	2.71286207822658 	-2.77555756156289e-17 	0.0871694016648109 	0.00924696807425254 	0.376304253881092 	2.81276643486574e-05 	0
1 	2.76777062296 	-2.77555756156289e-17 	0.0881841162172144 	0.00884642052716098 	0.367843327310422 	1.97046755593329e-05 	0
1 	2.8207387886695 	-2.77555756156289e-17 	0.0891329031357255 	0.00847446513524546 	0.36128482775163 	1.34568536213789e-05 	0
1 	2.87183514520655 	-3.12250225675825e-17 	0.0900192854501973 	0.00812847201043801 	0.356493838622098 	8.90048795609736e-06 	0
1 	2.92112583927514 	-3.12250225675825e-17 	0.0908467763066354 	0.00780627204041006 	0.353378547804458 	5.69256573564344e-06 	0
1 	2.9686746800619 	-2.77555756156289e-17 	0.0916188180043485 	0.00750609676720341 	0.351885250665963 	3.60164817303975e-06 	0
