3 	0.0039111296779626 	0 	0.100468533253583 	9.93680030979169e-06 	848.307426908161 	2.56835980196656e-06 	2.67408882351045e-38
3 	0.0118766651674914 	1.73472347597681e-18 	0.100471035427515 	0.000120537987357893 	234.510319204433 	4.8540051885617e-05 	0
3 	0.0201340015485761 	5.20417042793042e-18 	0.100473532750053 	0.000628020228407061 	62.3893332456453 	0.000295982003522806 	0
3 	0.0286938283423949 	5.20417042793042e-18 	0.100472547987488 	0.00179100168688676 	27.0666151013261 	0.000614259178493627 	0
3 	0.0375672266585909 	5.20417042793042e-18 	0.100468801252171 	0.00335326158437819 	14.8082214376347 	0.000461788428221701 	0
3 	0.0467656835403032 	3.46944695195361e-18 	0.100463183995006 	0.00492072302137911 	9.52272842088596 	0.000160288236830552 	0
3 	0.0563011068347006 	0 	0.100455229921191 	0.00634203376761789 	6.9046777787124 	2.47226914990113e-05 	0
3 	0.0661858406082647 	0 	0.10044425349703 	0.00761300314342265 	5.43154222548927 	2.08053539418231e-05 	0
3 	0.0764326811267815 	3.46944695195361e-18 	0.10043005778952 	0.00876439600040652 	4.51033393171417 	7.57661539296903e-05 	0
3 	0.0870548934207257 	6.93889390390723e-18 	0.100412708338884 	0.00982555928677066 	3.88703907260057 	0.000155236710569609 	0
3 	0.0980662284574838 	3.46944695195361e-18 	0.100392292227908 	0.0108187598600305 	3.44043864688271 	0.000246107715143547 	0
3 	0.109480940942647 	-5.20417042793042e-18 	0.100368868827524 	0.0117602810183037 	3.10673795519304 	0.000343479371198473 	0
3 	0.121313807773416 	-1.73472347597681e-18 	0.100342482195932 	0.012662148934607 	2.8495422589267 	0.000445618708702258 	0
3 	0.13358014716801 	3.46944695195361e-18 	0.100313170553645 	0.0135334485356485 	2.6466958446169 	0.000552108681617611 	0
3 	0.146295838495838 	-3.46944695195361e-18 	0.100280969787173 	0.0143812177792662 	2.48398807321862 	0.000663132535369954 	0
3 	0.159477342834115 	-1.38777878078145e-17 	0.100245915703669 	0.0152110489854654 	2.35191086993989 	0.000779180268125601 	0
3 	0.173141724277517 	-2.42861286636753e-17 	0.10020804902768 	0.0160275018881123 	2.24388045071464 	0.000900924124285031 	0
3 	0.18730667202848 	-2.42861286636753e-17 	0.100167422627414 	0.0168343785707566 	2.15520939851792 	0.00102916706442267 	0
3 	0.201990523296728 	-1.38777878078145e-17 	0.100124108213177 	0.0176349173967255 	2.08248554510237 	0.00116482563032879 	0
3 	0.217212287037676 	-1.04083408558608e-17 	0.100078203927446 	0.0184319349664436 	2.02318243289163 	0.00130893064795003 	0
3 	0.232991668560441 	-2.08166817117217e-17 	0.100029843651427 	0.0192279153838558 	1.97540729835407 	0.00146264024324878 	0
3 	0.249349095037321 	-2.08166817117217e-17 	0.0999792076827565 	0.0200250170674776 	1.93773381039613 	0.00162725437999227 	0
3 	0.266305741947753 	-1.38777878078145e-17 	0.0999265349381833 	0.0208252495561231 	1.90908910799735 	0.00180424035773285 	0
3 	0.283883560490998 	-1.38777878078145e-17 	0.0998721387244506 	0.0216305762245503 	1.88867674597415 	0.00199526203635246 	0
3 	0.30210530600303 	-1.73472347597681e-17 	0.0998164271433538 	0.0224429077604086 	1.87592406657196 	0.00220221567751852 	0
3 	0.320994567414413 	-2.42861286636753e-17 	0.0997599273874544 	0.0232641454098945 	1.87044700667 	0.00242727817928425 	0
3 	0.34057579778732 	-3.12250225675825e-17 	0.0997033148286201 	0.0240962407964075 	1.87202802495974 	0.00267296728458394 	0
3 	0.3608743459712 	-3.46944695195361e-17 	0.0996474512751823 	0.024941207807609 	1.88060448715026 	0.00294221375292087 	0
3 	0.38191648941809 	-3.81639164714898e-17 	0.0995934362969093 	0.0258011611094305 	1.89626600226893 	0.0032384467064247 	0
3 	0.403729468200046 	-4.5102810375397e-17 	0.0995426643354048 	0.026678491343132 	1.91925997710688 	0.00356570067919342 	0
3 	0.426341520272733 	-5.20417042793042e-17 	0.0994968881206809 	0.0275760078511748 	1.95000521050458 	0.00392874229244579 	0
3 	0.449781918030828 	-5.89805981832114e-17 	0.0994582917607775 	0.0284970196103569 	1.98911376037848 	0.00433322149501141 	0
3 	0.474081006202548 	-6.24500451351651e-17 	0.0994295434014335 	0.0294454683949655 	2.03742144140106 	0.00478584022664067 	0
3 	0.496091159820835 	-6.59194920871187e-17 	0.0994148755712481 	0.030302391738266 	2.08808440724517 	0.00522771972155441 	0
3 	0.508912316744007 	-7.28583859910259e-17 	0.0994106971785882 	0.0308012974419112 	2.12009595405819 	0.00549698159696136 	0
3 	0.525382231502762 	-6.93889390390723e-17 	0.0994152164356568 	0.0314439125643458 	2.16619223232665 	0.00586759023714321 	0
3 	0.552450780547767 	-6.24500451351651e-17 	0.0994408338163551 	0.0325051096492921 	2.24972501464192 	0.00653306441555829 	0
3 	0.580510929812849 	-5.55111512312578e-17 	0.099497274866541 	0.0336189565211499 	2.34898735935914 	0.00736444065789972 	0
3 	0.60959900451791 	-3.81639164714898e-17 	0.0995853502396315 	0.0348031512889857 	2.4673128453201 	0.00844918455589111 	0
3 	0.639752660582032 	-3.46944695195361e-17 	0.0997128921417585 	0.0360812152960455 	2.60813093877813 	0.00982669421262743 	0
3 	0.671010933370886 	-4.16333634234434e-17 	0.0998983888479729 	0.0374554816426436 	2.77017534102907 	0.0115007364975762 	0
3 	0.7034142882299 	-3.81639164714898e-17 	0.100153219076968 	0.0388751207504243 	2.94269878135111 	0.0133341828414698 	0
3 	0.737004672868605 	-2.42861286636753e-17 	0.10048174371416 	0.0402448913348937 	3.10892906426933 	0.0151353918343723 	0
3 	0.771825571663975 	-2.08166817117217e-17 	0.10088157290863 	0.0414528015839664 	3.25421840080703 	0.0167287170257387 	0
3 	0.807922061953053 	-2.08166817117217e-17 	0.10134216326216 	0.04238978330047 	3.36950742160981 	0.0179684938661141 	0
3 	0.845340872387742 	-1.04083408558608e-17 	0.101849501780537 	0.0429598729094081 	3.44969237788272 	0.0187546249643046 	0
3 	0.884130443427308 	-3.46944695195361e-18 	0.102393339829297 	0.0430865213510513 	3.49143913546737 	0.0190396517233855 	0
3 	0.924340990046896 	0 	0.102971889994658 	0.0427163447285957 	3.49172321398632 	0.0188147851586858 	0
3 	0.966024566743241 	0 	0.103592019663655 	0.0418221724408034 	3.44679889143216 	0.0180812252471586 	0
3 	1.00923513492173 	0 	0.104266256244944 	0.0404112795856172 	3.35199941887834 	0.0168337057531013 	0
3 	1.05402863275205 	0 	0.105008184546174 	0.0385428481091765 	3.20321176006961 	0.0150831836781627 	0
3 	1.10046304758287 	0 	0.105826721998541 	0.0363483497641694 	3.000697846167 	0.0129226724422241 	0
3 	1.14859849100923 	0 	0.106732321936759 	0.0340355529785731 	2.75584758097565 	0.0105954602635401 	0
3 	1.19849727668994 	1.04083408558608e-17 	0.107763773422454 	0.0318185670631288 	2.48879353761213 	0.00828115104379465 	0
3 	1.25022400101563 	1.73472347597681e-17 	0.108868949307897 	0.0298649929671299 	2.21882524504019 	0.00621903273462456 	0
3 	1.30384562673185 	1.73472347597681e-17 	0.109958097418289 	0.028271687248345 	1.96561811972276 	0.0046105002626503 	0
3 	1.35943156962565 	1.98408997564847e-17 	0.111032029903592 	0.027030443005999 	1.74146893361838 	0.00346760146264817 	0
3 	1.41705378838762 	1.76724954115137e-17 	0.112097351635129 	0.0260614523765557 	1.5538352846555 	0.00272297276871275 	0
3 	1.47678687776592 	1.34441069388203e-17 	0.113159136600919 	0.025247664583898 	1.40472586976632 	0.00224352780343216 	0
3 	1.53870816513277 	1.12757025938492e-17 	0.114219080632545 	0.0244787282501245 	1.28535988320536 	0.00192126699550359 	0
3 	1.60289781058851 	1.30104260698261e-17 	0.115277387493912 	0.0236643976693096 	1.18341110101359 	0.00168379044765664 	0
3 	1.66943891073266 	1.21430643318376e-17 	0.116333297948041 	0.0227449990382071 	1.09154426204691 	0.00148565822614613 	0
3 	1.73841760623657 	1.21430643318376e-17 	0.117382377802251 	0.02169532978171 	1.00802356142193 	0.00130147605836952 	0
3 	1.80992319335659 	1.56125112837913e-17 	0.118417735132423 	0.0205154146388896 	0.932368883335825 	0.00111981963897567 	0
3 	1.88404823953248 	1.21430643318376e-17 	0.119432415981478 	0.0192217354370159 	0.863841635784144 	0.000938239942957304 	0
3 	1.96088870322037 	6.93889390390723e-18 	0.12037365256572 	0.017897189674853 	0.804396232404052 	0.000766419394568064 	0
3 	2.02025965173184 	6.93889390390723e-18 	0.121086365908967 	0.016817931319671 	0.762888864700548 	0.000633871987465208 	0
3 	2.06006301192217 	6.93889390390723e-18 	0.121579139494289 	0.0160315809031278 	0.735974573015616 	0.000544977439751407 	0
3 	2.09845978584128 	6.93889390390723e-18 	0.121994287878013 	0.0153387829747332 	0.714631889049743 	0.000469980854155496 	0
3 	2.13549967996945 	6.93889390390723e-18 	0.122380270487491 	0.0146825531662154 	0.696537952323891 	0.000401829165966044 	0
3 	2.17123064424048 	6.93889390390723e-18 	0.122736149366683 	0.0140631701967802 	0.681548809587134 	0.000340677700273701 	0
3 	2.20569893411515 	6.93889390390723e-18 	0.123063490732828 	0.0134802228135508 	0.669538730808073 	0.000286094912444102 	0
3 	2.23894917046122 	6.93889390390723e-18 	0.123364399418446 	0.0129328048478383 	0.660402649739738 	0.000237678709282748 	0
3 	2.27102439731725 	3.46944695195361e-18 	0.123640786982465 	0.0124196744274957 	0.654058776181468 	0.000195024372289055 	0
3 	2.30196613761521 	3.46944695195361e-18 	0.123894425613442 	0.0119393837599903 	0.650450925820126 	0.000157744243565954 	0
3 	2.33181444693391 	6.93889390390723e-18 	0.124126995460301 	0.0114903821157567 	0.649550411980026 	0.000125487119434663 	0
3 	2.3606079653529 	6.93889390390723e-18 	0.124340086916468 	0.0110710949690994 	0.651357548276325 	9.79499232974441e-05 	0
3 	2.3883839674739 	6.93889390390723e-18 	0.124535200371225 	0.0106799827893206 	0.655902890090724 	7.48850137560486e-05 	0
3 	2.41517841067461 	1.04083408558608e-17 	0.124713748460357 	0.0103155829956986 	0.663248344077197 	5.61051357051344e-05 	0
3 	2.44102598165722 	1.38777878078145e-17 	0.124877058711164 	0.00997653828982239 	0.673488245352285 	4.14868283883173e-05 	0
3 	2.46596014135207 	1.38777878078145e-17 	0.125026376069866 	0.0096616141246734 	0.686750464110341 	3.09727770694162e-05 	0
3 	2.49001316823443 	1.73472347597681e-17 	0.125162865345055 	0.00936970755534008 	0.703197565749094 	2.4573385833916e-05 	0
3 	2.51321620011054 	2.08166817117217e-17 	0.125287613564581 	0.00909984920649062 	0.72302801491436 	2.23676540207523e-05 	0
3 	2.535599274427 	2.42861286636753e-17 	0.125401632227371 	0.00885119963184194 	0.746477386690569 	2.45032802221066e-05 	0
3 	2.55719136715571 	2.42861286636753e-17 	0.125505859456025 	0.00862304096083084 	0.773819530513801 	3.11958012882311e-05 	0
3 	2.57802043030465 	2.08166817117217e-17 	0.125601162083346 	0.00841476444847444 	0.80536762876909 	4.27265064976675e-05 	0
3 	2.59811342810315 	2.08166817117217e-17 	0.125688337728633 	0.00822585438200087 	0.841475108785114 	5.94388665714976e-05 	0
3 	2.61749637190832 	2.08166817117217e-17 	0.125768116936467 	0.00805586876407924 	0.882536411927942 	8.17333081111796e-05 	0
3 	2.63619435387806 	1.73472347597681e-17 	0.125841165459907 	0.007904417292357 	0.928987705001477 	0.00011006037117248 	0
3 	2.65423157945406 	1.04083408558608e-17 	0.125908086769581 	0.00777113738092241 	0.98130774371432 	0.000144912626445429 	0
3 	2.67163139869691 	6.93889390390723e-18 	0.125969424858862 	0.00765566929368608 	1.04001926719586 	0.000186816192428423 	0
3 	2.68841633651388 	1.04083408558608e-17 	0.126025667393045 	0.00755763182867435 	1.10569150950624 	0.000236323241525258 	0
3 	2.7046081218185 	1.38777878078145e-17 	0.126077249218418 	0.00747660032430524 	1.1789446402827 	0.000294007435956956 	0
3 	2.72022771565972 	1.38777878078145e-17 	0.126124556208501 	0.00741208895221224 	1.2604571613425 	0.000360464673297575 	0
3 	2.73529533835694 	1.38777878078145e-17 	0.12616792938413 	0.00736353921311932 	1.35097744960222 	0.000436321717350502 	0
3 	2.74983049567625 	1.38777878078145e-17 	0.12620766920758 	0.00733031618649911 	1.45134070888048 	0.000522255135771157 	0
3 	2.76385200408156 	1.38777878078145e-17 	0.126244039924521 	0.0073117133819091 	1.56249254531971 	0.000619022417280134 	0
3 	2.77737801509343 	1.04083408558608e-17 	0.126277273816325 	0.00730696605767392 	1.68552020844699 	0.000727506245038216 	0
3 	2.79042603878708 	6.93889390390723e-18 	0.126307575231613 	0.00731527174500531 	1.82169226909809 	0.000848771793633496 	0
3 	2.80301296646003 	1.04083408558608e-17 	0.126335124289286 	0.00733581562710574 	1.97250719428116 	0.000984135779909331 	0
3 	2.81515509249872 	1.38777878078145e-17 	0.126360080182605 	0.00736779756307428 	2.13975100676255 	0.00113524500321714 	0
3 	2.82686813547237 	1.38777878078145e-17 	0.126382584061672 	0.00741045706327186 	2.32556407136253 	0.0013041613519447 	0
3 	2.83816725848142 	1.04083408558608e-17 	0.126402761523839 	0.00746309249139382 	2.53251711917709 	0.00149344971493043 	0
3 	2.84906708878691 	6.93889390390723e-18 	0.126420724768059 	0.0075250711913586 	2.7636970013619 	0.00170626481432529 	0
3 	2.85958173674616 	6.93889390390723e-18 	0.12643657443504 	0.0075958280753308 	3.02280348302588 	0.0019464325456856 	0
3 	2.86972481407933 	3.46944695195361e-18 	0.126450401302518 	0.00767485143261139 	3.3142598353328 	0.00221852092475929 	0
3 	2.87950945149043 	0 	0.126462288940457 	0.00776165635387035 	3.64334233565329 	0.00252789526668856 	0
3 	2.88894831566566 	0 	0.126472317679185 	0.0078557483165265 	4.01633740921668 	0.00288075143124799 	0
3 	2.89805362567106 	3.46944695195361e-18 	0.126480557698017 	0.00795658233453262 	4.44074055077257 	0.00328414283171763 	0
3 	2.90683716877067 	1.04083408558608e-17 	0.126487030415619 	0.00806352580556094 	4.92551866092135 	0.00375060059185954 	0
3 	2.91531031568569 	1.38777878078145e-17 	0.126491812739207 	0.00817573084084523 	5.48193564096928 	0.00430317074484989 	0
3 	2.92348403531448 	1.38777878078145e-17 	0.126495242745085 	0.00829179262414339 	6.12550277215835 	0.00495214268133636 	0
3 	2.93136890893229 	1.38777878078145e-17 	0.126497509237244 	0.00840937639503674 	6.87490637855537 	0.00572587347953913 	0
3 	2.93897514388925 	1.38777878078145e-17 	0.126498416901424 	0.00852364604012484 	7.74847646815268 	0.00663348408226291 	0
3 	2.94631258682425 	1.38777878078145e-17 	0.126497824084002 	0.00862704809018711 	8.76423730468667 	0.00767684003120002 	0
3 	2.95339073641193 	1.73472347597681e-17 	0.126495766497954 	0.0087095394320538 	9.9424514944693 	0.00885689196323352 	0
3 	2.96021875565915 	2.08166817117217e-17 	0.126492350770277 	0.00875868573411189 	11.3081082894389 	0.0101729420098873 	0
3 	2.96680548376697 	1.73472347597681e-17 	0.126487715599034 	0.00875954412105312 	12.8927691439041 	0.0116203714258964 	0
3 	2.97315944757337 	1.38777878078145e-17 	0.126482033038132 	0.00869430699040523 	14.7397757136546 	0.0131873806979167 	0
3 	2.97928887259171 	1.38777878078145e-17 	0.126475511669321 	0.00854159441839744 	16.912976369597 	0.0148492455369171 	0
3 	2.98520169365902 	1.73472347597681e-17 	0.126468390087732 	0.00827537975517329 	19.5086739075033 	0.0165582766993297 	0
3 	2.99090556520806 	2.08166817117217e-17 	0.126460930948732 	0.00786353484197722 	22.6755086604211 	0.0182150825981449 	0
3 	2.99640787117633 	2.42861286636753e-17 	0.126453436388614 	0.00726700455455076 	26.6514669923877 	0.0196136043435151 	0
3 	3.00171573456492 	2.77555756156289e-17 	0.12644623191955 	0.0064429963395199 	31.8436990785806 	0.0204174782928035 	0
3 	3.00683602665962 	2.77555756156289e-17 	0.126439637574613 	0.00535293000414865 	39.0359728482712 	0.0199592137085264 	0
3 	3.01177537592612 	2.77555756156289e-17 	0.126434042785135 	0.00399269483641861 	49.9893822985843 	0.0169910698399078 	0
3 	3.01654017659085 	2.77555756156289e-17 	0.126429772039447 	0.0024935691359872 	69.5029610154521 	0.011035299563849 	0
3 	3.02113659691864 	2.42861286636753e-17 	0.126426805441024 	0.00119459949596456 	113.858507210314 	0.00470053590880532 	0
3 	3.02557058719784 	2.08166817117217e-17 	0.126424722529836 	0.000400780042511637 	255.259111090787 	0.0011418809034961 	0
3 	3.02984788744324 	2.42861286636753e-17 	0.126423012179978 	8.32388292977503e-05 	1055.45832931819 	0.000134765157882612 	0
