/*--------------------------------*- C++ -*----------------------------------*\
  =========                 |
  \\      /  F ield         | OpenFOAM: The Open Source CFD Toolbox
   \\    /   O peration     | Website:  https://openfoam.org
    \\  /    A nd           | Version:  7
     \\/     M anipulation  |
\*---------------------------------------------------------------------------*/
FoamFile
{
    version     2.0;
    format      ascii;
    class       volScalarField;
    location    "405";
    object      k;
}
// * * * * * * * * * * * * * * * * * * * * * * * * * * * * * * * * * * * * * //

dimensions      [0 2 -2 0 0 0 0];

internalField   nonuniform List<scalar> 
3025
(
33.6291
34.5975
36.237
38.3035
40.6188
43.0644
45.5674
48.0861
50.5972
53.0866
55.543
57.9548
60.3082
62.5875
64.7753
66.8533
68.8035
70.6086
72.2525
73.7207
74.9972
76.0657
76.9046
77.49
77.7971
77.7997
77.4685
76.7688
75.6598
74.0935
72.0161
69.3694
66.0962
62.1482
57.4984
52.1571
46.1873
39.7005
32.8747
26.0483
19.6521
14.0921
9.62013
6.27402
3.9207
2.3486
1.34401
0.728816
0.369223
0.170731
0.0693202
0.0230649
0.00548549
0.000683479
2.05e-05
34.5975
35.5909
37.2679
39.3716
41.713
44.1652
46.6505
49.1249
51.5663
53.9637
56.311
58.6024
60.8303
62.9843
65.0516
67.0171
68.8648
70.5782
72.141
73.5375
74.7528
75.7687
76.5668
77.1221
77.4077
77.3952
77.0534
76.3466
75.2331
73.6645
71.5867
68.9418
65.6728
61.7319
57.093
51.7674
45.8191
39.3594
32.5687
25.7855
19.4386
13.9294
9.50386
6.19583
3.87092
2.31847
1.32667
0.719388
0.36444
0.168519
0.0684218
0.0227659
0.0054144
0.000674621
2.02343e-05
36.237
37.2679
39.0015
41.1622
43.5446
46.009
48.4693
50.8779
53.2126
55.4666
57.6404
59.7369
61.7577
63.7015
65.5632
67.3339
69.0019
70.5529
71.9716
73.2414
74.346
75.2688
75.9889
76.4846
76.7269
76.6839
76.321
75.5999
74.4773
72.904
70.8252
68.1832
64.9214
60.9932
56.3738
51.0763
45.1663
38.755
32.0268
25.3208
19.0617
13.6424
9.29906
6.05825
3.78338
2.26549
1.29619
0.702815
0.356035
0.16463
0.0668427
0.0222405
0.00528945
0.000659054
1.97674e-05
38.3035
39.3716
41.1622
43.3814
45.8069
48.2855
50.7213
53.061
55.281
57.3767
59.354
61.2236
62.997
64.6831
66.2866
67.8073
69.2399
70.5749
71.7992
72.8973
73.8518
74.6443
75.2559
75.662
75.8361
75.744
75.3471
74.6031
73.4659
71.8845
69.8034
67.1646
63.9123
60.001
55.408
50.1485
44.2905
37.945
31.3015
24.6998
18.559
13.2605
9.02698
5.87569
3.66731
2.19528
1.25581
0.680863
0.344901
0.15948
0.0647512
0.0215446
0.00512395
0.000638433
1.9149e-05
40.6188
41.713
43.5446
45.8069
48.2647
50.7529
53.1657
55.4433
57.559
59.5074
61.2966
62.942
64.4624
65.8762
67.1985
68.439
69.6011
70.682
71.6734
72.5623
73.3323
73.964
74.4366
74.7277
74.8083
74.6453
74.1979
73.4196
72.2603
70.6661
68.5801
65.9439
62.7022
58.811
54.2496
49.0363
43.2414
36.9757
30.4351
23.9596
17.9613
12.8075
8.705
5.66
3.53031
2.11247
1.20819
0.65498
0.331775
0.153407
0.0622853
0.0207241
0.00492882
0.000614122
1.84198e-05
43.0644
44.1652
46.009
48.2855
50.7529
53.2372
55.6243
57.8477
59.8761
61.702
63.3314
64.7794
66.0674
67.2205
68.2634
69.216
70.0916
70.8961
71.628
72.279
72.8354
73.2788
73.5876
73.7374
73.7022
73.4463
72.9295
72.1028
70.9115
69.2982
67.2036
64.5683
61.3373
57.468
52.9424
47.7818
42.0593
35.8849
29.462
23.1304
17.2938
12.3032
8.34735
5.42085
3.3786
2.02082
1.15551
0.626351
0.317257
0.146692
0.0595582
0.0198167
0.00471302
0.000587235
1.76134e-05
45.5674
46.6505
48.4693
50.7213
53.1657
55.6243
57.9758
60.1471
62.1028
63.8325
65.3385
66.6289
67.7219
68.6446
69.4294
70.1056
70.6968
71.2183
71.677
72.0714
72.3924
72.6245
72.7471
72.7352
72.5607
72.1932
71.5878
70.6967
69.4617
67.8212
65.7128
63.0756
59.8546
56.0085
51.5219
46.4192
40.7765
34.703
28.4099
22.2366
16.5767
11.7631
7.96549
5.16603
3.21715
1.92336
1.09951
0.595925
0.301829
0.139555
0.0566604
0.0188525
0.00448371
0.000558664
1.67565e-05
48.0861
49.1249
50.8779
53.061
55.4433
57.8477
60.1471
62.2613
64.151
65.8037
67.2158
68.3869
69.3292
70.0642
70.6278
71.0557
71.3809
71.6284
71.8143
71.9449
72.0177
72.0221
71.9401
71.7482
71.4177
70.9167
70.2064
69.2339
67.9418
66.2647
64.1364
61.4939
58.2816
54.4594
50.0142
44.974
39.4178
33.4533
27.3002
21.2969
15.8257
11.1996
7.56823
4.90151
3.04979
1.82241
1.04153
0.564431
0.285861
0.132169
0.0536611
0.0178546
0.00424637
0.000529093
1.58696e-05
50.5972
51.5663
53.2126
55.281
57.559
59.8761
62.1028
64.151
65.9766
67.5655
68.8988
69.9718
70.7947
71.3881
71.7788
72.0006
72.0937
72.0916
72.0192
71.8917
71.7144
71.4831
71.1847
70.7984
70.2969
69.6479
68.8142
67.7461
66.3833
64.659
62.5037
59.8515
56.6458
52.8473
48.4454
43.4712
38.0067
32.1578
26.153
20.3291
15.0552
10.6237
7.16356
4.63267
2.87995
1.72005
0.982773
0.532517
0.269682
0.124685
0.0506223
0.0168435
0.0040059
0.000499132
1.49709e-05
53.0866
53.9637
55.4666
57.3767
59.5074
61.702
63.8325
65.8037
67.5655
69.0904
70.3533
71.3455
72.0731
72.5536
72.8121
72.8781
72.7829
72.5668
72.2625
71.894
71.4749
71.0086
70.4886
69.8988
69.215
68.4058
67.4338
66.2569
64.8109
63.029
60.8387
58.1714
54.9693
51.1937
46.836
41.9306
36.562
30.834
24.9842
19.3467
14.2765
10.0441
6.75758
4.36359
2.71019
1.61784
0.924118
0.500668
0.253537
0.117218
0.0475901
0.0158345
0.00376595
0.000469236
1.40743e-05
55.543
56.311
57.6404
59.354
61.2966
63.3314
65.3385
67.2158
68.8988
70.3533
71.5498
72.4748
73.1289
73.5246
73.6827
73.6301
73.3959
73.009
72.5084
71.9253
71.282
70.59
69.8502
69.053
68.1789
67.1997
66.0794
64.776
63.2338
61.3819
59.1473
56.4587
53.2565
49.5022
45.1891
40.3538
35.0792
29.4777
23.7909
18.3482
13.4889
9.46045
6.35028
4.09432
2.5406
1.51581
0.865601
0.468901
0.237435
0.109771
0.0445663
0.0148284
0.00352667
0.000439422
1.31801e-05
57.9548
58.6024
59.7369
61.2236
62.942
64.7794
66.6289
68.3869
69.9718
71.3455
72.4748
73.3409
73.9385
74.2731
74.3596
74.2199
73.8807
73.3704
72.7152
71.9524
71.1113
70.2118
69.2627
68.2619
67.1961
66.0417
64.7655
63.3265
61.6771
59.7455
57.4579
54.7412
51.5346
47.7994
43.5306
38.7664
33.5869
28.1154
22.5965
17.3532
12.7079
8.88425
5.94959
3.83008
2.37442
1.41592
0.808339
0.437822
0.221684
0.102486
0.0416085
0.0138443
0.00329261
0.000410259
1.23054e-05
60.3082
60.8303
61.7577
62.997
64.4624
66.0674
67.7219
69.3292
70.7947
72.0731
73.1289
73.9385
74.4895
74.7802
74.8182
74.6193
74.2054
73.6026
72.8377
71.9353
70.9298
69.8483
68.7077
67.5137
66.2603
64.9299
63.494
61.9146
60.1453
58.1251
55.7765
53.026
49.8114
46.0938
41.8693
37.1779
32.0957
26.7577
21.4106
16.37
11.9399
8.32027
5.55881
3.573
2.213
1.31898
0.752789
0.407679
0.206409
0.0954221
0.0387402
0.0128899
0.00306563
0.000381978
1.14571e-05
62.5875
62.9843
63.7015
64.6831
65.8762
67.2205
68.6446
70.0642
71.3881
72.5536
73.5246
74.2731
74.7802
75.0366
75.0424
74.8061
74.3437
73.6769
72.8309
71.8309
70.6991
69.4675
68.16
66.7902
65.3599
63.8585
62.2636
60.5413
58.6478
56.5311
54.1149
51.3249
48.0982
44.3959
40.2153
35.5976
30.6144
25.4125
20.2402
15.4044
11.1896
7.77182
5.18015
3.32451
2.0572
1.22549
0.699245
0.378631
0.191691
0.0886154
0.0359764
0.0119703
0.00284692
0.000354728
1.06398e-05
64.7753
65.0516
65.5632
66.2866
67.1985
68.2634
69.4294
70.6278
71.7788
72.8121
73.6827
74.3596
74.8182
75.0424
75.0245
74.7659
74.2755
73.5693
72.6686
71.5973
70.3785
69.0326
67.5879
66.0653
64.4741
62.8116
61.0623
59.1981
57.1795
54.9575
52.4676
49.6334
46.3916
42.7036
38.5673
34.0249
29.1431
24.0804
19.0863
14.4573
10.4576
7.2393
4.81382
3.0847
1.90708
1.13548
0.647716
0.350683
0.17753
0.0820671
0.0333176
0.0110856
0.00263652
0.000328513
9.85351e-06
66.8533
67.0171
67.3339
67.8073
68.439
69.216
70.1056
71.0557
72.0006
72.8781
73.6301
74.2199
74.6193
74.8061
74.7659
74.4924
73.9877
73.2613
72.3288
71.2105
69.9291
68.5054
66.9573
65.3096
63.579
61.7705
59.8761
57.8747
55.7322
53.4034
50.8345
47.9515
44.6913
41.0155
36.9227
32.4514
27.6731
22.7542
17.9431
13.5245
9.74081
6.72046
4.45826
2.85253
1.76195
1.04855
0.59797
0.323707
0.163864
0.0757478
0.0307518
0.0102319
0.00243348
0.000303214
9.09472e-06
68.8035
68.8648
69.0019
69.2399
69.6011
70.0916
70.6968
71.3809
72.0937
72.7829
73.3959
73.8807
74.2054
74.3437
74.2755
73.9877
73.4754
72.7412
71.7946
70.6509
69.3292
67.8503
66.2326
64.4912
62.6469
60.7119
58.686
56.5556
54.2935
51.8603
49.2062
46.271
42.9904
39.3265
35.2775
30.8751
26.2034
21.4336
16.811
12.6064
9.03966
6.21555
4.11357
2.62803
1.62185
0.964697
0.550006
0.297704
0.150692
0.0696571
0.0282789
0.00940907
0.00223779
0.000278831
8.36338e-06
70.6086
70.5782
70.5529
70.5749
70.682
70.8961
71.2183
71.6284
72.0916
72.5668
73.009
73.3704
73.6026
73.6769
73.5693
73.2613
72.7412
72.0051
71.056
69.9032
68.5612
67.0477
65.3816
63.5781
61.6493
59.6116
57.4721
55.2252
52.8514
50.318
47.581
44.5892
41.2865
37.6341
33.6286
29.2973
24.7365
20.1214
15.6925
11.7052
8.35563
5.72552
3.78031
2.41151
1.48691
0.884006
0.503871
0.272698
0.138026
0.0638006
0.0259011
0.00861789
0.00204962
0.000255385
7.66015e-06
72.2525
72.141
71.9716
71.7992
71.6734
71.628
71.677
71.8143
72.0192
72.2625
72.5084
72.7152
72.8377
72.8309
72.6686
72.3288
71.7946
71.056
70.1095
68.9584
67.6115
66.0823
64.3866
62.5408
60.5572
58.4442
56.2132
53.8661
51.3914
48.7643
45.948
42.8977
39.5677
35.9227
31.954
27.6979
23.2562
18.8052
14.5787
10.8146
7.68446
5.24746
3.45653
2.20173
1.3564
0.806027
0.45931
0.24855
0.125796
0.0581463
0.0236054
0.00785407
0.00186796
0.00023275
6.98124e-06
73.7207
73.5375
73.2414
72.8973
72.5623
72.279
72.0714
71.9449
71.8917
71.894
71.9253
71.9524
71.9353
71.8309
71.5973
71.2105
70.6509
69.9032
68.9584
67.8136
66.4718
64.9413
63.2339
61.3635
59.3438
57.1837
54.8875
52.4615
49.9022
47.1929
44.3051
41.2015
37.8434
34.2014
30.2717
26.0962
21.7807
17.5014
13.4834
9.94543
7.03397
4.78671
3.14572
2.00086
1.23161
0.731537
0.416762
0.225499
0.114123
0.0527496
0.0214144
0.00712504
0.00169458
0.000211147
6.33327e-06
74.9972
74.7528
74.346
73.8518
73.3323
72.8354
72.3924
72.0177
71.7144
71.4749
71.282
71.1113
70.9298
70.6991
70.3785
69.9291
69.3292
68.5612
67.6115
66.4718
65.1395
63.617
61.9117
60.0335
57.9942
55.8044
53.4698
50.9903
48.3672
45.5921
42.6449
39.4967
36.1165
32.4821
28.5964
24.5071
20.3241
16.2226
12.4171
9.10579
6.40992
4.34709
2.85028
1.81038
1.11346
0.661059
0.376521
0.203702
0.103086
0.0476471
0.0193428
0.00643578
0.00153065
0.000190722
5.72063e-06
76.0657
75.7687
75.2688
74.6443
73.964
73.2788
72.6245
72.0221
71.4831
71.0086
70.59
70.2118
69.8483
69.4675
69.0326
68.5054
67.8503
67.0477
66.0823
64.9413
63.617
62.1067
60.4122
58.5394
56.4964
54.2922
51.9345
49.4264
46.7633
43.9418
40.9507
37.7698
34.3769
30.7581
26.924
22.9288
18.8866
14.9699
11.3813
8.2968
5.81296
3.92888
2.57031
1.63032
1.00191
0.594576
0.338577
0.183153
0.0926824
0.0428373
0.0173901
0.00578607
0.00137613
0.000171468
5.14314e-06
76.9046
76.5668
75.9889
75.2559
74.4366
73.5876
72.7471
71.9401
71.1847
70.4886
69.8502
69.2627
68.7077
68.16
67.5879
66.9573
66.2326
65.3816
64.3866
63.2339
61.9117
60.4122
58.7324
56.8733
54.8393
52.6355
50.2686
47.7449
45.0645
42.2189
39.2022
36.0039
32.611
29.0189
25.2469
21.3565
17.4651
13.7418
10.375
7.51776
5.24239
3.53141
2.30524
1.46025
0.896707
0.531918
0.30283
0.163797
0.0828836
0.0383075
0.0155511
0.00517418
0.0012306
0.000153336
4.59927e-06
77.49
77.1221
76.4846
75.662
74.7277
73.7374
72.7352
71.7482
70.7984
69.8988
69.053
68.2619
67.5137
66.7902
66.0653
65.3096
64.4912
63.5781
62.5408
61.3635
60.0335
58.5394
56.8733
55.0319
53.0149
50.8231
48.4606
45.9346
43.2482
40.3996
37.3787
34.1812
30.8043
27.2534
23.5572
19.7848
16.0567
12.5367
9.39732
6.76795
4.69745
3.15397
2.0545
1.29974
0.79756
0.472914
0.26918
0.145581
0.0736624
0.0340449
0.0138206
0.0045984
0.00109366
0.000136273
4.08749e-06
77.7971
77.4077
76.7269
75.8361
74.8083
73.7022
72.5607
71.4177
70.2969
69.215
68.1789
67.1961
66.2603
65.3599
64.4741
63.579
62.6469
61.6493
60.5572
59.3438
57.9942
56.4964
54.8393
53.0149
51.0184
48.8459
46.4991
43.9847
41.3062
38.4657
35.461
32.2855
28.9437
25.4517
21.8484
18.2102
14.6598
11.3544
8.44855
6.0474
4.17793
2.7962
1.81773
1.14855
0.704286
0.417447
0.237561
0.128468
0.0650001
0.0300408
0.012195
0.00405754
0.000965028
0.000120245
3.60675e-06
77.7997
77.3952
76.6839
75.744
74.6453
73.4463
72.1932
70.9167
69.6479
68.4058
67.1997
66.0417
64.9299
63.8585
62.8116
61.7705
60.7119
59.6116
58.4442
57.1837
55.8044
54.2922
52.6355
50.8231
48.8459
46.6963
44.3756
41.8854
39.2295
36.4122
33.4375
30.3047
27.0198
23.6077
20.1169
16.6316
13.2755
10.1966
7.53025
5.35711
3.68424
2.45818
1.59488
1.00656
0.616814
0.365468
0.207942
0.11244
0.0568882
0.0262913
0.0106729
0.00355108
0.000844576
0.000105237
3.15658e-06
77.4685
77.0534
76.321
75.3471
74.1979
72.9295
71.5878
70.2064
68.8142
67.4338
66.0794
64.7655
63.494
62.2636
61.0623
59.8761
58.686
57.4721
56.2132
54.8875
53.4698
51.9345
50.2686
48.4606
46.4991
44.3756
42.0862
39.6304
37.0109
34.233
31.3044
28.2353
25.0297
21.7195
18.3634
15.0517
11.9073
9.06711
6.64537
4.69896
3.21737
2.14035
1.38611
0.873853
0.535161
0.316983
0.180324
0.0974982
0.0493267
0.0227964
0.00925409
0.00307903
0.000732306
9.1248e-05
2.73699e-06
76.7688
76.3466
75.5999
74.6031
73.4196
72.1028
70.6967
69.2339
67.7461
66.2569
64.776
63.3265
61.9146
60.5413
59.1981
57.8747
56.5556
55.2252
53.8661
52.4615
50.9903
49.4264
47.7449
45.9346
43.9847
41.8854
39.6304
37.2175
34.647
31.9244
29.0608
26.0723
22.9694
19.7868
16.5902
13.4749
10.5608
7.97108
5.79782
4.07539
2.77866
1.84338
1.19175
0.750574
0.459409
0.272034
0.154731
0.0836548
0.0423219
0.019559
0.00793987
0.00264177
0.000628312
7.82902e-05
2.34833e-06
75.6598
75.2331
74.4773
73.4659
72.2603
70.9115
69.4617
67.9418
66.3833
64.8109
63.2338
61.6771
60.1453
58.6478
57.1795
55.7322
54.2935
52.8514
51.3914
49.9022
48.3672
46.7633
45.0645
43.2482
41.3062
39.2295
37.0109
34.647
32.1386
29.487
26.7078
23.8213
20.8454
17.8164
14.8054
11.9101
9.24469
6.91573
4.99271
3.48956
2.36985
1.56818
1.01228
0.636989
0.389702
0.230703
0.131208
0.0709337
0.0358857
0.0165846
0.00673247
0.00224006
0.000532773
6.63859e-05
1.99126e-06
74.0935
73.6645
72.904
71.8845
70.6661
69.2982
67.8212
66.2647
64.659
63.029
61.3819
59.7455
58.1251
56.5311
54.9575
53.4034
51.8603
50.318
48.7643
47.1929
45.5921
43.9418
42.2189
40.3996
38.4657
36.4122
34.233
31.9244
29.487
26.9246
24.2517
21.4921
18.6684
15.8198
13.0213
10.37
7.97027
5.90992
4.23607
2.9451
1.99297
1.31586
0.848305
0.533426
0.326227
0.193095
0.109813
0.0593667
0.0300343
0.0138806
0.00563493
0.00187491
0.000445931
5.55653e-05
1.6667e-06
72.0161
71.5867
70.8252
69.8034
68.5801
67.2036
65.7128
64.1364
62.5037
60.8387
59.1473
57.4579
55.7765
54.1149
52.4676
50.8345
49.2062
47.581
45.948
44.3051
42.6449
40.9507
39.2022
37.3787
35.461
33.4375
31.3044
29.0608
26.7078
24.2517
21.7081
19.1014
16.4548
13.8139
11.2554
8.87124
6.75171
4.96412
3.53467
2.44596
1.6502
1.08758
0.700456
0.440246
0.26919
0.159327
0.0906116
0.0489889
0.0247855
0.0114554
0.00465056
0.00154742
0.000368047
4.5861e-05
1.37562e-06
69.3694
68.9418
68.1832
67.1646
65.9439
64.5683
63.0756
61.4939
59.8515
58.1714
56.4587
54.7412
53.026
51.3249
49.6334
47.9515
46.271
44.5892
42.8977
41.2015
39.4967
37.7698
36.0039
34.1812
32.2855
30.3047
28.2353
26.0723
23.8213
21.4921
19.1014
16.6712
14.2274
11.8232
9.53209
7.43539
5.60603
4.09007
2.89569
1.99616
1.34364
0.884464
0.569325
0.35777
0.218767
0.129499
0.0736588
0.039829
0.0201535
0.00931546
0.00378207
0.0012585
0.000299337
3.72997e-05
1.11883e-06
66.0962
65.6728
64.9214
63.9123
62.7022
61.3373
59.8546
58.2816
56.6458
54.9693
53.2565
51.5346
49.8114
48.0982
46.3916
44.6913
42.9904
41.2865
39.5677
37.8434
36.1165
34.3769
32.611
30.8043
28.9437
27.0198
25.0297
22.9694
20.8454
18.6684
16.4548
14.2274
12.0191
9.8826
7.88358
6.08904
4.55237
3.29987
2.3259
1.59911
1.07494
0.707242
0.455249
0.286155
0.175035
0.103648
0.0589729
0.0318962
0.0161428
0.00746277
0.00303021
0.00100839
0.000239858
2.98887e-05
8.96537e-07
62.1482
61.7319
60.9932
60.001
58.811
57.468
56.0085
54.4594
52.8473
51.1937
49.5022
47.7994
46.0938
44.3959
42.7036
41.0155
39.3265
37.6341
35.9227
34.2014
32.4821
30.7581
29.0189
27.2534
25.4517
23.6077
21.7195
19.7868
17.8164
15.8198
13.8139
11.8232
9.8826
8.03991
6.34946
4.8613
3.60948
2.60395
1.83028
1.25681
0.844676
0.555966
0.358116
0.225269
0.137891
0.0817036
0.0465112
0.0251665
0.0127409
0.00589143
0.00239257
0.000796279
0.000189416
2.36039e-05
7.08023e-07
57.4984
57.093
56.3738
55.408
54.2496
52.9424
51.5219
50.0142
48.4454
46.836
45.1891
43.5306
41.8693
40.2153
38.5673
36.9227
35.2775
33.6286
31.954
30.2717
28.5964
26.924
25.2469
23.5572
21.8484
20.1169
18.3634
16.5902
14.8054
13.0213
11.2554
9.53209
7.88358
6.34946
4.97021
3.77859
2.79198
2.0088
1.41072
0.969072
0.652013
0.429762
0.277225
0.174619
0.107011
0.0634676
0.0361577
0.019576
0.00991507
0.00458626
0.00186295
0.000620106
0.000147521
1.83839e-05
5.51449e-07
52.1571
51.7674
51.0763
50.1485
49.0363
47.7818
46.4192
44.974
43.4712
41.9306
40.3538
38.7664
37.1779
35.5976
34.0249
32.4514
30.8751
29.2973
27.6979
26.0962
24.5071
22.9288
21.3565
19.7848
18.2102
16.6316
15.0517
13.4749
11.9101
10.37
8.87124
7.43539
6.08904
4.8613
3.77859
2.85875
2.10698
1.51527
1.0653
0.733298
0.494597
0.32682
0.211308
0.133366
0.0818672
0.0486203
0.0277286
0.0150246
0.00761445
0.00352364
0.00143174
0.000476668
0.000113411
1.41338e-05
4.23966e-07
46.1873
45.8191
45.1663
44.2905
43.2414
42.0593
40.7765
39.4178
38.0067
36.562
35.0792
33.5869
32.0957
30.6144
29.1431
27.6731
26.2034
24.7365
23.2562
21.7807
20.3241
18.8866
17.4651
16.0567
14.6598
13.2755
11.9073
10.5608
9.24469
7.97027
6.75171
5.60603
4.55237
3.60948
2.79198
2.10698
1.55251
1.11835
0.788574
0.544789
0.36885
0.244612
0.158666
0.100417
0.0617804
0.0367572
0.0209924
0.0113869
0.00577542
0.00267415
0.00108701
0.000361988
8.61381e-05
1.07356e-05
3.22037e-07
39.7005
39.3594
38.755
37.945
36.9757
35.8849
34.703
33.4533
32.1578
30.834
29.4777
28.1154
26.7577
25.4125
24.0804
22.7542
21.4336
20.1214
18.8052
17.5014
16.2226
14.9699
13.7418
12.5367
11.3544
10.1966
9.06711
7.97108
6.91573
5.90992
4.96412
4.09007
3.29987
2.60395
2.0088
1.51527
1.11835
0.808287
0.572485
0.397479
0.270471
0.180216
0.117386
0.0745566
0.0460046
0.0274352
0.0156971
0.00852635
0.00432901
0.00200591
0.00081579
0.000271758
6.46794e-05
8.06181e-06
2.41835e-07
32.8747
32.5687
32.0268
31.3015
30.4351
29.462
28.4099
27.3002
26.153
24.9842
23.7909
22.5965
21.4106
20.2402
19.0863
17.9431
16.811
15.6925
14.5787
13.4834
12.4171
11.3813
10.375
9.39732
8.44855
7.53025
6.64537
5.79782
4.99271
4.23607
3.53467
2.89569
2.3259
1.83028
1.41072
1.0653
0.788574
0.572485
0.407701
0.284773
0.194955
0.130647
0.0855397
0.0545723
0.0337985
0.0202163
0.0115938
0.00630876
0.00320733
0.00148757
0.000605381
0.000201751
4.80289e-05
5.98707e-06
1.79601e-07
26.0483
25.7855
25.3208
24.6998
23.9596
23.1304
22.2366
21.2969
20.3291
19.3467
18.3482
17.3532
16.37
15.4044
14.4573
13.5245
12.6064
11.7052
10.8146
9.94543
9.10579
8.2968
7.51776
6.76795
6.0474
5.35711
4.69896
4.07539
3.48956
2.9451
2.44596
1.99616
1.59911
1.25681
0.969072
0.733298
0.544789
0.397479
0.284773
0.20023
0.138014
0.0931045
0.0613348
0.0393435
0.0244796
0.0146976
0.0084542
0.00461089
0.00234815
0.00109041
0.000444128
0.000148092
3.52657e-05
4.39664e-06
1.31895e-07
19.6521
19.4386
19.0617
18.559
17.9613
17.2938
16.5767
15.8257
15.0552
14.2765
13.4889
12.7079
11.9399
11.1896
10.4576
9.74081
9.03966
8.35563
7.68446
7.03397
6.40992
5.81296
5.24239
4.69745
4.17793
3.68424
3.21737
2.77866
2.36985
1.99297
1.6502
1.34364
1.07494
0.844676
0.652013
0.494597
0.36885
0.270471
0.194955
0.138014
0.0958226
0.0651174
0.0432011
0.0278913
0.0174525
0.0105285
0.00607929
0.00332549
0.00169731
0.000789447
0.000321898
0.000107411
2.55885e-05
3.19072e-06
9.57218e-08
14.0921
13.9294
13.6424
13.2605
12.8075
12.3032
11.7631
11.1996
10.6237
10.0441
9.46045
8.88425
8.32027
7.77182
7.2393
6.72046
6.21555
5.72552
5.24746
4.78671
4.34709
3.92888
3.53141
3.15397
2.7962
2.45818
2.14035
1.84338
1.56818
1.31586
1.08758
0.884464
0.707242
0.555966
0.429762
0.32682
0.244612
0.180216
0.130647
0.0931045
0.0651174
0.0445948
0.0298171
0.0193947
0.012219
0.00741506
0.00430257
0.00236272
0.00120946
0.000563736
0.000230201
7.68858e-05
1.83263e-05
2.28569e-06
6.85742e-08
9.62013
9.50386
9.29906
9.02698
8.705
8.34735
7.96549
7.56823
7.16356
6.75758
6.35028
5.94959
5.55881
5.18015
4.81382
4.45826
4.11357
3.78031
3.45653
3.14572
2.85028
2.57031
2.30524
2.0545
1.81773
1.59488
1.38611
1.19175
1.01228
0.848305
0.700456
0.569325
0.455249
0.358116
0.277225
0.211308
0.158666
0.117386
0.0855397
0.0613348
0.0432011
0.0298171
0.0201016
0.0131847
0.00837332
0.00511835
0.00298849
0.00164944
0.000847643
0.000396225
0.000162119
5.4216e-05
1.29321e-05
1.61342e-06
4.8408e-08
6.27402
6.19583
6.05825
5.87569
5.66
5.42085
5.16603
4.90151
4.63267
4.36359
4.09432
3.83008
3.573
3.32451
3.0847
2.85253
2.62803
2.41151
2.20173
2.00086
1.81038
1.63032
1.46025
1.29974
1.14855
1.00656
0.873853
0.750574
0.636989
0.533426
0.440246
0.35777
0.286155
0.225269
0.174619
0.133366
0.100417
0.0745566
0.0545723
0.0393435
0.0278913
0.0193947
0.0131847
0.00872539
0.00559172
0.00344787
0.00202896
0.00112729
0.000582362
0.00027329
0.000112126
3.75633e-05
8.96896e-06
1.11945e-06
3.35901e-08
3.9207
3.87092
3.78338
3.66731
3.53031
3.3786
3.21715
3.04979
2.87995
2.71019
2.5406
2.37442
2.213
2.0572
1.90708
1.76195
1.62185
1.48691
1.3564
1.23161
1.11346
1.00191
0.896707
0.79756
0.704286
0.616814
0.535161
0.459409
0.389702
0.326227
0.26919
0.218767
0.175035
0.137891
0.107011
0.0818672
0.0617804
0.0460046
0.0337985
0.0244796
0.0174525
0.012219
0.00837332
0.00559172
0.00361877
0.00225381
0.00133908
0.000750383
0.000390406
0.000184206
7.58681e-05
2.54803e-05
6.09256e-06
7.60895e-07
2.28341e-08
2.3486
2.31847
2.26549
2.19528
2.11247
2.02082
1.92336
1.82241
1.72005
1.61784
1.51581
1.41592
1.31898
1.22549
1.13548
1.04855
0.964697
0.884006
0.806027
0.731537
0.661059
0.594576
0.531918
0.472914
0.417447
0.365468
0.316983
0.272034
0.230703
0.193095
0.159327
0.129499
0.103648
0.0817036
0.0634676
0.0486203
0.0367572
0.0274352
0.0202163
0.0146976
0.0105285
0.00741506
0.00511835
0.00344787
0.00225381
0.0014192
0.000852786
0.00048306
0.000253715
0.000120623
4.99561e-05
1.68389e-05
4.03467e-06
5.04331e-07
1.51374e-08
1.34401
1.32667
1.29619
1.25581
1.20819
1.15551
1.09951
1.04153
0.982773
0.924118
0.865601
0.808339
0.752789
0.699245
0.647716
0.59797
0.550006
0.503871
0.45931
0.416762
0.376521
0.338577
0.30283
0.26918
0.237561
0.207942
0.180324
0.154731
0.131208
0.109813
0.0906116
0.0736588
0.0589729
0.0465112
0.0361577
0.0277286
0.0209924
0.0156971
0.0115938
0.0084542
0.00607929
0.00430257
0.00298849
0.00202896
0.00133908
0.000852786
0.000518928
0.000297807
0.000158363
7.60911e-05
3.17691e-05
1.0767e-05
2.58789e-06
3.23915e-07
9.7248e-09
0.728816
0.719388
0.702815
0.680863
0.65498
0.626351
0.595925
0.564431
0.532517
0.500668
0.468901
0.437822
0.407679
0.378631
0.350683
0.323707
0.297704
0.272698
0.24855
0.225499
0.203702
0.183153
0.163797
0.145581
0.128468
0.11244
0.0974982
0.0836548
0.0709337
0.0593667
0.0489889
0.039829
0.0318962
0.0251665
0.019576
0.0150246
0.0113869
0.00852635
0.00630876
0.00461089
0.00332549
0.00236272
0.00164944
0.00112729
0.000750383
0.00048306
0.000297807
0.000173463
9.36804e-05
4.56696e-05
1.92962e-05
6.59495e-06
1.59292e-06
1.99796e-07
6.00091e-09
0.369223
0.36444
0.356035
0.344901
0.331775
0.317257
0.301829
0.285861
0.269682
0.253537
0.237435
0.221684
0.206409
0.191691
0.17753
0.163864
0.150692
0.138026
0.125796
0.114123
0.103086
0.0926824
0.0828836
0.0736624
0.0650001
0.0568882
0.0493267
0.0423219
0.0358857
0.0300343
0.0247855
0.0201535
0.0161428
0.0127409
0.00991507
0.00761445
0.00577542
0.00432901
0.00320733
0.00234815
0.00169731
0.00120946
0.000847643
0.000582362
0.000390406
0.000253715
0.000158363
9.36804e-05
5.15151e-05
2.55956e-05
1.10042e-05
3.81129e-06
9.28053e-07
1.16809e-07
3.51078e-09
0.170731
0.168519
0.16463
0.15948
0.153407
0.146692
0.139555
0.132169
0.124685
0.117218
0.109771
0.102486
0.0954221
0.0886154
0.0820671
0.0757478
0.0696571
0.0638006
0.0581463
0.0527496
0.0476471
0.0428373
0.0383075
0.0340449
0.0300408
0.0262913
0.0227964
0.019559
0.0165846
0.0138806
0.0114554
0.00931546
0.00746277
0.00589143
0.00458626
0.00352364
0.00267415
0.00200591
0.00148757
0.00109041
0.000789447
0.000563736
0.000396225
0.00027329
0.000184206
0.000120623
7.60911e-05
4.56696e-05
2.55956e-05
1.30125e-05
5.73199e-06
2.02784e-06
5.0079e-07
6.34245e-08
1.90861e-09
0.0693202
0.0684218
0.0668427
0.0647512
0.0622853
0.0595582
0.0566604
0.0536611
0.0506223
0.0475901
0.0445663
0.0416085
0.0387402
0.0359764
0.0333176
0.0307518
0.0282789
0.0259011
0.0236054
0.0214144
0.0193428
0.0173901
0.0155511
0.0138206
0.012195
0.0106729
0.00925409
0.00793987
0.00673247
0.00563493
0.00465056
0.00378207
0.00303021
0.00239257
0.00186295
0.00143174
0.00108701
0.00081579
0.000605381
0.000444128
0.000321898
0.000230201
0.000162119
0.000112126
7.58681e-05
4.99561e-05
3.17691e-05
1.92962e-05
1.10042e-05
5.73199e-06
2.604e-06
9.51862e-07
2.41178e-07
3.09206e-08
9.32742e-10
0.0230649
0.0227659
0.0222405
0.0215446
0.0207241
0.0198167
0.0188525
0.0178546
0.0168435
0.0158345
0.0148284
0.0138443
0.0128899
0.0119703
0.0110856
0.0102319
0.00940907
0.00861789
0.00785407
0.00712504
0.00643578
0.00578607
0.00517418
0.0045984
0.00405754
0.00355108
0.00307903
0.00264177
0.00224006
0.00187491
0.00154742
0.0012585
0.00100839
0.000796279
0.000620106
0.000476668
0.000361988
0.000271758
0.000201751
0.000148092
0.000107411
7.68858e-05
5.4216e-05
3.75633e-05
2.54803e-05
1.68389e-05
1.0767e-05
6.59495e-06
3.81129e-06
2.02784e-06
9.51862e-07
3.63867e-07
9.65774e-08
1.27218e-08
3.85905e-10
0.00548549
0.0054144
0.00528945
0.00512395
0.00492882
0.00471302
0.00448371
0.00424637
0.0040059
0.00376595
0.00352667
0.00329261
0.00306563
0.00284692
0.00263652
0.00243348
0.00223779
0.00204962
0.00186796
0.00169458
0.00153065
0.00137613
0.0012306
0.00109366
0.000965028
0.000844576
0.000732306
0.000628312
0.000532773
0.000445931
0.000368047
0.000299337
0.000239858
0.000189416
0.000147521
0.000113411
8.61381e-05
6.46794e-05
4.80289e-05
3.52657e-05
2.55885e-05
1.83263e-05
1.29321e-05
8.96896e-06
6.09256e-06
4.03467e-06
2.58789e-06
1.59292e-06
9.28053e-07
5.0079e-07
2.41178e-07
9.65774e-08
2.75537e-08
3.87585e-09
1.19491e-10
0.000683479
0.000674621
0.000659054
0.000638433
0.000614122
0.000587235
0.000558664
0.000529093
0.000499132
0.000469236
0.000439422
0.000410259
0.000381978
0.000354728
0.000328513
0.000303214
0.000278831
0.000255385
0.00023275
0.000211147
0.000190722
0.000171468
0.000153336
0.000136273
0.000120245
0.000105237
9.1248e-05
7.82902e-05
6.63859e-05
5.55653e-05
4.5861e-05
3.72997e-05
2.98887e-05
2.36039e-05
1.83839e-05
1.41338e-05
1.07356e-05
8.06181e-06
5.98707e-06
4.39664e-06
3.19072e-06
2.28569e-06
1.61342e-06
1.11945e-06
7.60895e-07
5.04331e-07
3.23915e-07
1.99796e-07
1.16809e-07
6.34245e-08
3.09206e-08
1.27218e-08
3.87585e-09
6.22251e-10
2.05866e-11
2.05e-05
2.02343e-05
1.97674e-05
1.9149e-05
1.84198e-05
1.76134e-05
1.67565e-05
1.58696e-05
1.49709e-05
1.40743e-05
1.31801e-05
1.23054e-05
1.14571e-05
1.06398e-05
9.85351e-06
9.09472e-06
8.36338e-06
7.66015e-06
6.98124e-06
6.33327e-06
5.72063e-06
5.14314e-06
4.59927e-06
4.08749e-06
3.60675e-06
3.15658e-06
2.73699e-06
2.34833e-06
1.99126e-06
1.6667e-06
1.37562e-06
1.11883e-06
8.96537e-07
7.08023e-07
5.51449e-07
4.23966e-07
3.22037e-07
2.41835e-07
1.79601e-07
1.31895e-07
9.57218e-08
6.85742e-08
4.8408e-08
3.35901e-08
2.28341e-08
1.51374e-08
9.7248e-09
6.00091e-09
3.51078e-09
1.90861e-09
9.32742e-10
3.85905e-10
1.19491e-10
2.05866e-11
1.12997e-12
)
;

boundaryField
{
    inflow
    {
        type            cyclic;
    }
    outflow
    {
        type            cyclic;
    }
    wallTop
    {
        type            fixedValue;
        value           uniform 0;
    }
    wallSide
    {
        type            fixedValue;
        value           uniform 0;
    }
    symmetryBottom
    {
        type            symmetry;
    }
    symmetrySide
    {
        type            symmetry;
    }
}


// ************************************************************************* //
