/*--------------------------------*- C++ -*----------------------------------*\
  =========                 |
  \\      /  F ield         | OpenFOAM: The Open Source CFD Toolbox
   \\    /   O peration     | Website:  https://openfoam.org
    \\  /    A nd           | Version:  7
     \\/     M anipulation  |
\*---------------------------------------------------------------------------*/
FoamFile
{
    version     2.0;
    format      ascii;
    class       volScalarField;
    location    "405";
    object      nut;
}
// * * * * * * * * * * * * * * * * * * * * * * * * * * * * * * * * * * * * * //

dimensions      [0 2 -1 0 0 0 0];

internalField   nonuniform List<scalar> 
3025
(
0.000685984
0.000678314
0.000664375
0.000645175
0.000621613
0.000594582
0.000564976
0.000533653
0.000501395
0.000468876
0.000436648
0.000405133
0.000374638
0.00034537
0.000317454
0.000290958
0.000265903
0.000242286
0.000220084
0.000199263
0.000179291
0.000160484
0.00014311
0.000127136
0.000112447
9.89374e-05
8.65245e-05
7.51499e-05
6.47694e-05
5.53463e-05
4.68468e-05
3.92373e-05
3.24811e-05
2.65391e-05
2.13702e-05
1.6924e-05
1.31327e-05
9.84524e-06
6.96907e-06
4.67913e-06
2.95501e-06
1.74408e-06
9.58863e-07
4.90783e-07
2.33934e-07
1.03694e-07
4.25064e-08
1.59212e-08
5.33397e-09
1.54241e-09
3.62621e-10
6.23474e-11
6.38163e-12
2.47233e-13
1.2076e-15
0.000678314
0.000671451
0.000658829
0.000641164
0.000619142
0.000593514
0.000565084
0.000534667
0.000503038
0.00047089
0.000438811
0.000407269
0.000376622
0.000347122
0.000318934
0.000292154
0.000266829
0.000242967
0.000220552
0.000199552
0.000179898
0.000160987
0.000143412
0.000127253
0.000112429
9.88299e-05
8.63655e-05
7.49658e-05
6.45777e-05
5.51583e-05
4.66698e-05
3.90753e-05
3.23363e-05
2.64123e-05
2.12613e-05
1.68322e-05
1.30559e-05
9.77772e-06
6.91572e-06
4.63915e-06
2.92699e-06
1.72597e-06
9.48142e-07
4.84986e-07
2.31065e-07
1.02391e-07
4.19641e-08
1.57165e-08
5.26506e-09
1.52245e-09
3.57923e-10
6.15394e-11
6.29892e-12
2.44029e-13
1.19195e-15
0.000664375
0.000658829
0.000648342
0.000633199
0.000613749
0.000590511
0.000564142
0.000535377
0.000504964
0.000473612
0.000441952
0.000410521
0.000379746
0.000349955
0.00032138
0.00029417
0.000268415
0.000244149
0.000221376
0.000200071
0.000180196
0.000161701
0.000143971
0.000127529
0.000112457
9.86846e-05
8.61139e-05
7.46586e-05
6.42498e-05
5.48325e-05
4.63604e-05
3.87907e-05
3.2081e-05
2.61884e-05
2.10688e-05
1.66694e-05
1.29197e-05
9.65792e-06
6.82109e-06
4.56829e-06
2.87741e-06
1.69396e-06
9.29227e-07
4.74772e-07
2.26013e-07
1.00098e-07
4.10106e-08
1.53564e-08
5.14394e-09
1.48735e-09
3.49665e-10
6.01193e-11
6.15356e-12
2.38398e-13
1.16445e-15
0.000645175
0.000641164
0.000633199
0.000621079
0.000604782
0.000584555
0.000560877
0.000534371
0.000505733
0.000475665
0.000444829
0.000413818
0.000383134
0.000353183
0.000324276
0.000296636
0.000270409
0.000245675
0.000222467
0.000200779
0.00018058
0.000161823
0.00014445
0.000127934
0.000112595
9.85795e-05
8.58407e-05
7.42885e-05
6.38362e-05
5.44116e-05
4.5955e-05
3.84147e-05
3.17419e-05
2.58899e-05
2.08114e-05
1.64516e-05
1.27373e-05
9.49702e-06
6.69406e-06
4.4733e-06
2.81107e-06
1.65123e-06
9.04034e-07
4.61193e-07
2.19306e-07
9.70563e-08
3.97468e-08
1.48794e-08
4.98348e-09
1.44087e-09
3.38728e-10
5.82383e-11
5.96102e-12
2.30939e-13
1.12801e-15
0.000621613
0.000619142
0.000613749
0.000604782
0.000591858
0.000574956
0.00055436
0.000530564
0.000504184
0.000475891
0.000446349
0.000416185
0.000385953
0.00035613
0.000327103
0.000299172
0.00027255
0.000247378
0.00022373
0.000201633
0.000181074
0.000162015
0.000144401
0.000128166
0.000112807
9.85609e-05
8.56082e-05
7.39131e-05
6.33854e-05
5.39355e-05
4.54867e-05
3.79748e-05
3.13419e-05
2.55359e-05
2.0505e-05
1.61917e-05
1.25193e-05
9.30407e-06
6.54182e-06
4.35963e-06
2.73187e-06
1.60036e-06
8.74125e-07
4.4511e-07
2.11377e-07
9.34651e-08
3.82556e-08
1.43168e-08
4.79428e-09
1.38606e-09
3.25833e-10
5.60207e-11
5.73403e-12
2.22145e-13
1.08506e-15
0.000594582
0.000593514
0.000590511
0.000584555
0.000574956
0.000561444
0.00054411
0.000523305
0.000499548
0.000473451
0.000445659
0.000416803
0.000387464
0.000358162
0.000329344
0.000301376
0.000274545
0.000249055
0.000225038
0.000202563
0.000181649
0.000162277
0.000144401
0.000127958
0.000112876
9.8604e-05
8.54506e-05
7.35775e-05
6.2939e-05
5.34391e-05
4.49844e-05
3.74946e-05
3.09006e-05
2.51425e-05
2.0163e-05
1.59007e-05
1.22746e-05
9.08645e-06
6.3702e-06
4.23172e-06
2.64299e-06
1.54347e-06
8.4078e-07
4.27228e-07
2.0258e-07
8.94862e-08
3.66048e-08
1.36943e-08
4.585e-09
1.32544e-09
3.11572e-10
5.35681e-11
5.48298e-12
2.12419e-13
1.03756e-15
0.000564976
0.000565084
0.000564142
0.000560877
0.00055436
0.00054411
0.000530036
0.000512342
0.000491434
0.000467841
0.00044217
0.000415043
0.000387046
0.000358706
0.000330496
0.000302834
0.000276067
0.000250465
0.000226222
0.00020346
0.000182243
0.000162579
0.000144444
0.000127786
0.000112535
9.86155e-05
8.53621e-05
7.33049e-05
6.25261e-05
5.295e-05
4.44714e-05
3.69938e-05
3.0434e-05
2.4723e-05
1.97962e-05
1.55873e-05
1.20103e-05
8.85007e-06
6.18389e-06
4.09314e-06
2.54701e-06
1.48225e-06
8.05031e-07
4.08116e-07
1.93198e-07
8.52495e-08
3.48487e-08
1.30324e-08
4.36256e-09
1.26102e-09
2.96417e-10
5.09618e-11
5.2162e-12
2.02084e-13
9.87081e-16
0.000533653
0.000534667
0.000535377
0.000534371
0.000530564
0.000523305
0.000512342
0.000497737
0.000479481
0.00045626
0.000432219
0.000408248
0.000384128
0.000357276
0.000330108
0.000303146
0.00027678
0.000251339
0.000227078
0.000204181
0.000182758
0.000162864
0.000144502
0.00012764
0.00011222
9.81699e-05
8.52454e-05
7.30952e-05
6.21689e-05
5.24908e-05
4.39667e-05
3.64874e-05
2.99545e-05
2.42873e-05
1.94126e-05
1.52582e-05
1.17319e-05
8.59937e-06
5.98645e-06
3.94663e-06
2.4459e-06
1.41802e-06
7.67674e-07
3.88209e-07
1.8345e-07
8.0855e-08
3.30291e-08
1.23471e-08
4.13228e-09
1.19434e-09
2.80731e-10
4.82644e-11
4.9401e-12
1.91388e-13
9.34835e-16
0.000501395
0.000503038
0.000504964
0.000505733
0.000504184
0.000499548
0.000491434
0.000479481
0.000460127
0.000438996
0.000417526
0.000395871
0.000373887
0.000351603
0.000327804
0.000301959
0.000276368
0.000251406
0.000227389
0.000204555
0.000183075
0.00016305
0.000144523
0.000127493
0.00011192
9.77433e-05
8.48866e-05
7.28923e-05
6.18656e-05
5.20748e-05
4.34858e-05
3.59895e-05
2.94738e-05
2.38452e-05
1.90204e-05
1.492e-05
1.14447e-05
8.33867e-06
5.78129e-06
3.79479e-06
2.34151e-06
1.35201e-06
7.29437e-07
3.67906e-07
1.73535e-07
7.63924e-08
3.11834e-08
1.16523e-08
3.89891e-09
1.12677e-09
2.64838e-10
4.55314e-11
4.66035e-12
1.8055e-13
8.81899e-16
0.000468876
0.00047089
0.000473612
0.000475665
0.000475891
0.000473451
0.000467841
0.00045626
0.000438996
0.000420545
0.000401593
0.000382169
0.000362252
0.000341877
0.000321048
0.000299036
0.00027458
0.00025043
0.000226942
0.000204409
0.000183056
0.000163037
0.00014444
0.000127301
0.00011161
9.73246e-05
8.43789e-05
7.2695e-05
6.16083e-05
5.17025e-05
4.30351e-05
3.55084e-05
2.9e-05
2.34037e-05
1.86252e-05
1.45772e-05
1.11526e-05
8.07118e-06
5.57103e-06
3.63962e-06
2.23528e-06
1.28514e-06
6.90882e-07
3.47508e-07
1.63599e-07
7.19292e-08
2.93394e-08
1.09586e-08
3.66598e-09
1.05935e-09
2.4898e-10
4.28043e-11
4.3812e-12
1.69736e-13
8.29078e-16
0.000436648
0.000438811
0.000441952
0.000444829
0.000446349
0.000445659
0.00044217
0.000432219
0.000417526
0.000401593
0.000384902
0.000367503
0.000349429
0.000330747
0.000311538
0.000291865
0.000271232
0.000248209
0.000225544
0.00020357
0.000182557
0.00016271
0.000144167
0.000127006
0.000111253
9.68904e-05
8.38724e-05
7.21311e-05
6.13249e-05
5.13734e-05
4.26243e-05
3.50516e-05
2.8538e-05
2.29654e-05
1.82273e-05
1.42238e-05
1.08215e-05
7.79374e-06
5.35396e-06
3.48029e-06
2.12685e-06
1.21731e-06
6.51972e-07
3.2701e-07
1.53646e-07
6.74666e-08
2.7498e-08
1.02664e-08
3.43364e-09
9.921e-10
2.33164e-10
4.00848e-11
4.10283e-12
1.58951e-13
7.76404e-16
0.000405133
0.000407269
0.000410521
0.000413818
0.000416185
0.000416803
0.000415043
0.000408248
0.000395871
0.000382169
0.000367503
0.000351933
0.000335542
0.000318438
0.000300738
0.000282559
0.000263982
0.000244592
0.000223031
0.000201875
0.000181431
0.000161947
0.000143607
0.000126535
0.000110797
9.64089e-05
8.33486e-05
7.15654e-05
6.09906e-05
5.10624e-05
4.22448e-05
3.46214e-05
2.80941e-05
2.2538e-05
1.78349e-05
1.38713e-05
1.04811e-05
7.51316e-06
5.13495e-06
3.32019e-06
2.01846e-06
1.14986e-06
6.1348e-07
3.06812e-07
1.43866e-07
6.30907e-08
2.56944e-08
9.58883e-09
3.2063e-09
9.26315e-10
2.17694e-10
3.74245e-11
3.83054e-12
1.48402e-13
7.24877e-16
0.000374638
0.000376622
0.000379746
0.000383134
0.000385953
0.000387464
0.000387046
0.000384128
0.000373887
0.000362252
0.000349429
0.000335542
0.000320726
0.000305125
0.000288878
0.000272118
0.000254961
0.000237476
0.000219273
0.000199184
0.000179539
0.000160621
0.000142654
0.000125805
0.000110181
9.58355e-05
8.27782e-05
7.09808e-05
6.039e-05
5.07264e-05
4.18918e-05
3.42197e-05
2.76712e-05
2.21242e-05
1.74509e-05
1.35234e-05
1.01397e-05
7.23171e-06
4.91575e-06
3.16061e-06
1.911e-06
1.08337e-06
5.75724e-07
2.87082e-07
1.34341e-07
5.88367e-08
2.39432e-08
8.93138e-09
2.98579e-09
8.62514e-10
2.0269e-10
3.48447e-11
3.56648e-12
1.38172e-13
6.74909e-16
0.00034537
0.000347122
0.000349955
0.000353183
0.00035613
0.000358162
0.000358706
0.000357276
0.000351603
0.000341877
0.000330747
0.000318438
0.000305125
0.000290974
0.000276139
0.000260758
0.000244953
0.000228826
0.000212435
0.000195389
0.000176764
0.000158615
0.0001412
0.000124722
0.000109329
9.51144e-05
8.21208e-05
7.03488e-05
5.9766e-05
5.03166e-05
4.15362e-05
3.38342e-05
2.72657e-05
2.17242e-05
1.70766e-05
1.31818e-05
9.79867e-06
6.95073e-06
4.69751e-06
3.00245e-06
1.80509e-06
1.01823e-06
5.38928e-07
2.67931e-07
1.25123e-07
5.47278e-08
2.22537e-08
8.29752e-09
2.77326e-09
8.01033e-10
1.88234e-10
3.2359e-11
3.31204e-12
1.28315e-13
6.26763e-16
0.000317454
0.000318934
0.00032138
0.000324276
0.000327103
0.000329344
0.000330496
0.000330108
0.000327804
0.000321048
0.000311538
0.000300738
0.000288878
0.000276139
0.000262681
0.000248645
0.000234155
0.000219318
0.000204225
0.000188921
0.000173012
0.000155827
0.000139144
0.000123195
0.000108164
9.41821e-05
8.13279e-05
6.96342e-05
5.90942e-05
4.96713e-05
4.11392e-05
3.34524e-05
2.68709e-05
2.13334e-05
1.67089e-05
1.28441e-05
9.45674e-06
6.66957e-06
4.47998e-06
2.84567e-06
1.70078e-06
9.54466e-07
5.0311e-07
2.4937e-07
1.16215e-07
5.07651e-08
2.06263e-08
7.68736e-09
2.56874e-09
7.41881e-10
1.74326e-10
2.99677e-11
3.06727e-12
1.18832e-13
5.80445e-16
0.000290958
0.000292154
0.00029417
0.000296636
0.000299172
0.000301376
0.000302834
0.000303146
0.000301959
0.000299036
0.000291865
0.000282559
0.000272118
0.000260758
0.000248645
0.000235922
0.000222715
0.000209133
0.000195269
0.000181201
0.000166969
0.000152179
0.000136399
0.000121138
0.000106607
9.29716e-05
8.03453e-05
6.87948e-05
5.83426e-05
4.89753e-05
4.06524e-05
3.30469e-05
2.64735e-05
2.09442e-05
1.63359e-05
1.24665e-05
9.10846e-06
6.38501e-06
4.26131e-06
2.68923e-06
1.5975e-06
8.91788e-07
4.68112e-07
2.31317e-07
1.07579e-07
4.69311e-08
1.90536e-08
7.09817e-09
2.37133e-09
6.84792e-10
1.60904e-10
2.766e-11
2.83106e-12
1.09681e-13
5.35746e-16
0.000265903
0.000266829
0.000268415
0.000270409
0.00027255
0.000274545
0.000276067
0.00027678
0.000276368
0.00027458
0.000271232
0.000263982
0.000254961
0.000244953
0.000234155
0.000222715
0.000210759
0.000198398
0.000185728
0.000172829
0.00015977
0.000146584
0.000132898
0.000118476
0.000104585
9.14169e-05
7.91173e-05
6.77861e-05
5.74772e-05
4.82042e-05
3.99476e-05
3.25821e-05
2.60571e-05
2.05467e-05
1.59524e-05
1.20493e-05
8.75222e-06
6.09622e-06
4.04116e-06
2.53306e-06
1.49526e-06
8.30216e-07
4.33948e-07
2.13777e-07
9.92158e-08
4.32262e-08
1.75359e-08
6.52992e-09
2.18101e-09
6.29764e-10
1.47968e-10
2.54357e-11
2.6034e-12
1.00861e-13
4.92665e-16
0.000242286
0.000242967
0.000244149
0.000245675
0.000247378
0.000249055
0.000250465
0.000251339
0.000251406
0.00025043
0.000248209
0.000244592
0.000237476
0.000228826
0.000219318
0.000209133
0.000198398
0.000187227
0.000175716
0.000163948
0.000151996
0.000139921
0.000127753
0.000115153
0.000102036
8.94571e-05
7.75896e-05
6.65629e-05
5.64623e-05
4.73304e-05
3.91722e-05
3.19635e-05
2.55883e-05
2.01213e-05
1.55383e-05
1.16187e-05
8.38778e-06
5.80326e-06
3.81974e-06
2.37741e-06
1.39425e-06
7.69869e-07
4.00679e-07
1.96777e-07
9.11371e-08
3.96547e-08
1.60746e-08
5.9832e-09
1.99795e-09
5.76847e-10
1.35529e-10
2.3297e-11
2.38449e-12
9.238e-14
4.5124e-16
0.000220084
0.000220552
0.000221376
0.000222467
0.00022373
0.000225038
0.000226222
0.000227078
0.000227389
0.000226942
0.000225544
0.000223031
0.000219273
0.000212435
0.000204225
0.000195269
0.000185728
0.000175716
0.000165332
0.000154661
0.000143779
0.000132749
0.000121626
0.000110443
9.89103e-05
8.70401e-05
7.57124e-05
6.5082e-05
5.5263e-05
4.63273e-05
3.83068e-05
3.11997e-05
2.49781e-05
1.95986e-05
1.50104e-05
1.11625e-05
8.00788e-06
5.50179e-06
3.59458e-06
2.2209e-06
1.29375e-06
7.10363e-07
3.68108e-07
1.80222e-07
8.32973e-08
3.61967e-08
1.46616e-08
5.45499e-09
1.82117e-09
5.25753e-10
1.23519e-10
2.12323e-11
2.17315e-12
8.41924e-14
4.11247e-16
0.000199263
0.000199552
0.000200071
0.000200779
0.000201633
0.000202563
0.00020346
0.000204181
0.000204555
0.000204409
0.00020357
0.000201875
0.000199184
0.000195389
0.000188921
0.000181201
0.000172829
0.000163948
0.000154661
0.000145056
0.000135209
0.000125187
0.000115048
0.000104843
9.46096e-05
8.41256e-05
7.34426e-05
6.33034e-05
5.38463e-05
4.51704e-05
3.73353e-05
3.03635e-05
2.42475e-05
1.89579e-05
1.44535e-05
1.06887e-05
7.61807e-06
5.1959e-06
3.36861e-06
2.06552e-06
1.19499e-06
6.52405e-07
3.36604e-07
1.6429e-07
7.57783e-08
3.28874e-08
1.33112e-08
4.9505e-09
1.6524e-09
4.76981e-10
1.12056e-10
1.92616e-11
1.97144e-12
7.63778e-14
3.73076e-16
0.000179291
0.000179898
0.000180196
0.00018058
0.000181074
0.000181649
0.000182243
0.000182758
0.000183075
0.000183056
0.000182557
0.000181431
0.000179539
0.000176764
0.000173012
0.000166969
0.00015977
0.000151996
0.000143779
0.000135209
0.000126366
0.000117317
0.000108126
9.8845e-05
8.95241e-05
8.02057e-05
7.07461e-05
6.11913e-05
5.21796e-05
4.38336e-05
3.62388e-05
2.94433e-05
2.34615e-05
1.82817e-05
1.38746e-05
1.02021e-05
7.22226e-06
4.88859e-06
3.14406e-06
1.91282e-06
1.09892e-06
5.96519e-07
3.06434e-07
1.49108e-07
6.86369e-08
2.97507e-08
1.20328e-08
4.47324e-09
1.49278e-09
4.30864e-10
1.01217e-10
1.73983e-11
1.78073e-12
6.89894e-14
3.36988e-16
0.000160484
0.000160987
0.000161701
0.000161823
0.000162015
0.000162277
0.000162579
0.000162864
0.00016305
0.000163037
0.00016271
0.000161947
0.000160621
0.000158615
0.000155827
0.000152179
0.000146584
0.000139921
0.000132749
0.000125187
0.000117317
0.000109212
0.000100935
9.25437e-05
8.40883e-05
7.56177e-05
6.71817e-05
5.87162e-05
5.02324e-05
4.22891e-05
3.49947e-05
2.84219e-05
2.26084e-05
1.75623e-05
1.32692e-05
9.70064e-06
6.81943e-06
4.57967e-06
2.92109e-06
1.76299e-06
1.00569e-06
5.42777e-07
2.77625e-07
1.34683e-07
6.18742e-08
2.67866e-08
1.08262e-08
4.02309e-09
1.34229e-09
3.87389e-10
9.10009e-11
1.5642e-11
1.60097e-12
6.20249e-14
3.02969e-16
0.00014311
0.000143412
0.000143971
0.00014445
0.000144401
0.000144401
0.000144444
0.000144502
0.000144523
0.00014444
0.000144167
0.000143607
0.000142654
0.0001412
0.000139144
0.000136399
0.000132898
0.000127753
0.000121626
0.000115048
0.000108126
0.000100935
9.35437e-05
8.60095e-05
7.83874e-05
7.07247e-05
6.3072e-05
5.54901e-05
4.79793e-05
4.05114e-05
3.35801e-05
2.72806e-05
2.16742e-05
1.67899e-05
1.26308e-05
9.18012e-06
6.4074e-06
4.2681e-06
2.69929e-06
1.6159e-06
9.15224e-07
4.91125e-07
2.50137e-07
1.20989e-07
5.54759e-08
2.3988e-08
9.68836e-09
3.59889e-09
1.20052e-09
3.46442e-10
8.13788e-11
1.39879e-11
1.43166e-12
5.54658e-14
2.70931e-16
0.000127136
0.000127253
0.000127529
0.000127934
0.000128166
0.000127958
0.000127786
0.00012764
0.000127493
0.000127301
0.000127006
0.000126535
0.000125805
0.000124722
0.000123195
0.000121138
0.000118476
0.000115153
0.000110443
0.000104843
9.8845e-05
9.25437e-05
8.60095e-05
7.93062e-05
7.24865e-05
6.55998e-05
5.86968e-05
5.18385e-05
4.50894e-05
3.84806e-05
3.19754e-05
2.60025e-05
2.06451e-05
1.59546e-05
1.19527e-05
8.6366e-06
5.98405e-06
3.95294e-06
2.47832e-06
1.47142e-06
8.27454e-07
4.41508e-07
2.23927e-07
1.07999e-07
4.94272e-08
2.13479e-08
8.61629e-09
3.19947e-09
1.06708e-09
3.07906e-10
7.23242e-11
1.24314e-11
1.27235e-12
4.92938e-14
2.40784e-16
0.000112447
0.000112429
0.000112457
0.000112595
0.000112807
0.000112876
0.000112535
0.00011222
0.00011192
0.00011161
0.000111253
0.000110797
0.000110181
0.000109329
0.000108164
0.000106607
0.000104585
0.000102036
9.89103e-05
9.46096e-05
8.95241e-05
8.40883e-05
7.83874e-05
7.24865e-05
6.64431e-05
6.03018e-05
5.41208e-05
4.79607e-05
4.18811e-05
3.59449e-05
3.0168e-05
2.45749e-05
1.95108e-05
1.50485e-05
1.12296e-05
8.06705e-06
5.54799e-06
3.63377e-06
2.25817e-06
1.32962e-06
7.42417e-07
3.93926e-07
1.9898e-07
9.56995e-08
4.37192e-08
1.88617e-08
7.60795e-09
2.82405e-09
9.41697e-10
2.71705e-10
6.38185e-11
1.09692e-11
1.1227e-12
4.34961e-14
2.12464e-16
9.89374e-05
9.88299e-05
9.86846e-05
9.85795e-05
9.85609e-05
9.8604e-05
9.86155e-05
9.81699e-05
9.77433e-05
9.73246e-05
9.68904e-05
9.64089e-05
9.58355e-05
9.51144e-05
9.41821e-05
9.29716e-05
9.14169e-05
8.94571e-05
8.70401e-05
8.41256e-05
8.02057e-05
7.56177e-05
7.07247e-05
6.55998e-05
6.03018e-05
5.48864e-05
4.94045e-05
4.39196e-05
3.84876e-05
3.31679e-05
2.80178e-05
2.29928e-05
1.82656e-05
1.4067e-05
1.04587e-05
7.47012e-06
5.09898e-06
3.31093e-06
2.0393e-06
1.19085e-06
6.60286e-07
3.48443e-07
1.75312e-07
8.40911e-08
3.83499e-08
1.65279e-08
6.66253e-09
2.47229e-09
8.2426e-10
2.37802e-10
5.58536e-11
9.60011e-12
9.8257e-13
3.80672e-14
1.85946e-16
8.65245e-05
8.63655e-05
8.61139e-05
8.58407e-05
8.56082e-05
8.54506e-05
8.53621e-05
8.52454e-05
8.48866e-05
8.43789e-05
8.38724e-05
8.33486e-05
8.27782e-05
8.21208e-05
8.13279e-05
8.03453e-05
7.91173e-05
7.75896e-05
7.57124e-05
7.34426e-05
7.07461e-05
6.71817e-05
6.3072e-05
5.86968e-05
5.41208e-05
4.94045e-05
4.46115e-05
3.97778e-05
3.49723e-05
3.02434e-05
2.56573e-05
2.12628e-05
1.69105e-05
1.30097e-05
9.63982e-06
6.84637e-06
4.63813e-06
2.98563e-06
1.82266e-06
1.05568e-06
5.81353e-07
3.05181e-07
1.52968e-07
7.31873e-08
3.33231e-08
1.43473e-08
5.78022e-09
2.14422e-09
7.14771e-10
2.06199e-10
4.84295e-11
8.32398e-12
8.51957e-13
3.3007e-14
1.61229e-16
7.51499e-05
7.49658e-05
7.46586e-05
7.42885e-05
7.39131e-05
7.35775e-05
7.33049e-05
7.30952e-05
7.28923e-05
7.2695e-05
7.21311e-05
7.15654e-05
7.09808e-05
7.03488e-05
6.96342e-05
6.87948e-05
6.77861e-05
6.65629e-05
6.5082e-05
6.33034e-05
6.11913e-05
5.87162e-05
5.54901e-05
5.18385e-05
4.79607e-05
4.39196e-05
3.97778e-05
3.56006e-05
3.13966e-05
2.72297e-05
2.31838e-05
1.93012e-05
1.5448e-05
1.18783e-05
8.77471e-06
6.19794e-06
4.16768e-06
2.65979e-06
1.6096e-06
9.24894e-07
5.06002e-07
2.64303e-07
1.3201e-07
6.30104e-08
2.86463e-08
1.23225e-08
4.96191e-09
1.84015e-09
6.13323e-10
1.76922e-10
4.15523e-11
7.14189e-12
7.30972e-13
2.83198e-14
1.38334e-16
6.47694e-05
6.45777e-05
6.42498e-05
6.38362e-05
6.33854e-05
6.2939e-05
6.25261e-05
6.21689e-05
6.18656e-05
6.16083e-05
6.13249e-05
6.09906e-05
6.039e-05
5.9766e-05
5.90942e-05
5.83426e-05
5.74772e-05
5.64623e-05
5.5263e-05
5.38463e-05
5.21796e-05
5.02324e-05
4.79793e-05
4.50894e-05
4.18811e-05
3.84876e-05
3.49723e-05
3.13966e-05
2.78229e-05
2.41658e-05
2.06408e-05
1.72503e-05
1.38903e-05
1.068e-05
7.86872e-06
5.52936e-06
3.6914e-06
2.33624e-06
1.40195e-06
7.99505e-07
4.34715e-07
2.26017e-07
1.1252e-07
5.35917e-08
2.43313e-08
1.04579e-08
4.20917e-09
1.56062e-09
5.20095e-10
1.50022e-10
3.52339e-11
6.05591e-12
6.19823e-13
2.40137e-14
1.173e-16
5.53463e-05
5.51583e-05
5.48325e-05
5.44116e-05
5.39355e-05
5.34391e-05
5.295e-05
5.24908e-05
5.20748e-05
5.17025e-05
5.13734e-05
5.10624e-05
5.07264e-05
5.03166e-05
4.96713e-05
4.89753e-05
4.82042e-05
4.73304e-05
4.63273e-05
4.51704e-05
4.38336e-05
4.22891e-05
4.05114e-05
3.84806e-05
3.59449e-05
3.31679e-05
3.02434e-05
2.72297e-05
2.41658e-05
2.11067e-05
1.80817e-05
1.5164e-05
1.22532e-05
9.42539e-06
6.9299e-06
4.84717e-06
3.21444e-06
2.01859e-06
1.20191e-06
6.80679e-07
3.68039e-07
1.90556e-07
9.45932e-08
4.49683e-08
2.03923e-08
8.75892e-09
3.52404e-09
1.30635e-09
4.35324e-10
1.25566e-10
2.94903e-11
5.06875e-12
5.18792e-13
2.00995e-14
9.81811e-17
4.68468e-05
4.66698e-05
4.63604e-05
4.5955e-05
4.54867e-05
4.49844e-05
4.44714e-05
4.39667e-05
4.34858e-05
4.30351e-05
4.26243e-05
4.22448e-05
4.18918e-05
4.15362e-05
4.11392e-05
4.06524e-05
3.99476e-05
3.91722e-05
3.83068e-05
3.73353e-05
3.62388e-05
3.49947e-05
3.35801e-05
3.19754e-05
3.0168e-05
2.80178e-05
2.56573e-05
2.31838e-05
2.06408e-05
1.80817e-05
1.55519e-05
1.3078e-05
1.05584e-05
8.12982e-06
5.96967e-06
4.16016e-06
2.74328e-06
1.71116e-06
1.01199e-06
5.69701e-07
3.06566e-07
1.58172e-07
7.83296e-08
3.71797e-08
1.68448e-08
7.23151e-09
2.90876e-09
1.07816e-09
3.59271e-10
1.0363e-10
2.43389e-11
4.18342e-12
4.28183e-13
1.65892e-14
8.10345e-17
3.92373e-05
3.90753e-05
3.87907e-05
3.84147e-05
3.79748e-05
3.74946e-05
3.69938e-05
3.64874e-05
3.59895e-05
3.55084e-05
3.50516e-05
3.46214e-05
3.42197e-05
3.38342e-05
3.34524e-05
3.30469e-05
3.25821e-05
3.19635e-05
3.11997e-05
3.03635e-05
2.94433e-05
2.84219e-05
2.72806e-05
2.60025e-05
2.45749e-05
2.29928e-05
2.12628e-05
1.93012e-05
1.72503e-05
1.5164e-05
1.3078e-05
1.09772e-05
8.83708e-06
6.81577e-06
5.00428e-06
3.47998e-06
2.28587e-06
1.41886e-06
8.34885e-07
4.67887e-07
2.50875e-07
1.29102e-07
6.38227e-08
3.02616e-08
1.37023e-08
5.88077e-09
2.36521e-09
8.76684e-10
2.92147e-10
8.42735e-11
1.97937e-11
3.40233e-12
3.48246e-13
1.34924e-14
6.59073e-17
3.24811e-05
3.23363e-05
3.2081e-05
3.17419e-05
3.13419e-05
3.09006e-05
3.0434e-05
2.99545e-05
2.94738e-05
2.9e-05
2.8538e-05
2.80941e-05
2.76712e-05
2.72657e-05
2.68709e-05
2.64735e-05
2.60571e-05
2.55883e-05
2.49781e-05
2.42475e-05
2.34615e-05
2.26084e-05
2.16742e-05
2.06451e-05
1.95108e-05
1.82656e-05
1.69105e-05
1.5448e-05
1.38903e-05
1.22532e-05
1.05584e-05
8.83708e-06
7.1348e-06
5.51667e-06
4.05677e-06
2.82175e-06
1.8515e-06
1.14691e-06
6.73231e-07
3.7642e-07
2.01451e-07
1.03527e-07
5.1136e-08
2.42353e-08
1.09718e-08
4.70892e-09
1.89409e-09
7.02157e-10
2.3402e-10
6.75143e-11
1.5859e-11
2.72616e-12
2.79049e-13
1.08116e-14
5.28127e-17
2.65391e-05
2.64123e-05
2.61884e-05
2.58899e-05
2.55359e-05
2.51425e-05
2.4723e-05
2.42873e-05
2.38452e-05
2.34037e-05
2.29654e-05
2.2538e-05
2.21242e-05
2.17242e-05
2.13334e-05
2.09442e-05
2.05467e-05
2.01213e-05
1.95986e-05
1.89579e-05
1.82817e-05
1.75623e-05
1.67899e-05
1.59546e-05
1.50485e-05
1.4067e-05
1.30097e-05
1.18783e-05
1.068e-05
9.42539e-06
8.12982e-06
6.81577e-06
5.51667e-06
4.27915e-06
3.15784e-06
2.20397e-06
1.45031e-06
9.00319e-07
5.29221e-07
2.96148e-07
1.5857e-07
8.15198e-08
4.02791e-08
1.90966e-08
8.64869e-09
3.71328e-09
1.49414e-09
5.54065e-10
1.84711e-10
5.32997e-11
1.25218e-11
2.15273e-12
2.20366e-13
8.5382e-15
4.17078e-17
2.13702e-05
2.12613e-05
2.10688e-05
2.08114e-05
2.0505e-05
2.0163e-05
1.97962e-05
1.94126e-05
1.90204e-05
1.86252e-05
1.82273e-05
1.78349e-05
1.74509e-05
1.70766e-05
1.67089e-05
1.63359e-05
1.59524e-05
1.55383e-05
1.50104e-05
1.44535e-05
1.38746e-05
1.32692e-05
1.26308e-05
1.19527e-05
1.12296e-05
1.04587e-05
9.63982e-06
8.77471e-06
7.86872e-06
6.9299e-06
5.96967e-06
5.00428e-06
4.05677e-06
3.15784e-06
2.34321e-06
1.64702e-06
1.09234e-06
6.83271e-07
4.04284e-07
2.27406e-07
1.22227e-07
6.30067e-08
3.11921e-08
1.48094e-08
6.71428e-09
2.88519e-09
1.16171e-09
4.31019e-10
1.43749e-10
4.14925e-11
9.75006e-12
1.67645e-12
1.71626e-13
6.64998e-15
3.24844e-17
1.6924e-05
1.68322e-05
1.66694e-05
1.64516e-05
1.61917e-05
1.59007e-05
1.55873e-05
1.52582e-05
1.492e-05
1.45772e-05
1.42238e-05
1.38713e-05
1.35234e-05
1.31818e-05
1.28441e-05
1.24665e-05
1.20493e-05
1.16187e-05
1.11625e-05
1.06887e-05
1.02021e-05
9.70064e-06
9.18012e-06
8.6366e-06
8.06705e-06
7.47012e-06
6.84637e-06
6.19794e-06
5.52936e-06
4.84717e-06
4.16016e-06
3.47998e-06
2.82175e-06
2.20397e-06
1.64702e-06
1.17002e-06
7.86227e-07
4.98694e-07
2.98926e-07
1.69973e-07
9.21164e-08
4.77685e-08
2.37464e-08
1.13067e-08
5.13654e-09
2.2104e-09
8.90957e-10
3.30824e-10
1.10398e-10
3.18792e-11
7.49332e-12
1.28867e-12
1.31941e-13
5.11259e-15
2.49747e-17
1.31327e-05
1.30559e-05
1.29197e-05
1.27373e-05
1.25193e-05
1.22746e-05
1.20103e-05
1.17319e-05
1.14447e-05
1.11526e-05
1.08215e-05
1.04811e-05
1.01397e-05
9.79867e-06
9.45674e-06
9.10846e-06
8.75222e-06
8.38778e-06
8.00788e-06
7.61807e-06
7.22226e-06
6.81943e-06
6.4074e-06
5.98405e-06
5.54799e-06
5.09898e-06
4.63813e-06
4.16768e-06
3.6914e-06
3.21444e-06
2.74328e-06
2.28587e-06
1.8515e-06
1.45031e-06
1.09234e-06
7.86227e-07
5.37712e-07
3.47995e-07
2.12813e-07
1.23166e-07
6.76972e-08
3.5472e-08
1.77619e-08
8.49877e-09
3.8737e-09
1.67073e-09
6.74488e-10
2.50726e-10
8.37358e-11
2.41939e-11
5.68908e-12
9.78633e-13
1.00213e-13
3.88338e-15
1.89704e-17
9.84524e-06
9.77772e-06
9.65792e-06
9.49702e-06
9.30407e-06
9.08645e-06
8.85007e-06
8.59937e-06
8.33867e-06
8.07118e-06
7.79374e-06
7.51316e-06
7.23171e-06
6.95073e-06
6.66957e-06
6.38501e-06
6.09622e-06
5.80326e-06
5.50179e-06
5.1959e-06
4.88859e-06
4.57967e-06
4.2681e-06
3.95294e-06
3.63377e-06
3.31093e-06
2.98563e-06
2.65979e-06
2.33624e-06
2.01859e-06
1.71116e-06
1.41886e-06
1.14691e-06
9.00319e-07
6.83271e-07
4.98694e-07
3.47995e-07
2.30853e-07
1.44967e-07
8.60295e-08
4.82984e-08
2.57233e-08
1.30311e-08
6.2845e-09
2.8794e-09
1.24614e-09
5.0423e-10
1.87729e-10
6.27641e-11
1.81481e-11
4.26962e-12
7.34699e-13
7.52476e-14
2.91619e-15
1.42459e-17
6.96907e-06
6.91572e-06
6.82109e-06
6.69406e-06
6.54182e-06
6.3702e-06
6.18389e-06
5.98645e-06
5.78129e-06
5.57103e-06
5.35396e-06
5.13495e-06
4.91575e-06
4.69751e-06
4.47998e-06
4.26131e-06
4.04116e-06
3.81974e-06
3.59458e-06
3.36861e-06
3.14406e-06
2.92109e-06
2.69929e-06
2.47832e-06
2.25817e-06
2.0393e-06
1.82266e-06
1.6096e-06
1.40195e-06
1.20191e-06
1.01199e-06
8.34885e-07
6.73231e-07
5.29221e-07
4.04284e-07
2.98926e-07
2.12813e-07
1.44967e-07
9.38817e-08
5.75046e-08
3.32309e-08
1.81228e-08
9.34457e-09
4.56225e-09
2.10729e-09
9.16757e-10
3.72195e-10
1.38876e-10
4.64989e-11
1.34584e-11
3.16839e-12
5.45434e-13
5.58766e-14
2.16569e-15
1.05798e-17
4.67913e-06
4.63915e-06
4.56829e-06
4.4733e-06
4.35963e-06
4.23172e-06
4.09314e-06
3.94663e-06
3.79479e-06
3.63962e-06
3.48029e-06
3.32019e-06
3.16061e-06
3.00245e-06
2.84567e-06
2.68923e-06
2.53306e-06
2.37741e-06
2.2209e-06
2.06552e-06
1.91282e-06
1.76299e-06
1.6159e-06
1.47142e-06
1.32962e-06
1.19085e-06
1.05568e-06
9.24894e-07
7.99505e-07
6.80679e-07
5.69701e-07
4.67887e-07
3.7642e-07
2.96148e-07
2.27406e-07
1.69973e-07
1.23166e-07
8.60295e-08
5.75046e-08
3.65016e-08
2.18614e-08
1.23088e-08
6.51079e-09
3.23829e-09
1.51461e-09
6.64237e-10
2.71038e-10
1.01453e-10
3.4038e-11
9.8649e-12
2.32443e-12
4.00366e-13
4.10279e-14
1.59039e-15
7.76959e-18
2.95501e-06
2.92699e-06
2.87741e-06
2.81107e-06
2.73187e-06
2.64299e-06
2.54701e-06
2.4459e-06
2.34151e-06
2.23528e-06
2.12685e-06
2.01846e-06
1.911e-06
1.80509e-06
1.70078e-06
1.5975e-06
1.49526e-06
1.39425e-06
1.29375e-06
1.19499e-06
1.09892e-06
1.00569e-06
9.15224e-07
8.27454e-07
7.42417e-07
6.60286e-07
5.81353e-07
5.06002e-07
4.34715e-07
3.68039e-07
3.06566e-07
2.50875e-07
2.01451e-07
1.5857e-07
1.22227e-07
9.21164e-08
6.76972e-08
4.82984e-08
3.32309e-08
2.18614e-08
1.36238e-08
7.97809e-09
4.36812e-09
2.23207e-09
1.06417e-09
4.7259e-10
1.9435e-10
7.30951e-11
2.45958e-11
7.14149e-12
1.68469e-12
2.90385e-13
2.97695e-14
1.15417e-15
5.63872e-18
1.74408e-06
1.72597e-06
1.69396e-06
1.65123e-06
1.60036e-06
1.54347e-06
1.48225e-06
1.41802e-06
1.35201e-06
1.28514e-06
1.21731e-06
1.14986e-06
1.08337e-06
1.01823e-06
9.54466e-07
8.91788e-07
8.30216e-07
7.69869e-07
7.10363e-07
6.52405e-07
5.96519e-07
5.42777e-07
4.91125e-07
4.41508e-07
3.93926e-07
3.48443e-07
3.05181e-07
2.64303e-07
2.26017e-07
1.90556e-07
1.58172e-07
1.29102e-07
1.03527e-07
8.15198e-08
6.30067e-08
4.77685e-08
3.5472e-08
2.57233e-08
1.81228e-08
1.23088e-08
7.97809e-09
4.8798e-09
2.78846e-09
1.47862e-09
7.25255e-10
3.28444e-10
1.36757e-10
5.18199e-11
1.75141e-11
5.09872e-12
1.20474e-12
2.07859e-13
2.13207e-14
8.268e-16
4.03953e-18
9.58863e-07
9.48142e-07
9.29227e-07
9.04034e-07
8.74125e-07
8.4078e-07
8.05031e-07
7.67674e-07
7.29437e-07
6.90882e-07
6.51972e-07
6.1348e-07
5.75724e-07
5.38928e-07
5.0311e-07
4.68112e-07
4.33948e-07
4.00679e-07
3.68108e-07
3.36604e-07
3.06434e-07
2.77625e-07
2.50137e-07
2.23927e-07
1.9898e-07
1.75312e-07
1.52968e-07
1.3201e-07
1.1252e-07
9.45932e-08
7.83296e-08
6.38227e-08
5.1136e-08
4.02791e-08
3.11921e-08
2.37464e-08
1.77619e-08
1.30311e-08
9.34457e-09
6.51079e-09
4.36812e-09
2.78846e-09
1.67097e-09
9.28264e-10
4.73784e-10
2.21049e-10
9.38865e-11
3.60086e-11
1.22556e-11
3.58215e-12
8.48363e-13
1.4657e-13
1.50451e-14
5.8362e-16
2.85159e-18
4.90783e-07
4.84986e-07
4.74772e-07
4.61193e-07
4.4511e-07
4.27228e-07
4.08116e-07
3.88209e-07
3.67906e-07
3.47508e-07
3.2701e-07
3.06812e-07
2.87082e-07
2.67931e-07
2.4937e-07
2.31317e-07
2.13777e-07
1.96777e-07
1.80222e-07
1.6429e-07
1.49108e-07
1.34683e-07
1.20989e-07
1.07999e-07
9.56995e-08
8.40911e-08
7.31873e-08
6.30104e-08
5.35917e-08
4.49683e-08
3.71797e-08
3.02616e-08
2.42353e-08
1.90966e-08
1.48094e-08
1.13067e-08
8.49877e-09
6.2845e-09
4.56225e-09
3.23829e-09
2.23207e-09
1.47862e-09
9.28264e-10
5.43293e-10
2.91805e-10
1.4212e-10
6.22796e-11
2.43689e-11
8.39093e-12
2.46831e-12
5.86626e-13
1.01548e-13
1.04344e-14
4.04937e-16
1.97871e-18
2.33934e-07
2.31065e-07
2.26013e-07
2.19306e-07
2.11377e-07
2.0258e-07
1.93198e-07
1.8345e-07
1.73535e-07
1.63599e-07
1.53646e-07
1.43866e-07
1.34341e-07
1.25123e-07
1.16215e-07
1.07579e-07
9.92158e-08
9.11371e-08
8.32973e-08
7.57783e-08
6.86369e-08
6.18742e-08
5.54759e-08
4.94272e-08
4.37192e-08
3.83499e-08
3.33231e-08
2.86463e-08
2.43313e-08
2.03923e-08
1.68448e-08
1.37023e-08
1.09718e-08
8.64869e-09
6.71428e-09
5.13654e-09
3.8737e-09
2.8794e-09
2.10729e-09
1.51461e-09
1.06417e-09
7.25255e-10
4.73784e-10