/*--------------------------------*- C++ -*----------------------------------*\
  =========                 |
  \\      /  F ield         | OpenFOAM: The Open Source CFD Toolbox
   \\    /   O peration     | Website:  https://openfoam.org
    \\  /    A nd           | Version:  7
     \\/     M anipulation  |
\*---------------------------------------------------------------------------*/
FoamFile
{
    version     2.0;
    format      ascii;
    class       volScalarField;
    location    "405";
    object      omega;
}
// * * * * * * * * * * * * * * * * * * * * * * * * * * * * * * * * * * * * * //

dimensions      [0 0 -1 0 0 0 0];

internalField   nonuniform List<scalar> 
3025
(
49023.2
51005.1
54542.9
59369.1
65344.3
72428
80653.7
90107.5
100913
113221
127203
143051
160977
181219
204046
229770
258754
291426
328295
369966
417204
470916
532090
601853
681557
772845
877696
998475
1.13797e+06
1.29946e+06
1.48676e+06
1.70428e+06
1.95716e+06
2.25146e+06
2.59452e+06
2.99582e+06
3.46857e+06
4.03245e+06
4.71724e+06
5.56692e+06
6.65044e+06
8.07997e+06
1.00329e+07
1.27837e+07
1.67598e+07
2.26493e+07
3.1619e+07
4.57763e+07
6.92211e+07
1.10691e+08
1.91165e+08
3.69941e+08
8.59576e+08
2.76451e+09
1.69758e+10
51005.1
53005.9
56566.9
61406.5
67372.3
74413.1
82554.9
91879.4
102510
114599
128326
143891
161515
181447
203966
229390
258086
290485
327094
368513
415464
468862
529770
599332
678894
770079
874845
995538
1.13493e+06
1.29629e+06
1.4834e+06
1.70068e+06
1.95324e+06
2.24712e+06
2.58965e+06
2.99032e+06
3.46232e+06
4.02541e+06
4.70937e+06
5.55825e+06
6.64116e+06
8.07048e+06
1.00237e+07
1.27753e+07
1.67526e+07
2.26434e+07
3.16143e+07
4.57729e+07
6.92187e+07
1.1069e+08
1.91164e+08
3.69941e+08
8.59576e+08
2.76451e+09
1.69758e+10
54542.9
56566.9
60155.8
65006.8
70948.5
77913.9
85916.9
95031.9
105379
117114
130422
145515
162629
182027
204005
228894
257072
288975
325110
366077
412585
465482
525850
594957
674175
765107
869676
990189
1.12939e+06
1.29049e+06
1.47728e+06
1.69413e+06
1.94612e+06
2.23925e+06
2.58085e+06
2.98039e+06
3.45109e+06
4.01277e+06
4.69527e+06
5.54273e+06
6.6246e+06
8.05356e+06
1.00073e+07
1.27603e+07
1.67397e+07
2.26328e+07
3.16061e+07
4.57669e+07
6.92145e+07
1.10687e+08
1.91162e+08
3.6994e+08
8.59575e+08
2.76451e+09
1.69758e+10
59369.1
61406.5
65006.8
69848.4
75741.1
82602.1
90432.1
99296.2
109309
120624
133431
147948
164426
183144
204414
228587
256056
287269
322741
363072
408969
461271
520980
589367
667948
758380
862563
982755
1.12164e+06
1.28239e+06
1.46873e+06
1.68499e+06
1.93622e+06
2.22836e+06
2.56871e+06
2.96671e+06
3.43566e+06
3.99546e+06
4.67601e+06
5.52161e+06
6.60211e+06
8.03067e+06
9.98522e+06
1.27402e+07
1.67223e+07
2.26187e+07
3.15952e+07
4.57588e+07
6.92089e+07
1.10683e+08
1.9116e+08
3.69939e+08
8.59575e+08
2.76451e+09
1.69758e+10
65344.3
67372.3
70948.5
75741.1
81547.8
88272.5
95904.5
104499
114163
125044
137329
151236
167021
184978
205435
228761
255370
285725
320357
359873
404984
456525
515486
583056
660741
750353
853869
973520
1.11193e+06
1.27219e+06
1.45796e+06
1.6735e+06
1.92379e+06
2.21473e+06
2.55357e+06
2.94974e+06
3.41658e+06
3.97414e+06
4.65239e+06
5.49579e+06
6.57474e+06
8.00291e+06
9.95853e+06
1.2716e+07
1.67015e+07
2.26017e+07
3.1582e+07
4.57491e+07
6.92021e+07
1.10679e+08
1.91157e+08
3.69937e+08
8.59574e+08
2.76451e+09
1.69758e+10
72428
74413.1
77913.9
82602.1
88272.5
94821.9
102230
110543
119861
130324
142107
155420
170512
187682
207271
229666
255301
284661
318293
356823
400967
451566
509606
576264
652948
741464
843971
962777
1.10047e+06
1.26005e+06
1.4451e+06
1.65978e+06
1.90899e+06
2.19856e+06
2.53568e+06
2.92977e+06
3.39423e+06
3.94928e+06
4.62497e+06
5.46596e+06
6.54325e+06
7.97112e+06
9.9281e+06
1.26884e+07
1.66779e+07
2.25825e+07
3.15671e+07
4.57382e+07
6.91945e+07
1.10674e+08
1.91154e+08
3.69936e+08
8.59574e+08
2.76451e+09
1.69758e+10
80653.7
82554.9
85916.9
90432.1
95904.5
102230
109381
117396
126371
136441
147768
160535
174971
191367
210076
231498
256086
284345
316844
354228
397231
446702
503633
569195
644781
732067
833239
950847
1.08751e+06
1.24618e+06
1.43031e+06
1.64397e+06
1.89194e+06
2.17998e+06
2.51519e+06
2.90701e+06
3.36888e+06
3.92122e+06
4.59417e+06
5.43264e+06
6.50828e+06
7.936e+06
9.89463e+06
1.26582e+07
1.66521e+07
2.25615e+07
3.1551e+07
4.57263e+07
6.91863e+07
1.10669e+08
1.91151e+08
3.69934e+08
8.59573e+08
2.76451e+09
1.69758e+10
90107.5
91879.4
95031.9
99296.2
104499
110543
117396
125089
133712
143414
154335
166617
180447
196106
213954
234395
257898
284988
316253
352359
394060
442222
497849
562114
636408
722387
822094
938120
1.07336e+06
1.23077e+06
1.41373e+06
1.62616e+06
1.87273e+06
2.15907e+06
2.49222e+06
2.8816e+06
3.34071e+06
3.8902e+06
4.56033e+06
5.39623e+06
6.47028e+06
7.89805e+06
9.85865e+06
1.26259e+07
1.66246e+07
2.25393e+07
3.15338e+07
4.57137e+07
6.91776e+07
1.10663e+08
1.91148e+08
3.69932e+08
8.59572e+08
2.76451e+09
1.69758e+10
100913
102510
105379
109309
114163
119861
126371
133712
141991
151339
161850
173654
186938
201940
218969
238445
260861
286753
316723
351454
391721
438413
492548
555313
628101
712559
810661
924909
1.05833e+06
1.21411e+06
1.39557e+06
1.60652e+06
1.85148e+06
2.13596e+06
2.4669e+06
2.85368e+06
3.30991e+06
3.85647e+06
4.52373e+06
5.3571e+06
6.4297e+06
7.85776e+06
9.82067e+06
1.2592e+07
1.65958e+07
2.2516e+07
3.15159e+07
4.57006e+07
6.91685e+07
1.10657e+08
1.91144e+08
3.69931e+08
8.59571e+08
2.76451e+09
1.69758e+10
113221
114599
117114
120624
125044
130324
136441
143414
151339
160300
170376
181693
194427
208808
225117
243710
265069
289769
318419
351715
390453
435538
488013
549083
620149
702862
799178
911438
1.04271e+06
1.19647e+06
1.37608e+06
1.58526e+06
1.82839e+06
2.11081e+06
2.43938e+06
2.82345e+06
3.2767e+06
3.82026e+06
4.48467e+06
5.31558e+06
6.38691e+06
7.81554e+06
9.78108e+06
1.25568e+07
1.6566e+07
2.24921e+07
3.14975e+07
4.56872e+07
6.91592e+07
1.10651e+08
1.91141e+08
3.69929e+08
8.5957e+08
2.76451e+09
1.69758e+10
127203
128326
130422
133431
137329
142107
147768
154335
161850
170376
179986
190798
202982
216755
232386
250200
270602
294143
321482
353320
390464
433839
484509
543698
612830
693564
787857
898032
1.02698e+06
1.17824e+06
1.35553e+06
1.56255e+06
1.80355e+06
2.08374e+06
2.40984e+06
2.79121e+06
3.24162e+06
3.78222e+06
4.4436e+06
5.27202e+06
6.34219e+06
7.77163e+06
9.7401e+06
1.25205e+07
1.65355e+07
2.24675e+07
3.14787e+07
4.56735e+07
6.91498e+07
1.10645e+08
1.91137e+08
3.69927e+08
8.5957e+08
2.76451e+09
1.69758e+10
143051
143891
145515
147948
151236
155420
160535
166617
173654
181693
190798
201084
212710
225881
240850
257925
277478
299970
326032
356421
391947
433549
482307
539469
606479
685016
777044
884875
1.01126e+06
1.15972e+06
1.33428e+06
1.53874e+06
1.77727e+06
2.05495e+06
2.37841e+06
2.75696e+06
3.20452e+06
3.74215e+06
4.40053e+06
5.22658e+06
6.29582e+06
7.72638e+06
9.69811e+06
1.24834e+07
1.65044e+07
2.24426e+07
3.14597e+07
4.56596e+07
6.91402e+07
1.10639e+08
1.91133e+08
3.69925e+08
8.59569e+08
2.76451e+09
1.69758e+10
160977
161515
162629
164426
167021
170512
174971
180447
186938
194427
202982
212710
223760
236323
250634
266983
285722
307276
332178
361150
395065
434864
481638
536655
601380
677514
767039
872273
995949
1.14142e+06
1.31275e+06
1.51414e+06
1.74977e+06
2.02461e+06
2.34516e+06
2.72073e+06
3.16536e+06
3.70005e+06
4.3555e+06
5.17938e+06
6.24798e+06
7.68e+06
9.65532e+06
1.24459e+07
1.6473e+07
2.24176e+07
3.14406e+07
4.56457e+07
6.91306e+07
1.10633e+08
1.9113e+08
3.69923e+08
8.59568e+08
2.76451e+09
1.69758e+10
181219
181447
182027
183144
184978
187682
191367
196106
201940
208808
216755
225881
236323
248255
261897
277518
295451
316099
339953
367630
399964
437962
482719
535512
597827
671387
758196
860587
981289
1.12351e+06
1.2913e+06
1.48918e+06
1.72146e+06
1.99305e+06
2.31039e+06
2.68276e+06
3.12435e+06
3.65609e+06
4.30871e+06
5.13061e+06
6.19889e+06
7.63271e+06
9.61195e+06
1.24081e+07
1.64415e+07
2.23925e+07
3.14215e+07
4.56319e+07
6.91211e+07
1.10626e+08
1.91126e+08
3.69921e+08
8.59567e+08
2.76451e+09
1.69758e+10
204046
203966
204005
204414
205435
207271
210076
213954
218969
225117
232386
240850
250634
261897
274839
289714
306833
326577
349412
375909
406784
443007
485740
536264
596075
666917
750817
850130
967599
1.10642e+06
1.27047e+06
1.46433e+06
1.69273e+06
1.96063e+06
2.2744e+06
2.64332e+06
3.08173e+06
3.61048e+06
4.26034e+06
5.08046e+06
6.14869e+06
7.58466e+06
9.56813e+06
1.237e+07
1.64099e+07
2.23674e+07
3.14025e+07
4.56181e+07
6.91116e+07
1.1062e+08
1.91122e+08
3.69919e+08
8.59566e+08
2.76451e+09
1.69758e+10
229770
229390
228894
228587
228761
229666
231498
234395
238445
243710
250200
257925
266983
277518
289714
303805
320083
338906
360718
386059
415594
450163
490892
539133
596384
664401
745235
841266
955257
1.09041e+06
1.25047e+06
1.44e+06
1.66408e+06
1.92785e+06
2.23775e+06
2.6031e+06
3.03818e+06
3.56369e+06
4.2107e+06
5.02912e+06
6.09753e+06
7.53593e+06
9.52391e+06
1.23317e+07
1.63782e+07
2.23424e+07
3.13835e+07
4.56043e+07
6.91022e+07
1.10614e+08
1.91119e+08
3.69917e+08
8.59565e+08
2.76451e+09
1.69758e+10
258754
258086
257072
256056
255370
255301
256086
257898
260861
265069
270602
277478
285722
295451
306833
320083
335471
353338
374100
398274
426490
459526
498371
544339
599002
664120
741759
834324
944609
1.07585e+06
1.23177e+06
1.41678e+06
1.63606e+06
1.89522e+06
2.20083e+06
2.56239e+06
2.99392e+06
3.51589e+06
4.15995e+06
4.97675e+06
6.04556e+06
7.48667e+06
9.47941e+06
1.22934e+07
1.63466e+07
2.23174e+07
3.13646e+07
4.55907e+07
6.90928e+07
1.10608e+08
1.91115e+08
3.69915e+08
8.59565e+08
2.76451e+09
1.69758e+10
291426
290485
288975
287269
285725
284661
284345
284988
286753
289769
294143
299970
307276
316099
326577
338906
353338
370188
389855
412826
439702
471225
508309
552119
604194
666371
740720
829670
936048
1.06312e+06
1.21466e+06
1.395e+06
1.60927e+06
1.86336e+06
2.16424e+06
2.52156e+06
2.94912e+06
3.46726e+06
4.10826e+06
4.92351e+06
5.99293e+06
7.43701e+06
9.43475e+06
1.2255e+07
1.63151e+07
2.22926e+07
3.13459e+07
4.55772e+07
6.90835e+07
1.10602e+08
1.91112e+08
3.69913e+08
8.59564e+08
2.76451e+09
1.69758e+10
328295
327094
325110
322741
320357
318293
316844
316253
316723
318419
321482
326032
332178
339953
349412
360718
374100
389855
408353
430062
455552
485530
520869
562646
612243
671463
742457
827665
929942
1.0526e+06
1.19947e+06
1.37494e+06
1.58409e+06
1.83292e+06
2.12879e+06
2.48133e+06
2.90417e+06
3.41802e+06
4.05575e+06
4.86947e+06
5.9397e+06
7.38701e+06
9.38999e+06
1.22168e+07
1.62838e+07
2.2268e+07
3.13273e+07
4.55638e+07
6.90744e+07
1.10596e+08
1.91108e+08
3.69912e+08
8.59563e+08
2.76451e+09
1.69758e+10
369966
368513
366077
363072
359873
356823
354228
352359
351454
351715
353320
356421
361150
367630
375909
386059
398274
412826
430062
450417
474448
502820
536369
576127
623373
679742
747352
828731
926754
1.04478e+06
1.18668e+06
1.35694e+06
1.56071e+06
1.80407e+06
2.09442e+06
2.44149e+06
2.85908e+06
3.36832e+06
4.00267e+06
4.81498e+06
5.88623e+06
7.33703e+06
9.34545e+06
1.21788e+07
1.62528e+07
2.22437e+07
3.13091e+07
4.55507e+07
6.90654e+07
1.10591e+08
1.91105e+08
3.6991e+08
8.59562e+08
2.76451e+09
1.69758e+10
417204
415464
412585
408969
404984
400967
397231
394060
391721
390453
390464
391947
395065
399964
406784
415594
426490
439702
455552
474448
496901
523576
555256
592932
637829
691474
755798
833293
926938
1.04012e+06
1.17678e+06
1.34145e+06
1.5394e+06
1.77676e+06
2.06106e+06
2.40215e+06
2.81409e+06
3.31846e+06
3.94939e+06
4.7604e+06
5.83291e+06
7.28743e+06
9.30144e+06
1.21415e+07
1.62224e+07
2.22199e+07
3.12912e+07
4.55378e+07
6.90566e+07
1.10585e+08
1.91101e+08
3.69908e+08
8.59562e+08
2.76451e+09
1.69758e+10
470916
468862
465482
461271
456525
451566
446702
442222
438413
435538
433839
433549
434864
437962
443007
450163
459526
471225
485530
502820
523576
548400
578092
613578
656038
706946
768103
841785
930939
1.03908e+06
1.17019e+06
1.3289e+06
1.52054e+06
1.75137e+06
2.02905e+06
2.36364e+06
2.76952e+06
3.26878e+06
3.89624e+06
4.70609e+06
5.78006e+06
7.23848e+06
9.2582e+06
1.21049e+07
1.61928e+07
2.21968e+07
3.12739e+07
4.55254e+07
6.90481e+07
1.10579e+08
1.91098e+08
3.69906e+08
8.59561e+08
2.76451e+09
1.69758e+10
532090
529770
525850
520980
515486
509606
503633
497849
492548
488013
484509
482307
481638
482719
485740
490892
498371
508309
520869
536369
555256
578092
605588
638728
678604
726672
784621
854568
939248
1.04215e+06
1.16742e+06
1.31976e+06
1.5046e+06
1.72835e+06
1.99884e+06
2.32639e+06
2.72577e+06
3.21966e+06
3.84358e+06
4.65237e+06
5.72798e+06
7.19045e+06
9.21594e+06
1.20693e+07
1.61639e+07
2.21743e+07
3.12571e+07
4.55133e+07
6.90399e+07
1.10574e+08
1.91095e+08
3.69905e+08
8.5956e+08
2.76451e+09
1.69758e+10
601853
599332
594957
589367
583056
576264
569195
562114
555313
549083
543698
539469
536655
535512
536264
539133
544339
552119
562646
576127
592932
613578
638728
669220
706316
751400
805997
872081
952281
1.04987e+06
1.16898e+06
1.31454e+06
1.49208e+06
1.70818e+06
1.97088e+06
2.29081e+06
2.68324e+06
3.17148e+06
3.79181e+06
4.59961e+06
5.677e+06
7.14362e+06
9.17487e+06
1.20348e+07
1.61361e+07
2.21527e+07
3.12409e+07
4.55017e+07
6.9032e+07
1.10569e+08
1.91092e+08
3.69903e+08
8.59559e+08
2.76451e+09
1.69758e+10
681557
678894
674175
667948
660741
652948
644781
636408
628101
620149
612830
606479
601380
597827
596075
596384
599002
604194
612243
623373
637829
656038
678604
706316
740287
782162
833140
895089
970557
1.0627e+06
1.17545e+06
1.31376e+06
1.48347e+06
1.69131e+06
1.9456e+06
2.25735e+06
2.64236e+06
3.12468e+06
3.74132e+06
4.5482e+06
5.62747e+06
7.09828e+06
9.13526e+06
1.20016e+07
1.61093e+07
2.21319e+07
3.12254e+07
4.54906e+07
6.90244e+07
1.10564e+08
1.91089e+08
3.69902e+08
8.59559e+08
2.76451e+09
1.69758e+10
772845
770079
765107
758380
750353
741464
732067
722387
712559
702862
693564
685016
677514
671387
666917
664401
664120
666371
671463
679742
691474
706946
726672
751400
782162
820331
867201
924604
994942
1.08126e+06
1.18734e+06
1.31801e+06
1.47928e+06
1.67823e+06
1.92346e+06
2.22642e+06
2.60355e+06
3.07968e+06
3.69256e+06
4.49857e+06
5.57977e+06
7.05476e+06
9.09735e+06
1.19699e+07
1.60838e+07
2.21122e+07
3.12106e+07
4.54801e+07
6.90172e+07
1.1056e+08
1.91087e+08
3.699e+08
8.59558e+08
2.76451e+09
1.69758e+10
877696
874845
869676
862563
853869
843971
833239
822094
810661
799178
787857
777044
767039
758196
750817
745235
741759
740720
742457
747352
755798
768103
784621
805997
833140
867201
909541
961901
1.02658e+06
1.10652e+06
1.20541e+06
1.32792e+06
1.48012e+06
1.66949e+06
1.90495e+06
2.19849e+06
2.56726e+06
3.03692e+06
3.64597e+06
4.45114e+06
5.53428e+06
7.01339e+06
9.06141e+06
1.194e+07
1.60598e+07
2.20936e+07
3.11968e+07
4.54702e+07
6.90105e+07
1.10555e+08
1.91084e+08
3.69899e+08
8.59558e+08
2.76451e+09
1.69758e+10
998475
995538
990189
982755
973520
962777
950847
938120
924909
911438
898032
884875
872273
860587
850130
841266
834324
829670
827665
828731
833293
841785
854568
872081
895089
924604
961901
1.00864e+06
1.06702e+06
1.13986e+06
1.23081e+06
1.34445e+06
1.48688e+06
1.6658e+06
1.89068e+06
2.17409e+06
2.53398e+06
2.99689e+06
3.60202e+06
4.40634e+06
5.4914e+06
6.97447e+06
9.0277e+06
1.19119e+07
1.60373e+07
2.20762e+07
3.11838e+07
4.54609e+07
6.90042e+07
1.10551e+08
1.91082e+08
3.69898e+08
8.59557e+08
2.76451e+09
1.69758e+10
1.13797e+06
1.13493e+06
1.12939e+06
1.12164e+06
1.11193e+06
1.10047e+06
1.08751e+06
1.07336e+06
1.05833e+06
1.04271e+06
1.02698e+06
1.01126e+06
995949
981289
967599
955257
944609
936048
929942
926754
926938
930939
939248
952281
970557
994942
1.02658e+06
1.06702e+06
1.11831e+06
1.18321e+06
1.26525e+06
1.36905e+06
1.50071e+06
1.66821e+06
1.88155e+06
2.15398e+06
2.50438e+06
2.9602e+06
3.56127e+06
4.36466e+06
5.45152e+06
6.93835e+06
8.99645e+06
1.1886e+07
1.60165e+07
2.20601e+07
3.11719e+07
4.54524e+07
6.89984e+07
1.10548e+08
1.91079e+08
3.69897e+08
8.59557e+08
2.76451e+09
1.69758e+10
1.29946e+06
1.29629e+06
1.29049e+06
1.28239e+06
1.27219e+06
1.26005e+06
1.24618e+06
1.23077e+06
1.21411e+06
1.19647e+06
1.17824e+06
1.15972e+06
1.14142e+06
1.12351e+06
1.10642e+06
1.09041e+06
1.07585e+06
1.06312e+06
1.0526e+06
1.04478e+06
1.04012e+06
1.03908e+06
1.04215e+06
1.04987e+06
1.0627e+06
1.08126e+06
1.10652e+06
1.13986e+06
1.18321e+06
1.23916e+06
1.31115e+06
1.40387e+06
1.52355e+06
1.67842e+06
1.879e+06
2.1394e+06
2.47952e+06
2.92774e+06
3.52446e+06
4.32671e+06
5.41511e+06
6.90535e+06
8.96793e+06
1.18623e+07
1.59976e+07
2.20455e+07
3.1161e+07
4.54446e+07
6.89931e+07
1.10544e+08
1.91077e+08
3.69895e+08
8.59556e+08
2.76451e+09
1.69758e+10
1.48676e+06
1.4834e+06
1.47728e+06
1.46873e+06
1.45796e+06
1.4451e+06
1.43031e+06
1.41373e+06
1.39557e+06
1.37608e+06
1.35553e+06
1.33428e+06
1.31275e+06
1.2913e+06
1.27047e+06
1.25047e+06
1.23177e+06
1.21466e+06
1.19947e+06
1.18668e+06
1.17678e+06
1.17019e+06
1.16742e+06
1.16898e+06
1.17545e+06
1.18734e+06
1.20541e+06
1.23081e+06
1.26525e+06
1.31115e+06
1.37189e+06
1.45218e+06
1.55845e+06
1.69916e+06
1.88544e+06
2.13243e+06
2.46118e+06
2.90102e+06
3.4928e+06
4.29341e+06
5.38284e+06
6.87595e+06
8.94243e+06
1.18411e+07
1.59806e+07
2.20324e+07
3.11512e+07
4.54376e+07
6.89883e+07
1.10541e+08
1.91076e+08
3.69895e+08
8.59556e+08
2.76451e+09
1.69758e+10
1.70428e+06
1.70068e+06
1.69413e+06
1.68499e+06
1.6735e+06
1.65978e+06
1.64397e+06
1.62616e+06
1.60652e+06
1.58526e+06
1.56255e+06
1.53874e+06
1.51414e+06
1.48918e+06
1.46433e+06
1.44e+06
1.41678e+06
1.395e+06
1.37494e+06
1.35694e+06
1.34145e+06
1.3289e+06
1.31976e+06
1.31454e+06
1.31376e+06
1.31801e+06
1.32792e+06
1.34445e+06
1.36905e+06
1.40387e+06
1.45218e+06
1.51872e+06
1.60997e+06
1.73469e+06
1.90479e+06
2.13662e+06
2.45247e+06
2.88264e+06
3.46837e+06
4.26633e+06
5.35582e+06
6.85089e+06
8.92042e+06
1.18226e+07
1.59657e+07
2.20208e+07
3.11426e+07
4.54314e+07
6.89841e+07
1.10538e+08
1.91074e+08
3.69894e+08
8.59555e+08
2.76451e+09
1.69758e+10
1.95716e+06
1.95324e+06
1.94612e+06
1.93622e+06
1.92379e+06
1.90899e+06
1.89194e+06
1.87273e+06
1.85148e+06
1.82839e+06
1.80355e+06
1.77727e+06
1.74977e+06
1.72146e+06
1.69273e+06
1.66408e+06
1.63606e+06
1.60927e+06
1.58409e+06
1.56071e+06
1.5394e+06
1.52054e+06
1.5046e+06
1.49208e+06
1.48347e+06
1.47928e+06
1.48012e+06
1.48688e+06
1.50071e+06
1.52355e+06
1.55845e+06
1.60997e+06
1.68458e+06
1.79141e+06
1.94331e+06
2.1579e+06
2.45875e+06
2.87717e+06
3.45484e+06
4.24821e+06
5.33599e+06
6.83145e+06
8.90272e+06
1.18073e+07
1.59532e+07
2.20109e+07
3.11351e+07
4.5426e+07
6.89804e+07
1.10536e+08
1.91073e+08
3.69893e+08
8.59555e+08
2.76451e+09
1.69758e+10
2.25146e+06
2.24712e+06
2.23925e+06
2.22836e+06
2.21473e+06
2.19856e+06
2.17998e+06
2.15907e+06
2.13596e+06
2.11081e+06
2.08374e+06
2.05495e+06
2.02461e+06
1.99305e+06
1.96063e+06
1.92785e+06
1.89522e+06
1.86336e+06
1.83292e+06
1.80407e+06
1.77676e+06
1.75137e+06
1.72835e+06
1.70818e+06
1.69131e+06
1.67823e+06
1.66949e+06
1.6658e+06
1.66821e+06
1.67842e+06
1.69916e+06
1.73469e+06
1.79141e+06
1.87885e+06
2.0107e+06
2.2057e+06
2.48876e+06
2.89226e+06
3.45844e+06
4.24386e+06
5.32683e+06
6.82001e+06
8.89086e+06
1.17963e+07
1.59435e+07
2.20031e+07
3.1129e+07
4.54215e+07
6.89772e+07
1.10534e+08
1.91071e+08
3.69892e+08
8.59555e+08
2.76451e+09
1.69758e+10
2.59452e+06
2.58965e+06
2.58085e+06
2.56871e+06
2.55357e+06
2.53568e+06
2.51519e+06
2.49222e+06
2.4669e+06
2.43938e+06
2.40984e+06
2.37841e+06
2.34516e+06
2.31039e+06
2.2744e+06
2.23775e+06
2.20083e+06
2.16424e+06
2.12879e+06
2.09442e+06
2.06106e+06
2.02905e+06
1.99884e+06
1.97088e+06
1.9456e+06
1.92346e+06
1.90495e+06
1.89068e+06
1.88155e+06
1.879e+06
1.88544e+06
1.90479e+06
1.94331e+06
2.0107e+06
2.12111e+06
2.29419e+06
2.55597e+06
2.93997e+06
3.48942e+06
4.26142e+06
5.33445e+06
6.82089e+06
8.88769e+06
1.17911e+07
1.59379e+07
2.19978e+07
3.11245e+07
4.5418e+07
6.89747e+07
1.10532e+08
1.9107e+08
3.69892e+08
8.59554e+08
2.76451e+09
1.69758e+10
2.99582e+06
2.99032e+06
2.98039e+06
2.96671e+06
2.94974e+06
2.92977e+06
2.90701e+06
2.8816e+06
2.85368e+06
2.82345e+06
2.79121e+06
2.75696e+06
2.72073e+06
2.68276e+06
2.64332e+06
2.6031e+06
2.56239e+06
2.52156e+06
2.48133e+06
2.44149e+06
2.40215e+06
2.36364e+06
2.32639e+06
2.29081e+06
2.25735e+06
2.22642e+06
2.19849e+06
2.17409e+06
2.15398e+06
2.1394e+06
2.13243e+06
2.13662e+06
2.1579e+06
2.2057e+06
2.29419e+06
2.44333e+06
2.67986e+06
3.03847e+06
3.56378e+06
4.31422e+06
5.36926e+06
6.84174e+06
8.89852e+06
1.17954e+07
1.59382e+07
2.19962e+07
3.11222e+07
4.54158e+07
6.89729e+07
1.10531e+08
1.91069e+08
3.69891e+08
8.59554e+08
2.76451e+09
1.69758e+10
3.46857e+06
3.46232e+06
3.45109e+06
3.43566e+06
3.41658e+06
3.39423e+06
3.36888e+06
3.34071e+06
3.30991e+06
3.2767e+06
3.24162e+06
3.20452e+06
3.16536e+06
3.12435e+06
3.08173e+06
3.03818e+06
2.99392e+06
2.94912e+06
2.90417e+06
2.85908e+06
2.81409e+06
2.76952e+06
2.72577e+06
2.68324e+06
2.64236e+06
2.60355e+06
2.56726e+06
2.53398e+06
2.50438e+06
2.47952e+06
2.46118e+06
2.45247e+06
2.45875e+06
2.48876e+06
2.55597e+06
2.67986e+06
2.88725e+06
3.21369e+06
3.70547e+06
4.42321e+06
5.44853e+06
6.89591e+06
8.93298e+06
1.18155e+07
1.59487e+07
2.20007e+07
3.11235e+07
4.54155e+07
6.8972e+07
1.1053e+08
1.91069e+08
3.69891e+08
8.59554e+08
2.76451e+09
1.69758e+10
4.03245e+06
4.02541e+06
4.01277e+06
3.99546e+06
3.97414e+06
3.94928e+06
3.92122e+06
3.8902e+06
3.85647e+06
3.82026e+06
3.78222e+06
3.74215e+06
3.70005e+06
3.65609e+06
3.61048e+06
3.56369e+06
3.51589e+06
3.46726e+06
3.41802e+06
3.36832e+06
3.31846e+06
3.26878e+06
3.21966e+06
3.17148e+06
3.12468e+06
3.07968e+06
3.03692e+06
2.99689e+06
2.9602e+06
2.92774e+06
2.90102e+06
2.88264e+06
2.87717e+06
2.89226e+06
2.93997e+06
3.03847e+06
3.21369e+06
3.50131e+06
3.94906e+06
4.62027e+06
5.59999e+06
7.00595e+06
9.0082e+06
1.18636e+07
1.59772e+07
2.20161e+07
3.11309e+07
4.54184e+07
6.89728e+07
1.1053e+08
1.91069e+08
3.69891e+08
8.59554e+08
2.7645e+09
1.69758e+10
4.71724e+06
4.70937e+06
4.69527e+06
4.67601e+06
4.65239e+06
4.62497e+06
4.59417e+06
4.56033e+06
4.52373e+06
4.48467e+06
4.4436e+06
4.40053e+06
4.3555e+06
4.30871e+06
4.26034e+06
4.2107e+06
4.15995e+06
4.10826e+06
4.05575e+06
4.00267e+06
3.94939e+06
3.89624e+06
3.84358e+06
3.79181e+06
3.74132e+06
3.69256e+06
3.64597e+06
3.60202e+06
3.56127e+06
3.52446e+06
3.4928e+06
3.46837e+06
3.45484e+06
3.45844e+06
3.48942e+06
3.56378e+06
3.70547e+06
3.94906e+06
4.34272e+06
4.95218e+06
5.86667e+06
7.20899e+06
9.15395e+06
1.19617e+07
1.60388e+07
2.20519e+07
3.11499e+07
4.54275e+07
6.89765e+07
1.10531e+08
1.91069e+08
3.69891e+08
8.59554e+08
2.7645e+09
1.69758e+10
5.56692e+06
5.55825e+06
5.54273e+06
5.52161e+06
5.49579e+06
5.46596e+06
5.43264e+06
5.39623e+06
5.3571e+06
5.31558e+06
5.27202e+06
5.22658e+06
5.17938e+06
5.13061e+06
5.08046e+06
5.02912e+06
4.97675e+06
4.92351e+06
4.86947e+06
4.81498e+06
4.7604e+06
4.70609e+06
4.65237e+06
4.59961e+06
4.5482e+06
4.49857e+06
4.45114e+06
4.40634e+06
4.36466e+06
4.32671e+06
4.29341e+06
4.26633e+06
4.24821e+06
4.24386e+06
4.26142e+06
4.31422e+06
4.42321e+06
4.62027e+06
4.95218e+06
5.48551e+06
6.31314e+06
7.56406e+06
9.42049e+06
1.21495e+07
1.61622e+07
2.21271e+07
3.1192e+07
4.54488e+07
6.8986e+07
1.10535e+08
1.9107e+08
3.69891e+08
8.59554e+08
2.7645e+09
1.69758e+10
6.65044e+06
6.64116e+06
6.6246e+06
6.60211e+06
6.57474e+06
6.54325e+06
6.50828e+06
6.47028e+06
6.4297e+06
6.38691e+06
6.34219e+06
6.29582e+06
6.24798e+06
6.19889e+06
6.14869e+06
6.09753e+06
6.04556e+06
5.99293e+06
5.9397e+06
5.88623e+06
5.83291e+06
5.78006e+06
5.72798e+06
5.677e+06
5.62747e+06
5.57977e+06
5.53428e+06
5.4914e+06
5.45152e+06
5.41511e+06
5.38284e+06
5.35582e+06
5.33599e+06
5.32683e+06
5.33445e+06
5.36926e+06
5.44853e+06
5.59999e+06
5.86667e+06
6.31314e+06
7.03349e+06
8.16202e+06
9.89008e+06
1.24957e+07
1.64001e+07
2.22783e+07
3.12801e+07
4.54953e+07
6.90079e+07
1.10544e+08
1.91073e+08
3.69891e+08
8.59554e+08
2.7645e+09
1.69758e+10
8.07997e+06
8.07048e+06
8.05356e+06
8.03067e+06
8.00291e+06
7.97112e+06
7.936e+06
7.89805e+06
7.85776e+06
7.81554e+06
7.77163e+06
7.72638e+06
7.68e+06
7.63271e+06
7.58466e+06
7.53593e+06
7.48667e+06
7.43701e+06
7.38701e+06
7.33703e+06
7.28743e+06
7.23848e+06
7.19045e+06
7.14362e+06
7.09828e+06
7.05476e+06
7.01339e+06
6.97447e+06
6.93835e+06
6.90535e+06
6.87595e+06
6.85089e+06
6.83145e+06
6.82001e+06
6.82089e+06
6.84174e+06
6.89591e+06
7.00595e+06
7.20899e+06
7.56406e+06
8.16202e+06
9.13866e+06
1.0693e+07
1.31168e+07
1.68479e+07
2.25763e+07
3.14613e+07
4.55948e+07
6.90563e+07
1.10564e+08
1.9108e+08
3.69893e+08
8.59554e+08
2.7645e+09
1.69758e+10
1.00329e+07
1.00237e+07
1.00073e+07
9.98522e+06
9.95853e+06
9.9281e+06
9.89463e+06
9.85865e+06
9.82067e+06
9.78108e+06
9.7401e+06
9.69811e+06
9.65532e+06
9.61195e+06
9.56813e+06
9.52391e+06
9.47941e+06
9.43475e+06
9.38999e+06
9.34545e+06
9.30144e+06
9.2582e+06
9.21594e+06
9.17487e+06
9.13526e+06
9.09735e+06
9.06141e+06
9.0277e+06
8.99645e+06
8.96793e+06
8.94243e+06
8.92042e+06
8.90272e+06
8.89086e+06
8.88769e+06
8.89852e+06
8.93298e+06
9.0082e+06
9.15395e+06
9.42049e+06
9.89008e+06
1.0693e+07
1.20299e+07
1.42036e+07
1.76733e+07
2.31548e+07
3.18309e+07
4.58069e+07
6.91637e+07
1.10611e+08
1.91096e+08
3.69898e+08
8.59555e+08
2.7645e+09
1.69758e+10
1.27837e+07
1.27753e+07
1.27603e+07
1.27402e+07
1.2716e+07
1.26884e+07
1.26582e+07
1.26259e+07
1.2592e+07
1.25568e+07
1.25205e+07
1.24834e+07
1.24459e+07
1.24081e+07
1.237e+07
1.23317e+07
1.22934e+07
1.2255e+07
1.22168e+07
1.21788e+07
1.21415e+07
1.21049e+07
1.20693e+07
1.20348e+07
1.20016e+07
1.19699e+07
1.194e+07
1.19119e+07
1.1886e+07
1.18623e+07
1.18411e+07
1.18226e+07
1.18073e+07
1.17963e+07
1.17911e+07
1.17954e+07
1.18155e+07
1.18636e+07
1.19617e+07
1.21495e+07
1.24957e+07
1.31168e+07
1.42036e+07
1.60602e+07
1.91625e+07
2.42603e+07
3.25783e+07
4.62593e+07
6.94038e+07
1.10719e+08
1.91136e+08
3.69909e+08
8.59557e+08
2.76451e+09
1.69758e+10
1.67598e+07
1.67526e+07
1.67397e+07
1.67223e+07
1.67015e+07
1.66779e+07
1.66521e+07
1.66246e+07
1.65958e+07
1.6566e+07
1.65355e+07
1.65044e+07
1.6473e+07
1.64415e+07
1.64099e+07
1.63782e+07
1.63466e+07
1.63151e+07
1.62838e+07
1.62528e+07
1.62224e+07
1.61928e+07
1.61639e+07
1.61361e+07
1.61093e+07
1.60838e+07
1.60598e+07
1.60373e+07
1.60165e+07
1.59976e+07
1.59806e+07
1.59657e+07
1.59532e+07
1.59435e+07
1.59379e+07
1.59382e+07
1.59487e+07
1.59772e+07
1.60388e+07
1.61622e+07
1.64001e+07
1.68479e+07
1.76733e+07
1.91625e+07
2.17906e+07
2.63339e+07
3.40733e+07
4.72235e+07
6.99464e+07
1.10977e+08
1.91236e+08
3.69937e+08
8.59562e+08
2.76451e+09
1.69758e+10
2.26493e+07
2.26434e+07
2.26328e+07
2.26187e+07
2.26017e+07
2.25825e+07
2.25615e+07
2.25393e+07
2.2516e+07
2.24921e+07
2.24675e+07
2.24426e+07
2.24176e+07
2.23925e+07
2.23674e+07
2.23424e+07
2.23174e+07
2.22926e+07
2.2268e+07
2.22437e+07
2.22199e+07
2.21968e+07
2.21743e+07
2.21527e+07
2.21319e+07
2.21122e+07
2.20936e+07
2.20762e+07
2.20601e+07
2.20455e+07
2.20324e+07
2.20208e+07
2.20109e+07
2.20031e+07
2.19978e+07
2.19962e+07
2.20007e+07
2.20161e+07
2.20519e+07
2.21271e+07
2.22783e+07
2.25763e+07
2.31548e+07
2.42603e+07
2.63339e+07
3.01454e+07
3.70188e+07
4.92676e+07
7.11829e+07
1.11606e+08
1.9149e+08
3.70013e+08
8.59576e+08
2.76451e+09
1.69758e+10
3.1619e+07
3.16143e+07
3.16061e+07
3.15952e+07
3.1582e+07
3.15671e+07
3.1551e+07
3.15338e+07
3.15159e+07
3.14975e+07
3.14787e+07
3.14597e+07
3.14406e+07
3.14215e+07
3.14025e+07
3.13835e+07
3.13646e+07
3.13459e+07
3.13273e+07
3.13091e+07
3.12912e+07
3.12739e+07
3.12571e+07
3.12409e+07
3.12254e+07
3.12106e+07
3.11968e+07
3.11838e+07
3.11719e+07
3.1161e+07
3.11512e+07
3.11426e+07
3.11351e+07
3.1129e+07
3.11245e+07
3.11222e+07
3.11235e+07
3.11309e+07
3.11499e+07
3.1192e+07
3.12801e+07
3.14613e+07
3.18309e+07
3.25783e+07
3.40733e+07
3.70188e+07
4.27169e+07
5.3554e+07
7.40081e+07
1.13167e+08
1.92172e+08
3.70228e+08
8.59618e+08
2.76451e+09
1.69758e+10
4.57763e+07
4.57729e+07
4.57669e+07
4.57588e+07
4.57491e+07
4.57382e+07
4.57263e+07
4.57137e+07
4.57006e+07
4.56872e+07
4.56735e+07
4.56596e+07
4.56457e+07
4.56319e+07
4.56181e+07
4.56043e+07
4.55907e+07
4.55772e+07
4.55638e+07
4.55507e+07
4.55378e+07
4.55254e+07
4.55133e+07
4.55017e+07
4.54906e+07
4.54801e+07
4.54702e+07
4.54609e+07
4.54524e+07
4.54446e+07
4.54376e+07
4.54314e+07
4.5426e+07
4.54215e+07
4.5418e+07
4.54158e+07
4.54155e+07
4.54184e+07
4.54275e+07
4.54488e+07
4.54953e+07
4.55948e+07
4.58069e+07
4.62593e+07
4.72235e+07
4.92676e+07
5.3554e+07
6.24056e+07
8.04314e+07
1.17103e+08
1.94073e+08
3.70881e+08
8.59753e+08
2.76452e+09
1.69758e+10
6.92211e+07
6.92187e+07
6.92145e+07
6.92089e+07
6.92021e+07
6.91945e+07
6.91863e+07
6.91776e+07
6.91685e+07
6.91592e+07
6.91498e+07
6.91402e+07
6.91306e+07
6.91211e+07
6.91116e+07
6.91022e+07
6.90928e+07
6.90835e+07
6.90744e+07
6.90654e+07
6.90566e+07
6.90481e+07
6.90399e+07
6.9032e+07
6.90244e+07
6.90172e+07
6.90105e+07
6.90042e+07
6.89984e+07
6.89931e+07
6.89883e+07
6.89841e+07
6.89804e+07
6.89772e+07
6.89747e+07
6.89729e+07
6.8972e+07
6.89728e+07
6.89765e+07
6.8986e+07
6.90079e+07
6.90563e+07
6.91637e+07
6.94038e+07
6.99464e+07
7.11829e+07
7.40081e+07
8.04314e+07
9.48791e+07
1.27076e+08
1.99556e+08
3.73015e+08
8.60235e+08
2.76457e+09
1.69758e+10
1.10691e+08
1.1069e+08
1.10687e+08
1.10683e+08
1.10679e+08
1.10674e+08
1.10669e+08
1.10663e+08
1.10657e+08
1.10651e+08
1.10645e+08
1.10639e+08
1.10633e+08
1.10626e+08
1.1062e+08
1.10614e+08
1.10608e+08
1.10602e+08
1.10596e+08
1.10591e+08
1.10585e+08
1.10579e+08
1.10574e+08
1.10569e+08
1.10564e+08
1.1056e+08
1.10555e+08
1.10551e+08
1.10548e+08
1.10544e+08
1.10541e+08
1.10538e+08
1.10536e+08
1.10534e+08
1.10532e+08
1.10531e+08
1.1053e+08
1.1053e+08
1.10531e+08
1.10535e+08
1.10544e+08
1.10564e+08
1.10611e+08
1.10719e+08
1.10977e+08
1.11606e+08
1.13167e+08
1.17103e+08
1.27076e+08
1.52254e+08
2.15713e+08
3.80476e+08
8.62211e+08
2.76477e+09
1.69758e+10
1.91165e+08
1.91164e+08
1.91162e+08
1.9116e+08
1.91157e+08
1.91154e+08
1.91151e+08
1.91148e+08
1.91144e+08
1.91141e+08
1.91137e+08
1.91133e+08
1.9113e+08
1.91126e+08
1.91122e+08
1.91119e+08
1.91115e+08
1.91112e+08
1.91108e+08
1.91105e+08
1.91101e+08
1.91098e+08
1.91095e+08
1.91092e+08
1.91089e+08
1.91087e+08
1.91084e+08
1.91082e+08
1.91079e+08
1.91077e+08
1.91076e+08
1.91074e+08
1.91073e+08
1.91071e+08
1.9107e+08
1.91069e+08
1.91069e+08
1.91069e+08
1.91069e+08
1.9107e+08
1.91073e+08