/*--------------------------------*- C++ -*----------------------------------*\
  =========                 |
  \\      /  F ield         | OpenFOAM: The Open Source CFD Toolbox
   \\    /   O peration     | Website:  https://openfoam.org
    \\  /    A nd           | Version:  7
     \\/     M anipulation  |
\*---------------------------------------------------------------------------*/
FoamFile
{
    version     2.0;
    format      ascii;
    class       volVectorField;
    location    "405";
    object      wallShearStress;
}
// * * * * * * * * * * * * * * * * * * * * * * * * * * * * * * * * * * * * * //

dimensions      [0 2 -2 0 0 0 0];

internalField   uniform (0 0 0);

boundaryField
{
    inflow
    {
        type            cyclic;
    }
    outflow
    {
        type            cyclic;
    }
    wallTop
    {
        type            calculated;
        value           nonuniform List<vector> 
55
(
(-31.9387 -6.61733e-18 6.49768e-17)
(-31.7891 5.90302e-16 3.58225e-16)
(-31.5231 6.69774e-16 3.0593e-17)
(-31.1637 -3.83365e-16 -2.26139e-16)
(-30.7289 -2.97923e-16 -2.3873e-16)
(-30.2326 -5.01031e-16 2.56767e-17)
(-29.6858 -1.56128e-16 1.76574e-16)
(-29.0968 2.14792e-16 -2.09964e-17)
(-28.4731 -5.04558e-17 5.83713e-17)
(-27.8203 -6.4341e-17 -1.53522e-16)
(-27.1397 -2.80899e-16 -1.76234e-16)
(-26.4377 -2.62235e-16 -1.20246e-16)
(-25.7172 -3.49558e-16 -1.00232e-16)
(-24.9804 -3.24065e-16 -6.34966e-17)
(-24.2271 -2.46444e-16 -2.04766e-18)
(-23.456 -1.63601e-16 5.09678e-17)
(-22.6666 -7.11891e-17 8.99518e-17)
(-21.8584 -1.07657e-17 1.19713e-16)
(-21.0306 3.88617e-18 1.66146e-16)
(-20.1863 5.25442e-17 1.63813e-16)
(-19.3284 5.9077e-17 1.06964e-16)
(-18.4585 8.92059e-17 1.34887e-16)
(-17.5776 8.51501e-17 1.31807e-16)
(-16.6871 1.42815e-16 1.20706e-16)
(-15.7891 1.44865e-16 9.04532e-17)
(-14.887 2.04706e-16 3.90185e-17)
(-13.9847 1.67888e-16 -1.97403e-17)
(-13.0873 1.86121e-16 -7.24414e-17)
(-12.2005 1.2198e-16 -9.43806e-17)
(-11.3304 1.32752e-16 -1.03266e-16)
(-10.4833 7.56529e-17 -1.27052e-16)
(-9.66509 7.2589e-17 -1.79137e-16)
(-8.88117 -1.42892e-17 -2.26165e-16)
(-8.1355 -6.83537e-17 -2.12115e-16)
(-7.43078 -1.42633e-16 -1.42739e-16)
(-6.76827 -1.74395e-16 -3.07168e-17)
(-6.14807 -1.70518e-16 7.30497e-17)
(-5.56938 -1.45884e-16 1.31743e-16)
(-5.03063 -1.02624e-16 1.46365e-16)
(-4.52985 -6.50285e-17 1.25723e-16)
(-4.06482 -3.27617e-17 9.22996e-17)
(-3.63322 -1.27847e-17 5.89197e-17)
(-3.23275 -1.13153e-18 3.31581e-17)
(-2.86111 3.75027e-18 1.51505e-17)
(-2.51615 5.24411e-18 5.02542e-18)
(-2.19579 4.36387e-18 2.84504e-19)
(-1.89803 3.34895e-18 -1.43776e-18)
(-1.62102 2.19651e-18 -1.28814e-18)
(-1.36294 1.57824e-18 -3.73404e-19)
(-1.12204 1.3223e-18 7.44802e-19)
(-0.896563 1.12416e-18 1.72936e-18)
(-0.684686 8.23021e-19 2.40784e-18)
(-0.484296 1.89601e-19 2.53344e-18)
(-0.292476 -3.66275e-19 1.85016e-18)
(-0.103888 -7.42872e-19 9.64743e-19)
)
;
    }
    wallSide
    {
        type            calculated;
        value           nonuniform List<vector> 
55
(
(-31.9387 -3.66104e-18 2.55672e-18)
(-31.7891 -3.79635e-16 -2.28969e-17)
(-31.5231 3.85545e-17 -1.11382e-17)
(-31.1637 2.81054e-16 -1.28901e-16)
(-30.7289 3.29061e-16 5.46288e-17)
(-30.2326 1.81703e-16 -4.52609e-17)
(-29.6858 -3.50567e-17 -1.66054e-17)
(-29.0968 1.98097e-16 -1.8356e-17)
(-28.4731 1.93639e-17 2.15338e-17)
(-27.8203 2.44266e-16 -1.86845e-17)
(-27.1397 3.23045e-16 2.02525e-17)
(-26.4377 1.9035e-16 6.63946e-18)
(-25.7172 2.03084e-16 -2.08194e-18)
(-24.9804 2.07732e-16 6.29864e-18)
(-24.2271 1.72831e-16 -1.28442e-17)
(-23.456 1.26452e-16 -1.72305e-18)
(-22.6666 7.79388e-17 -1.39296e-18)
(-21.8584 4.46728e-17 1.79159e-17)
(-21.0306 -8.90942e-18 -6.53252e-18)
(-20.1863 -1.27295e-17 -1.25231e-17)
(-19.3284 1.49286e-17 -8.667e-18)
(-18.4585 -1.29468e-17 -8.10814e-18)
(-17.5776 -1.46387e-17 4.3731e-18)
(-16.6871 -7.80338e-18 2.74452e-18)
(-15.7891 1.45968e-17 -4.16829e-18)
(-14.887 2.68393e-17 -4.87129e-18)
(-13.9847 2.53534e-17 -3.73309e-19)
(-13.0873 1.9677e-17 -3.33488e-18)
(-12.2005 1.78347e-17 1.38046e-18)
(-11.3304 1.52171e-17 1.24698e-18)
(-10.4833 6.68601e-18 1.64442e-20)
(-9.66509 7.31657e-18 -8.49162e-19)
(-8.88117 9.62778e-18 -3.47812e-18)
(-8.1355 2.46268e-18 -2.48206e-18)
(-7.43078 -4.90922e-19 -2.59889e-18)
(-6.76827 -1.64494e-18 -1.73707e-18)
(-6.14807 -3.79394e-18 -2.40846e-18)
(-5.56938 -4.22355e-18 -2.50413e-18)
(-5.03063 -5.62108e-18 -2.95572e-18)
(-4.52985 -7.21013e-18 -3.63857e-18)
(-4.06482 -7.34998e-18 -3.83388e-18)
(-3.63322 -7.93753e-18 -4.04374e-18)
(-3.23275 -7.94022e-18 -4.14821e-18)
(-2.86111 -6.99682e-18 -4.51937e-18)
(-2.51615 -5.97952e-18 -4.53861e-18)
(-2.19579 -4.86002e-18 -3.93589e-18)
(-1.89803 -3.41387e-18 -2.79241e-18)
(-1.62102 -1.96463e-18 -1.42058e-18)
(-1.36294 -8.29889e-19 1.40102e-19)
(-1.12204 -1.3569e-21 1.71988e-18)
(-0.896563 3.56254e-19 3.02825e-18)
(-0.684686 3.27908e-19 3.88636e-18)
(-0.484296 1.30102e-19 4.1384e-18)
(-0.292476 1.7554e-19 3.69748e-18)
(-0.103888 7.31951e-19 1.48679e-18)
)
;
    }
    symmetryBottom
    {
        type            symmetry;
    }
    symmetrySide
    {
        type            symmetry;
    }
}


// ************************************************************************* //
