5 	0.00391112967796258 	1.73472347597681e-17 	0.125943273487584 	1.44076289073425e-05 	889.593710510593 	1.12500559983012e-06 	1.38567885922685e-38
5 	0.0118766651674913 	1.04083408558608e-17 	0.125940335221914 	0.000221889993360009 	195.882023144027 	2.21902280346168e-05 	0
5 	0.020134001548576 	3.46944695195361e-18 	0.125933304024969 	0.00126042362729335 	55.5847886637946 	0.000111451797556885 	0
5 	0.0286938283423949 	3.46944695195361e-18 	0.125915014184779 	0.00347078584886575 	24.0278137000699 	9.02560572586487e-05 	0
5 	0.0375672266585908 	1.04083408558608e-17 	0.125876014124257 	0.00598134759812388 	13.3894161531484 	1.54949829358263e-05 	0
5 	0.046765683540303 	1.73472347597681e-17 	0.125812748390435 	0.00819484541116457 	8.92337661398192 	6.02368175160119e-05 	0
5 	0.0563011068347006 	2.08166817117217e-17 	0.125729655618136 	0.0100787344134718 	6.6592118583855 	0.000155085758404784 	0
5 	0.0661858406082648 	1.73472347597681e-17 	0.125632360408123 	0.0117201799183193 	5.3306881322581 	0.000259804799104511 	0
5 	0.0764326811267815 	1.04083408558608e-17 	0.12552430672614 	0.0131914800412511 	4.46734171943939 	0.000366225890631404 	0
5 	0.0870548934207257 	1.04083408558608e-17 	0.125407493448341 	0.014541283815269 	3.86506413915872 	0.000473931652401293 	0
5 	0.0980662284574838 	1.04083408558608e-17 	0.125283416317716 	0.0158021910906267 	3.42313686022332 	0.000583804904081481 	0
5 	0.109480940942647 	1.38777878078145e-17 	0.125153357040287 	0.0169967850715079 	3.08664391795491 	0.000696816882019608 	0
5 	0.121313807773416 	2.42861286636753e-17 	0.125018443615807 	0.0181413179542458 	2.82324241160682 	0.000813853905931459 	0
5 	0.13358014716801 	2.42861286636753e-17 	0.124879694573589 	0.0192479095853735 	2.6126961324786 	0.000935727807110005 	0
5 	0.146295838495838 	1.73472347597681e-17 	0.124738057996841 	0.0203258882617451 	2.44171732511981 	0.00106320886229991 	0
5 	0.159477342834115 	1.38777878078145e-17 	0.124594436149435 	0.0213826346071916 	2.30123228484078 	0.00119705550671243 	0
5 	0.173141724277517 	2.08166817117217e-17 	0.124449699067819 	0.0224241293840923 	2.18484229670782 	0.00133803816903104 	0
5 	0.18730667202848 	1.73472347597681e-17 	0.124304691959719 	0.023455318760525 	2.08791299037177 	0.00148695799687761 	0
5 	0.201990523296728 	1.04083408558608e-17 	0.124160238871793 	0.0244803629779502 	2.00701229098704 	0.00164466170049676 	0
5 	0.217212287037676 	1.73472347597681e-17 	0.124017143794003 	0.0255028078456711 	1.93955076481515 	0.00181205351621826 	0
5 	0.232991668560442 	2.08166817117217e-17 	0.123876189960335 	0.0265257032505774 	1.88354415842832 	0.00199010489096506 	0
5 	0.249349095037321 	2.42861286636753e-17 	0.123738137920264 	0.0275516838287021 	1.83745224227303 	0.00217986212685554 	0
5 	0.266305741947753 	2.08166817117217e-17 	0.123603722823021 	0.0285830214035529 	1.80006671578957 	0.00238245193301778 	0
5 	0.283883560490999 	1.38777878078145e-17 	0.123473651283797 	0.0296216552887551 	1.77043146431012 	0.00259908458101966 	0
5 	0.30210530600303 	1.38777878078145e-17 	0.123348598203836 	0.0306692042598096 	1.74778461335905 	0.00283105412322104 	0
5 	0.320994567414413 	1.73472347597681e-17 	0.123229203857228 	0.0317269624635905 	1.73151553214787 	0.00307973485455167 	0
5 	0.34057579778732 	2.08166817117217e-17 	0.123116071065809 	0.0327958807066775 	1.7211322287448 	0.00334657288118096 	0
5 	0.3608743459712 	2.08166817117217e-17 	0.123009762680795 	0.033876529176594 	1.71623602726114 	0.00363307076413398 	0
5 	0.38191648941809 	2.42861286636753e-17 	0.122910804057551 	0.0349690694026313 	1.71650135282796 	0.00394076632268866 	0
5 	0.403729468200046 	2.08166817117217e-17 	0.12281968158773 	0.0360732124875109 	1.72165905150278 	0.0042711996524538 	0
5 	0.426341520272734 	1.38777878078145e-17 	0.122736842303313 	0.037188113143556 	1.73148207865598 	0.00462586603661173 	0
5 	0.449781918030829 	1.38777878078145e-17 	0.122662694475913 	0.038312276254667 	1.74577266884716 	0.00500615840783796 	0
5 	0.474081006202548 	1.38777878078145e-17 	0.122597614790876 	0.0394434475628305 	1.76435026528415 	0.00541328624533203 	0
5 	0.499270241132363 	1.04083408558608e-17 	0.122541993388723 	0.0405784872510271 	1.78703959843542 	0.00584816586485136 	0
5 	0.525382231502763 	1.04083408558608e-17 	0.122496274983049 	0.0417132269425878 	1.81365837675227 	0.00631130062552125 	0
5 	0.552450780547767 	1.38777878078145e-17 	0.122460531022274 	0.0428423110327065 	1.84400406289461 	0.00680272678807815 	0
5 	0.580510929812849 	1.04083408558608e-17 	0.122433217138619 	0.0439590209412408 	1.87783907015861 	0.00732196506634818 	0
5 	0.60959900451791 	1.04083408558608e-17 	0.122414365002465 	0.0450550797374119 	1.91487359883122 	0.00787343840762193 	0
5 	0.639752660582032 	1.38777878078145e-17 	0.122427333908509 	0.0461208665358559 	1.95476324117992 	0.00855520363660863 	0
5 	0.671010933370886 	2.42861286636753e-17 	0.122514345870564 	0.0471525040067505 	1.99737723925966 	0.00932444470849745 	0
5 	0.7034142882299 	3.46944695195361e-17 	0.122664722947929 	0.0481441596957029 	2.04211755560628 	0.010196602736753 	0
5 	0.737004672868606 	3.12250225675825e-17 	0.122820702681563 	0.0490616419798858 	2.08659119140104 	0.0110782467895511 	0
5 	0.771825571663976 	2.42861286636753e-17 	0.122951616139416 	0.0498490193923019 	2.12695659908775 	0.0118399264416083 	0
5 	0.807922061953053 	2.77555756156289e-17 	0.123058169719208 	0.0504499046344822 	2.15918875346642 	0.0124189680954293 	0
5 	0.845340872387742 	4.5102810375397e-17 	0.123151439467555 	0.050819847548231 	2.17995740256119 	0.0128050603544649 	0
5 	0.884130443427308 	5.20417042793042e-17 	0.123241088974918 	0.0509286488035507 	2.18685989813806 	0.0130084570520646 	0
5 	0.924340990046896 	5.20417042793042e-17 	0.123331968202245 	0.0507579171491351 	2.17831729360735 	0.0130358714730829 	0
5 	0.966024566743241 	5.20417042793042e-17 	0.123424413702187 	0.0502991808957544 	2.15348802230484 	0.0128830679617596 	0
5 	1.00923513492173 	4.85722573273506e-17 	0.123515849761151 	0.0495545997382942 	2.11229011333403 	0.0125409714316579 	0
5 	1.05402863275205 	5.89805981832114e-17 	0.123602402611743 	0.04853946981178 	2.05545450066094 	0.0120071939739104 	0
5 	1.10046304758287 	6.24500451351651e-17 	0.123679920159048 	0.0472844838231776 	1.98453857876066 	0.0112956967726778 	0
5 	1.14859849100923 	5.55111512312578e-17 	0.123744372376498 	0.0458357533691502 	1.90187077578838 	0.0104403734044165 	0
5 	1.19849727668994 	5.89805981832114e-17 	0.123791921926355 	0.0442514450293011 	1.81040024231832 	0.00949166204383247 	0
5 	1.25022400101563 	6.93889390390723e-17 	0.123818984260706 	0.0425951820568161 	1.71342722889081 	0.00850791827680019 	0
5 	1.30384562673185 	7.63278329429795e-17 	0.123822462155433 	0.0409277046557355 	1.6142302756018 	0.00754479183796962 	0
5 	1.35943156962565 	7.28583859910259e-17 	0.123800152881366 	0.0392991144693392 	1.51567423443107 	0.00664611737015582 	0
5 	1.41705378838762 	6.93889390390723e-17 	0.123751157143227 	0.0377438772402123 	1.41992474911432 	0.00583887732165381 	0
5 	1.47678687776592 	6.93889390390723e-17 	0.123676035233207 	0.0362796145583887 	1.32836335441941 	0.00513300844785201 	0
5 	1.53870816513277 	7.28583859910259e-17 	0.123576521006033 	0.0349092164291606 	1.24170453995957 	0.00452503270905255 	0
5 	1.60289781058851 	7.28583859910259e-17 	0.123454815347903 	0.0336248038485203 	1.16022677483257 	0.00400348662302554 	0
5 	1.66943891073266 	6.59194920871187e-17 	0.123312853821573 	0.0324119618779967 	1.0839990954416 	0.00355409720944033 	0
5 	1.73841760623657 	5.89805981832114e-17 	0.123152316006147 	0.0312532047606018 	1.01301809831475 	0.00316335778288697 	0
5 	1.80992319335659 	5.89805981832114e-17 	0.122974705034414 	0.030130332411759 	0.947236178179128 	0.00282020928738618 	0
5 	1.88404823953248 	5.89805981832114e-17 	0.122779853629156 	0.0290258908816677 	0.886524587116564 	0.00251596639739765 	0
5 	1.96088870322037 	5.55111512312578e-17 	0.122575099728323 	0.0279242935355548 	0.830638612235498 	0.00224370153593336 	0
5 	2.04004996790234 	5.55111512312578e-17 	0.122393144869099 	0.0268165341861828 	0.779288528201912 	0.00199315781180294 	0
4.99999999999999 	2.11873460271874 	5.89805981832114e-17 	0.122236658646023 	0.0257236429870864 	0.733073929437061 	0.00176472537161224 	0
4.99999999999999 	2.19463865000284 	6.24500451351651e-17 	0.122080692698984 	0.0246714666507522 	0.692554122903796 	0.00156577374830843 	0
4.99999999999999 	2.26786037121375 	5.89805981832114e-17 	0.121923818573276 	0.0236602669612411 	0.657271214390029 	0.00139050476721865 	0
4.99999999999999 	2.33849455540975 	5.55111512312578e-17 	0.121767399036913 	0.0226887404090393 	0.626490443414005 	0.00123533087357059 	0
4.99999999999999 	2.40663264195736 	6.24500451351651e-17 	0.121612195004766 	0.0217560726378689 	0.59956227002392 	0.00109717103826051 	0
4.99999999999999 	2.47236283890404 	6.93889390390723e-17 	0.121458636937602 	0.0208619959356187 	0.575989599627071 	0.000973536262411061 	0
4.99999999999999 	2.5357702371677 	6.93889390390723e-17 	0.121307018315809 	0.0200064481095467 	0.555397437456184 	0.000862505110208733 	0
4.99999999999999 	2.59693692069107 	6.93889390390723e-17 	0.121157543591678 	0.0191892827020178 	0.537496079526369 	0.000762577689291497 	0
4.99999999999999 	2.65594207270333 	6.93889390390723e-17 	0.121010361724728 	0.0184101145247512 	0.522055203762501 	0.0006725396614838 	0
4.99999999999999 	2.71286207822658 	6.59194920871187e-17 	0.120865589904891 	0.0176682705108108 	0.508887649683213 	0.00059137054029766 	0
4.99999999999999 	2.76777062295999 	6.24500451351651e-17 	0.120723327382627 	0.0169628050197733 	0.4978397462571 	0.00051818849823739 	0
4.99999999999999 	2.82073878866949 	5.89805981832114e-17 	0.120583663305438 	0.0162925481312112 	0.488785717941342 	0.000452218762812851 	0
4.99999999999999 	2.87183514520654 	5.89805981832114e-17 	0.120446681320833 	0.0156561661453098 	0.481624509102275 	0.000392775725816149 	0
4.99999999999999 	2.92112583927514 	6.59194920871187e-17 	0.12031246241305 	0.0150522220580724 	0.476278003011965 	0.000339252452706205 	0
4.99999999999999 	2.9686746800619 	6.93889390390723e-17 	0.120181086738031 	0.0144792297545142 	0.472690051740775 	0.000291113974895066 	0
