3 	0.0039111296779626 	0 	0.100468462294931 	9.93679035476674e-06 	848.307426957501 	2.56835797729429e-06 	2.67408882351045e-38
3 	0.0118766651674914 	1.73472347597681e-18 	0.100470964471916 	0.000120537867639057 	234.510319806068 	4.85400297235525e-05 	0
3 	0.0201340015485761 	5.20417042793042e-18 	0.10047346179758 	0.000628019627120928 	62.3893353665516 	0.000295981964845593 	0
3 	0.0286938283423949 	5.20417042793042e-18 	0.100472477039896 	0.00179100012519287 	27.0666178246815 	0.000614259453159573 	0
3 	0.0375672266585909 	5.20417042793042e-18 	0.100468730312298 	0.00335325902746058 	14.8082230630995 	0.000461789037709054 	0
3 	0.0467656835403032 	3.46944695195361e-18 	0.100463113067518 	0.00492071968224861 	9.52272888063582 	0.000160288639806145 	0
3 	0.0563011068347006 	0 	0.100455159011008 	0.00634202981598736 	6.90467769742931 	2.47227943869448e-05 	0
3 	0.0661858406082647 	0 	0.100444182606951 	0.00761299868479118 	5.43154200910008 	2.0805273155753e-05 	0
3 	0.0764326811267815 	3.46944695195361e-18 	0.100429986920188 	0.0087643911114374 	4.51033375096754 	7.57659793640473e-05 	0
3 	0.0870548934207257 	6.93889390390723e-18 	0.10041263748972 	0.00982555403209106 	3.88703898876056 	0.000155236491323788 	0
3 	0.0980662284574838 	3.46944695195361e-18 	0.100392221397668 	0.0108187542976192 	3.44043867720724 	0.000246107479745655 	0
3 	0.109480940942647 	-5.20417042793042e-18 	0.100368798014499 	0.0117602752012282 	3.10673809894366 	0.00034347913837987 	0
3 	0.121313807773416 	-1.73472347597681e-18 	0.100342411398006 	0.0126621429116183 	2.84954250764031 	0.000445618491910253 	0
3 	0.13358014716801 	3.46944695195361e-18 	0.100313099768328 	0.0135334423513397 	2.64669618658257 	0.000552108490916553 	0
3 	0.146295838495838 	-3.46944695195361e-18 	0.100280899011661 	0.0143812114740466 	2.48398849569611 	0.000663132378316502 	0
3 	0.159477342834115 	-1.38777878078145e-17 	0.100245844934847 	0.0152110425951543 	2.35191136035699 	0.00077918015024119 	0
3 	0.173141724277517 	-2.42861286636753e-17 	0.100207978262075 	0.0160274954440296 	2.24388099731987 	0.00090092404938185 	0
3 	0.18730667202848 	-2.42861286636753e-17 	0.100167351861188 	0.0168343720998706 	2.15520999070645 	0.00102916703485988 	0
3 	0.201990523296728 	-1.38777878078145e-17 	0.100124037442154 	0.0176349109218064 	2.08248617353385 	0.00116482564724301 	0
3 	0.217212287037676 	-1.04083408558608e-17 	0.100078133147132 	0.0184319285062223 	2.02318308947558 	0.00130893071143307 	0
3 	0.232991668560441 	-2.08166817117217e-17 	0.10002977285704 	0.0192279089540612 	1.97540797615515 	0.0014626403524049 	0
3 	0.249349095037321 	-2.08166817117217e-17 	0.0999791368692901 	0.0200250106840172 	1.93773450349633 	0.00162725453328632 	0
3 	0.266305741947753 	-1.38777878078145e-17 	0.0999264641004861 	0.0208252432276703 	1.90908981132437 	0.00180424055275166 	0
3 	0.283883560490998 	-1.38777878078145e-17 	0.0998720678572745 	0.021630569955975 	1.88867745507785 	0.00199526226998154 	0
3 	0.30210530600303 	-1.73472347597681e-17 	0.0998163562413878 	0.0224429015537318 	1.87592477737328 	0.00220221594569623 	0
3 	0.320994567414413 	-2.42861286636753e-17 	0.0997598564453742 	0.0232641392643292 	1.87044771529069 	0.00242727847674548 	0
3 	0.34057579778732 	-3.12250225675825e-17 	0.0997032438411219 	0.024096234708414 	1.87202872759152 	0.00267296760452409 	0
3 	0.3608743459712 	-3.46944695195361e-17 	0.0996473802369317 	0.0249412017724498 	1.88060517994302 	0.00294221408669387 	0
3 	0.38191648941809 	-3.81639164714898e-17 	0.0995933652023932 	0.0258011551216034 	1.89626668124685 	0.00323844704328814 	0
3 	0.403729468200046 	-4.5102810375397e-17 	0.0995425931789676 	0.0266784853939031 	1.91926063812693 	0.00356570100598456 	0
3 	0.426341520272733 	-5.20417042793042e-17 	0.0994968168966878 	0.0275760019290506 	1.95000584927396 	0.00392874259347687 	0
3 	0.449781918030828 	-5.89805981832114e-17 	0.0994582204637172 	0.0284970137031622 	1.98911437254857 	0.00433322175214652 	0
3 	0.474081006202548 	-6.24500451351651e-17 	0.0994294720262988 	0.0294454624906428 	2.03742202275378 	0.00478584041969155 	0
3 	0.496091159820835 	-6.59194920871187e-17 	0.099414804124863 	0.0303023858273822 	2.08808495849139 	0.00522771984114338 	0
3 	0.508912316744007 	-7.28583859910259e-17 	0.0994106256908845 	0.0308012915243413 	2.12009648712673 	0.00549698166854268 	0
3 	0.525382231502762 	-6.93889390390723e-17 	0.0994151448944421 	0.0314439066366124 	2.16619274151155 	0.00586759024002469 	0
3 	0.552450780547767 	-6.24500451351651e-17 	0.0994407621741944 	0.0325051037038517 	2.24972548482349 	0.00653306420821685 	0
3 	0.580510929812849 	-5.55111512312578e-17 	0.0994972030994604 	0.0336189505472553 	2.34898779222382 	0.00736444006591702 	0
3 	0.60959900451791 	-3.81639164714898e-17 	0.0995852783747645 	0.0348031452515967 	2.46731324637427 	0.00844918346290285 	0
3 	0.639752660582032 	-3.46944695195361e-17 	0.0997128202591736 	0.0360812091661577 	2.60813131166148 	0.00982669246013972 	0
3 	0.671010933370886 	-4.16333634234434e-17 	0.0998983169876115 	0.0374554754711165 	2.77017568082292 	0.0115007341470281 	0
3 	0.7034142882299 	-3.81639164714898e-17 	0.10015314721762 	0.0388751146753214 	2.9426990828614 	0.0133341800978825 	0
3 	0.737004672868605 	-2.42861286636753e-17 	0.100481671814154 	0.0402448855452891 	3.10892934014148 	0.0151353889028165 	0
3 	0.771825571663975 	-2.08166817117217e-17 	0.100881500927752 	0.0414527962845323 	3.25421868777406 	0.016728714129302 	0
3 	0.807922061953053 	-2.08166817117217e-17 	0.101342091163849 	0.0423897786918314 	3.36950777266829 	0.0179684912867529 	0
3 	0.845340872387742 	-1.04083408558608e-17 	0.101849429531954 	0.0429598691889222 	3.44969285371074 	0.0187546230696659 	0
3 	0.884130443427308 	-3.46944695195361e-18 	0.10239326740577 	0.0430865187189406 	3.49143979835724 	0.0190396509533814 	0
3 	0.924340990046896 	0 	0.102971817388128 	0.0427163433819664 	3.49172412024371 	0.0188147859762441 	0
3 	0.966024566743241 	0 	0.103591946894151 	0.0418221725429196 	3.44680007956254 	0.0180812280628841 	0
3 	1.00923513492173 	0 	0.104266183379441 	0.0404112811987879 	3.35200089294419 	0.01683371080945 	0
3 	1.05402863275205 	0 	0.105008111720505 	0.0385428510895767 	3.20321346884539 	0.0150831908472499 	0
3 	1.10046304758287 	0 	0.105826649489316 	0.0363483536647007 	3.00069966203394 	0.0129226809476407 	0
3 	1.14859849100923 	0 	0.106732250389437 	0.034035557064649 	2.75584928649675 	0.010595468567115 	0
3 	1.19849727668994 	1.04083408558608e-17 	0.107763702724663 	0.0318185705677022 	2.48879490550916 	0.00828115548759756 	0
3 	1.25022400101563 	1.73472347597681e-17 	0.108868878870208 	0.0298649959933397 	2.21882618300624 	0.00621903491321187 	0
3 	1.30384562673185 	1.73472347597681e-17 	0.109958027422644 	0.0282716902561072 	1.96561867396709 	0.00461050062199508 	0
3 	1.35943156962565 	1.98408997564847e-17 	0.111031960359478 	0.0270304462729006 	1.74146921077212 	0.00346760115500625 	0
3 	1.41705378838762 	1.76724954115137e-17 	0.112097282547826 	0.0260614559058299 	1.55383535150692 	0.00272297229736302 	0
3 	1.47678687776592 	1.34441069388203e-17 	0.113159068021674 	0.0252476682592121 	1.40472578244943 	0.00224352731286445 	0
3 	1.53870816513277 	1.12757025938492e-17 	0.114219012613634 	0.0244787319644269 	1.28535970595228 	0.0019212664961876 	0
3 	1.60289781058851 	1.30104260698261e-17 	0.115277320061151 	0.0236644013524189 	1.18341087313413 	0.00168378993658641 	0
3 	1.66943891073266 	1.21430643318376e-17 	0.116333231109831 	0.0227450026866331 	1.09154401385259 	0.00148565770198897 	0
3 	1.73841760623657 	1.21430643318376e-17 	0.117382311557672 	0.0216953334587902 	1.00802331579674 	0.0013014755315119 	0
3 	1.80992319335659 	1.56125112837913e-17 	0.118417669488414 	0.0205154184416383 	0.932368649708697 	0.00111981912774849 	0
3 	1.88404823953248 	1.21430643318376e-17 	0.119432350956631 	0.0192217394721276 	0.863841412267902 	0.000938239465638006 	0
3 	1.96088870322037 	6.93889390390723e-18 	0.120373588154538 	0.0178971940397034 	0.804396012623537 	0.000766418965508734 	0
3 	2.02025965173184 	6.93889390390723e-18 	0.12108630199653 	0.0168179360190214 	0.762888644715207 	0.000633871606870305 	0
3 	2.06006301192217 	6.93889390390723e-18 	0.121579075925185 	0.0160315858597273 	0.735974352954171 	0.000544977102747599 	0
3 	2.09845978584128 	6.93889390390723e-18 	0.121994224604838 	0.0153387881510784 	0.714631670373676 	0.000469980558049546 	0
3 	2.13549967996945 	6.93889390390723e-18 	0.122380207488131 	0.0146825585382272 	0.696537736780272 	0.000401828910394741 	0
3 	2.17123064424048 	6.93889390390723e-18 	0.12273608661671 	0.0140631757360729 	0.681548598992303 	0.000340677484736801 	0
3 	2.20569893411515 	6.93889390390723e-18 	0.12306342820858 	0.0134802284883275 	0.669538526910387 	0.000286094735121625 	0
3 	2.23894917046122 	6.93889390390723e-18 	0.123364337097178 	0.012932810623997 	0.660402454182827 	0.000237678567182672 	0
3 	2.27102439731725 	3.46944695195361e-18 	0.123640724841721 	0.0124196802697401 	0.65405859053665 	0.000195024261566062 	0
3 	2.30196613761521 	3.46944695195361e-18 	0.123894363630732 	0.0119393896328126 	0.650450751664361 	0.000157744159817883 	0
3 	2.33181444693391 	6.93889390390723e-18 	0.12412693361301 	0.0114903879842278 	0.649550251000999 	0.000125487057986919 	0
3 	2.3606079653529 	6.93889390390723e-18 	0.12434002518195 	0.0110711007994592 	0.651357402390539 	9.7949879477629e-05 	0
3 	2.3883839674739 	6.93889390390723e-18 	0.12453513872715 	0.010679988549398 	0.655902761563922 	7.48849831523696e-05 	0
3 	2.41517841067461 	1.04083408558608e-17 	0.124713686885378 	0.0103155886552105 	0.663248235638636 	5.61051144032009e-05 	0
3 	2.44102598165722 	1.38777878078145e-17 	0.124876997185883 	0.0099765438206081 	0.673488160295303 	4.14868131843086e-05 	0
3 	2.46596014135207 	1.38777878078145e-17 	0.125026314578013 	0.00966161950091928 	0.686750406371475 	3.09727656607786e-05 	0
3 	2.49001316823443 	1.73472347597681e-17 	0.125162803874687 	0.00936971275383715 	0.703197539956941 	2.45733769898049e-05 	0
3 	2.51321620011054 	2.08166817117217e-17 	0.125287552109094 	0.00909985420695728 	0.72302802639778 	2.23676477337935e-05 	0
3 	2.535599274427 	2.42861286636753e-17 	0.125401570786116 	0.00885120441732494 	0.746477441434189 	2.4503277839057e-05 	0
3 	2.55719136715571 	2.42861286636753e-17 	0.125505798034342 	0.00862304551817876 	0.773819635047572 	3.11958056097466e-05 	0
3 	2.57802043030465 	2.08166817117217e-17 	0.125601100691918 	0.00841476876885657 	0.80536778997859 	4.2726521828137e-05 	0
3 	2.59811342810315 	2.08166817117217e-17 	0.125688276382124 	0.0082258584614239 	0.841475333631091 	5.94388986934904e-05 	0
3 	2.61749637190832 	2.08166817117217e-17 	0.125768055651475 	0.00805587260383592 	0.882536707068052 	8.17333641607236e-05 	0
3 	2.63619435387806 	1.73472347597681e-17 	0.125841104252349 	0.00790442089932934 	0.928988076314925 	0.000110060459407296 	0
3 	2.65423157945406 	1.04083408558608e-17 	0.125908025651703 	0.00777114076766013 	0.981308195741293 	0.000144912755929269 	0
3 	2.67163139869691 	6.93889390390723e-18 	0.125969363836213 	0.00765567247819298 	1.0400198025178 	0.000186816372693002 	0
3 	2.68841633651388 	1.04083408558608e-17 	0.126025606461871 	0.0075576348338615 	1.10569212810855 	0.000236323482303278 	0
3 	2.7046081218185 	1.38777878078145e-17 	0.126077188364082 	0.00747660317711066 	1.1789453389558 	0.000294007747079706 	0
3 	2.72022771565972 	1.38777878078145e-17 	0.126124495405602 	0.007412091682435 	1.26045793318668 	0.000360465064799654 	0
3 	2.73529533835694 	1.38777878078145e-17 	0.126167868598932 	0.00736354185206437 	1.35097828370319 	0.000436322199710433 	0
3 	2.74983049567625 	1.38777878078145e-17 	0.126207608403079 	0.00733031876556498 	1.45134159021227 	0.000522255720058865 	0
3 	2.76385200408156 	1.38777878078145e-17 	0.126243979067988 	0.00731171593126515 	1.56249345490974 	0.000619023114829228 	0
3 	2.77737801509343 	1.04083408558608e-17 	0.126277212888467 	0.00730696860515963 	1.68552112380572 	0.00072750706618854 	0
3 	2.79042603878708 	6.93889390390723e-18 	0.126307514235761 	0.00731527431534391 	1.82169316487766 	0.00084877274518084 	0
3 	2.80301296646003 	1.04083408558608e-17 	0.126335063258452 	0.00733581824146505 	1.97250804308995 	0.000984136861200028 	0
3 	2.81515509249872 	1.38777878078145e-17 	0.126360019182062 	0.00736780023894475 	2.13975178003326 	0.0011352462013166 	0
3 	2.82686813547237 	1.38777878078145e-17 	0.126382523185107 	0.00741045981458016 	2.32556474015403 	0.00130416263688388 	0
3 	2.83816725848142 	1.04083408558608e-17 	0.126402700882177 	0.00746309532874379 	2.53251765478845 	0.00149345103651547 	0
3 	2.84906708878691 	6.93889390390723e-18 	0.126420664471605 	0.00752507412229731 	2.76369737564625 	0.00170626610222616 	0
3 	2.85958173674616 	6.93889390390723e-18 	0.126436514571306 	0.00759583110457577 	3.02280366830361 	0.0019464337144319 	0
3 	2.86972481407933 	3.46944695195361e-18 	0.12645034191363 	0.0076748545622356 	3.31425980380696 	0.00221852188481765 	0
3 	2.87950945149043 	0 	0.126462230004865 	0.00776165958350025 	3.64334205823582 	0.00252789594133978 	0
3 	2.88894831566566 	0 	0.126472259102407 	0.00785575164363272 	4.01633685379543 	0.00288075177526022 	0
3 	2.89805362567106 	3.46944695195361e-18 	0.126480499316119 	0.00795658575488483 	4.44073968050063 	0.00328414284044867 	0
3 	2.90683716877067 	1.04083408558608e-17 	0.126486972012997 	0.00806352931398895 	4.92551743391734 	0.00375060028121073 	0
3 	2.91531031568569 	1.38777878078145e-17 	0.126491754079394 	0.00817573443232639 	5.48193400665945 	0.00430317016072953 	0
3 	2.92348403531448 	1.38777878078145e-17 	0.126495183608821 	0.0082917962952394 	6.12550064654678 	0.00495214190962397 	0
3 	2.93136890893229 	1.38777878078145e-17 	0.126497449456157 	0.00840938014552525 	6.87490363481093 	0.00572587267705837 	0
3 	2.93897514388925 	1.38777878078145e-17 	0.126498356382929 	0.00852364986775679 	7.74847297316835 	0.00663348345967733 	0
3 	2.94631258682425 	1.38777878078145e-17 	0.126497762828333 	0.00862705199540437 	8.76423294849829 	0.0076768398054216 	0
3 	2.95339073641193 	1.73472347597681e-17 	0.12649570460402 	0.00870954342322943 	9.94244619203747 	0.00885689233718407 	0
3 	2.96021875565915 	2.08166817117217e-17 	0.126492288427819 	0.00875868983013044 	11.3081019906834 	0.0101729431782771 	0
3 	2.96680548376697 	1.73472347597681e-17 	0.12648765306643 	0.00875954835054086 	12.8927618690568 	0.0116203735713149 	0
3 	2.97315944757337 	1.38777878078145e-17 	0.126481970608074 	0.00869431138565501 	14.7397675846107 	0.0131873839746363 	0
3 	2.97928887259171 	1.38777878078145e-17 	0.126475449627047 	0.00854159900345581 	16.9129676382834 	0.0148492500484612 	0
3 	2.98520169365902 	1.73472347597681e-17 	0.126468328668284 	0.00827538453005548 	19.5086649975252 	0.016558282505998 	0
3 	2.99090556520806 	2.08166817117217e-17 	0.126460870300503 	0.0078635397684395 	22.6755002174887 	0.0182150898465379 	0
3 	2.99640787117633 	2.42861286636753e-17 	0.126453376549916 	0.00726700954563974 	26.6514598773399 	0.0196136134838061 	0
3 	3.00171573456492 	2.77555756156289e-17 	0.126446172812533 	0.00644300124819963 	31.8436941213872 	0.0204174902015541 	0
3 	3.00683602665962 	2.77555756156289e-17 	0.126439579016754 	0.00535293460475985 	39.035970186619 	0.0199592290834112 	0
3 	3.01177537592612 	2.77555756156289e-17 	0.126433984520093 	0.00399269879171299 	49.989380763683 	0.0169910878535671 	0
3 	3.01654017659085 	2.77555756156289e-17 	0.126429713798272 	0.00249357199042155 	69.5029589300053 	0.0110353150502821 	0
3 	3.02113659691864 	2.42861286636753e-17 	0.126426747009507 	0.00119460101618485 	113.858504675238 	0.0047005437134247 	0
3 	3.02557058719784 	2.08166817117217e-17 	0.126424663794191 	0.00040078057762189 	255.259110761525 	0.00114188292764241 	0
3 	3.02984788744324 	2.42861286636753e-17 	0.126422953142207 	8.32389409313801e-05 	1055.45833176465 	0.000134765394738644 	0
