3 	0.0039111296779626 	0 	-0.0329072190490586 	8.62298970447289e-05 	3.29882056124637e-21
3 	0.0118766651674914 	1.73472347597681e-18 	-0.0928412237871719 	0.000255936846332176 	3.77224276596195e-21
3 	0.0201340015485761 	5.20417042793042e-18 	-0.143436275862516 	0.000559930158145349 	-4.66917216504254e-21
3 	0.0286938283423949 	5.20417042793042e-18 	-0.179121424912108 	0.000889557016071616 	1.7129957625026e-21
3 	0.0375672266585909 	5.20417042793042e-18 	-0.198093021278966 	0.0011352167410184 	1.37879272440337e-21
3 	0.0467656835403032 	3.46944695195361e-18 	-0.20594477017422 	0.00128943131511165 	-2.98423177176274e-21
3 	0.0563011068347006 	0 	-0.208281664844383 	0.00138468330692012 	-2.53081206668479e-21
3 	0.0661858406082647 	0 	-0.208006670528884 	0.00144362487386583 	-4.51189865972926e-22
3 	0.0764326811267815 	3.46944695195361e-18 	-0.206367611741641 	0.0014771685545197 	8.78544594240748e-23
3 	0.0870548934207257 	6.93889390390723e-18 	-0.203912293476248 	0.00149087027163159 	-5.91151194621915e-22
3 	0.0980662284574838 	3.46944695195361e-18 	-0.200900930669449 	0.0014878059095393 	8.56047872824992e-23
3 	0.109480940942647 	-5.20417042793042e-18 	-0.197465902275288 	0.00146963713666477 	6.9117686546561e-22
3 	0.121313807773416 	-1.73472347597681e-18 	-0.193677018494746 	0.00143713587433027 	7.29291079192534e-22
3 	0.13358014716801 	3.46944695195361e-18 	-0.189570573226593 	0.00139047617282917 	8.18189173460877e-22
3 	0.146295838495838 	-3.46944695195361e-18 	-0.185163359571872 	0.00132939052228617 	3.43338850129464e-22
3 	0.159477342834115 	-1.38777878078145e-17 	-0.180459895094813 	0.00125324798754534 	2.82093362878119e-22
3 	0.173141724277517 	-2.42861286636753e-17 	-0.175456340986965 	0.00116108998307468 	7.22341244442084e-22
3 	0.18730667202848 	-2.42861286636753e-17 	-0.170142697433879 	0.00105163945760089 	-6.16632703467522e-22
3 	0.201990523296728 	-1.38777878078145e-17 	-0.164504040837207 	0.000923293967834309 	-5.99154070528814e-22
3 	0.217212287037676 	-1.04083408558608e-17 	-0.158521197409552 	0.000774105402311374 	5.52082827330867e-22
3 	0.232991668560441 	-2.08166817117217e-17 	-0.152171061293951 	0.000601748662916237 	1.15603009185484e-22
3 	0.249349095037321 	-2.08166817117217e-17 	-0.145426659936703 	0.000403479826155651 	4.6192236884334e-22
3 	0.266305741947753 	-1.38777878078145e-17 	-0.138257048536156 	0.000176084911086023 	5.4858109387783e-22
3 	0.283883560490998 	-1.38777878078145e-17 	-0.130627082977147 	-8.41797631905926e-05 	-1.19380345716476e-22
3 	0.30210530600303 	-1.73472347597681e-17 	-0.122497058933388 	-0.000381656173626319 	-1.04419980374592e-21
3 	0.320994567414413 	-2.42861286636753e-17 	-0.113822209179989 	-0.000721361608209514 	-2.46452162982963e-22
3 	0.34057579778732 	-3.12250225675825e-17 	-0.104552056959673 	-0.00110907316224692 	0
3 	0.3608743459712 	-3.46944695195361e-17 	-0.0946295948729011 	-0.00155141727546248 	-1.29562712058644e-17
3 	0.38191648941809 	-3.81639164714898e-17 	-0.083990247448568 	-0.00205595805681904 	-3.00949735967854e-17
3 	0.403729468200046 	-4.5102810375397e-17 	-0.0725605969282438 	-0.0026312805828402 	1.53361527787635e-17
3 	0.426341520272733 	-5.20417042793042e-17 	-0.0602568282802121 	-0.00328705568568148 	-1.05132312899203e-17
3 	0.449781918030828 	-5.89805981832114e-17 	-0.04698279893828 	-0.00403407593588775 	2.46140919288824e-17
3 	0.474081006202548 	-6.24500451351651e-17 	-0.0326276406288669 	-0.00488426487008711 	1.60828900284273e-17
3 	0.496091159820835 	-6.59194920871187e-17 	-0.0190716798979575 	-0.00572326329373919 	1.29223703461415e-21
3 	0.508912316744007 	-7.28583859910259e-17 	-0.0109724596340895 	-0.00623690939460253 	1.39672606384389e-21
3 	0.525382231502762 	-6.93889390390723e-17 	-0.000155469307013595 	-0.00694569265754546 	-3.28441557243791e-23
3 	0.552450780547767 	-6.24500451351651e-17 	0.0182750601878078 	-0.00818210353129802 	-9.50229173519774e-22
3 	0.580510929812849 	-5.55111512312578e-17 	0.0384841043267112 	-0.00957585504734297 	1.18142123819423e-21
3 	0.60959900451791 	-3.81639164714898e-17 	0.0609766097773356 	-0.0111605680698563 	-1.3920441293084e-22
3 	0.639752660582032 	-3.46944695195361e-17 	0.0866584689644781 	-0.0129910638546416 	-1.89333248879367e-21
3 	0.671010933370886 	-4.16333634234434e-17 	0.116559031562419 	-0.0151241017021257 	-1.54310906362441e-21
3 	0.7034142882299 	-3.81639164714898e-17 	0.151341133964383 	-0.0175622832609969 	1.10135476367596e-21
3 	0.737004672868605 	-2.42861286636753e-17 	0.191190366917992 	-0.0202473112929493 	-3.91878731681534e-21
3 	0.771825571663975 	-2.08166817117217e-17 	0.235886504425837 	-0.0230774405644456 	-6.83579187757903e-21
3 	0.807922061953053 	-2.08166817117217e-17 	0.284875340350475 	-0.0259301727722732 	2.68757840627896e-21
3 	0.845340872387742 	-1.04083408558608e-17 	0.337356941562231 	-0.0286879271174844 	5.36506368053146e-21
3 	0.884130443427308 	-3.46944695195361e-18 	0.392404287690289 	-0.0312530945756767 	-2.98903290125528e-17
3 	0.924340990046896 	0 	0.449074726147845 	-0.0335462444293551 	-1.25644830326171e-16
3 	0.966024566743241 	0 	0.506450874938379 	-0.0354938353940101 	1.29822215556193e-16
3 	1.00923513492173 	0 	0.563585473165894 	-0.0370186359890523 	2.14415100135303e-17
3 	1.05402863275205 	0 	0.619392592652926 	-0.0380451677670854 	-7.9855490275736e-24
3 	1.10046304758287 	0 	0.672586901737002 	-0.0385255618347475 	-9.54793200627876e-21
3 	1.14859849100923 	0 	0.72182962864407 	-0.0384598782971734 	-1.0412291020697e-20
3 	1.19849727668994 	1.04083408558608e-17 	0.766296948368191 	-0.0378682030537542 	-2.10929581119706e-20
3 	1.25022400101563 	1.73472347597681e-17 	0.805707088275567 	-0.0369304372868509 	-4.64921807817566e-22
3 	1.30384562673185 	1.73472347597681e-17 	0.840015963082133 	-0.0358286654640886 	-2.15576488679903e-20
3 	1.35943156962565 	1.98408997564847e-17 	0.869701815436405 	-0.0347609053994332 	-2.13112630888318e-20
3 	1.41705378838762 	1.76724954115137e-17 	0.895646131688213 	-0.0337880305015272 	-6.30251099147832e-18
3 	1.47678687776592 	1.34441069388203e-17 	0.918974625361584 	-0.0328934091728198 	-1.78738035935132e-17
3 	1.53870816513277 	1.12757025938492e-17 	0.940555343908952 	-0.032030249912532 	1.39590934609042e-20
3 	1.60289781058851 	1.30104260698261e-17 	0.960908673634486 	-0.0311482170317969 	1.30654136795708e-20
3 	1.66943891073266 	1.21430643318376e-17 	0.980288993194798 	-0.030205011832881 	-1.43283639339193e-21
3 	1.73841760623657 	1.21430643318376e-17 	0.998784916358222 	-0.0291686392599375 	-3.62472954019127e-21
3 	1.80992319335659 	1.56125112837913e-17 	1.01638943910652 	-0.0280189538652374 	-4.26562900437437e-21
3 	1.88404823953248 	1.21430643318376e-17 	1.03302660776843 	-0.0267459306110282 	-7.31652215937022e-21
3 	1.96088870322037 	6.93889390390723e-18 	1.0479878485802 	-0.0254093850853022 	-8.44986631779056e-21
3 	2.02025965173184 	6.93889390390723e-18 	1.05882450622568 	-0.0243094231247384 	-2.87225214134255e-21
3 	2.06006301192217 	6.93889390390723e-18 	1.06611632954042 	-0.0234807530735138 	0
3 	2.09845978584128 	6.93889390390723e-18 	1.0721761966914 	-0.0227273185567326 	0
3 	2.13549967996945 	6.93889390390723e-18 	1.07761561933587 	-0.0219949266911494 	0
3 	2.17123064424048 	6.93889390390723e-18 	1.08248221902937 	-0.0212819744030049 	0
3 	2.20569893411515 	6.93889390390723e-18 	1.08681908512728 	-0.0205894311857875 	0
3 	2.23894917046122 	6.93889390390723e-18 	1.0906648440226 	-0.0199179345556635 	0
3 	2.27102439731725 	3.46944695195361e-18 	1.09405380581803 	-0.0192676741857381 	0
3 	2.30196613761521 	3.46944695195361e-18 	1.09701615978341 	-0.0186385728894464 	0
3 	2.33181444693391 	6.93889390390723e-18 	1.09957819155663 	-0.0180303629702563 	0
3 	2.3606079653529 	6.93889390390723e-18 	1.10176250335066 	-0.0174426268959498 	0
3 	2.3883839674739 	6.93889390390723e-18 	1.10358822575536 	-0.0168748334914938 	0
3 	2.41517841067461 	1.04083408558608e-17 	1.10507121523854 	-0.0163263690675782 	0
3 	2.44102598165722 	1.38777878078145e-17 	1.10622423547647 	-0.0157965628025506 	0
3 	2.46596014135207 	1.38777878078145e-17 	1.10705712351254 	-0.0152847072684382 	0
3 	2.49001316823443 	1.73472347597681e-17 	1.10757694379929 	-0.0147900749751377 	-1.31666471559599e-16
3 	2.51321620011054 	2.08166817117217e-17 	1.10778813468207 	-0.0143119315863743 	-4.91029272012604e-16
3 	2.535599274427 	2.42861286636753e-17 	1.10769265296973 	-0.0138495463329251 	5.13666849501414e-16
3 	2.55719136715571 	2.42861286636753e-17 	1.10729012291935 	-0.0134022000495522 	1.35536872419371e-16
3 	2.57802043030465 	2.08166817117217e-17 	1.10657799614567 	-0.0129691911642387 	0
3 	2.59811342810315 	2.08166817117217e-17 	1.10555172846939 	-0.0125498398717715 	0
3 	2.61749637190832 	2.08166817117217e-17 	1.10420497831039 	-0.0121434906323309 	0
3 	2.63619435387806 	1.73472347597681e-17 	1.10252982867901 	-0.0117495130549873 	0
3 	2.65423157945406 	1.04083408558608e-17 	1.10051703096889 	-0.0113673011639009 	0
3 	2.67163139869691 	6.93889390390723e-18 	1.09815626363233 	-0.0109962710115142 	0
3 	2.68841633651388 	1.04083408558608e-17 	1.09543639272777 	-0.0106358566083667 	0
3 	2.7046081218185 	1.38777878078145e-17 	1.09234571491881 	-0.0102855041912682 	0
3 	2.72022771565972 	1.38777878078145e-17 	1.08887215776083 	-0.0099446649529076 	0
3 	2.73529533835694 	1.38777878078145e-17 	1.08500340823208 	-0.0096127865005558 	0
3 	2.74983049567625 	1.38777878078145e-17 	1.08072693960593 	-0.00928930348339035 	0
3 	2.76385200408156 	1.38777878078145e-17 	1.07602990971453 	-0.00897362800247027 	0
3 	2.77737801509343 	1.04083408558608e-17 	1.0708989105505 	-0.00866514056556112 	0
3 	2.79042603878708 	6.93889390390723e-18 	1.06531955931328 	-0.00836318244453921 	0
3 	2.80301296646003 	1.04083408558608e-17 	1.05927593302396 	-0.0080670503195876 	0
3 	2.81515509249872 	1.38777878078145e-17 	1.05274986090281 	-0.00777599404948956 	0
3 	2.82686813547237 	1.38777878078145e-17 	1.04572009907397 	-0.00748921829875841 	0
3 	2.83816725848142 	1.04083408558608e-17 	1.03816141953208 	-0.0072058885889134 	0
3 	2.84906708878691 	6.93889390390723e-18 	1.03004364901408 	-0.00692514215818574 	0
3 	2.85958173674616 	6.93889390390723e-18 	1.02133069332173 	-0.00664610393710582 	0
3 	2.86972481407933 	3.46944695195361e-18 	1.01197957879635 	-0.00636790781752571 	0
3 	2.87950945149043 	0 	1.00193953501961 	-0.00608972135912732 	0
3 	2.88894831566566 	0 	0.991151131328815 	-0.00581076856945858 	0
3 	2.89805362567106 	3.46944695195361e-18 	0.979545465503048 	-0.00553036384225679 	0
3 	2.90683716877067 	1.04083408558608e-17 	0.967043304054684 	-0.00524808518656696 	0
3 	2.91531031568569 	1.38777878078145e-17 	0.953539243569425 	-0.00496339918250024 	0
3 	2.92348403531448 	1.38777878078145e-17 	0.938850049626146 	-0.00467418702410035 	0
3 	2.93136890893229 	1.38777878078145e-17 	0.922735031349648 	-0.00437779971485995 	0
3 	2.93897514388925 	1.38777878078145e-17 	0.904975183979294 	-0.00407279264546021 	0
3 	2.94631258682425 	1.38777878078145e-17 	0.88537792560966 	-0.00375961336191443 	0
3 	2.95339073641193 	1.73472347597681e-17 	0.863759485518121 	-0.00344010071054432 	0
3 	2.96021875565915 	2.08166817117217e-17 	0.839927924957706 	-0.00311683388784112 	0
3 	2.96680548376697 	1.73472347597681e-17 	0.813666420491108 	-0.0027928719696276 	0
3 	2.97315944757337 	1.38777878078145e-17 	0.784714000062901 	-0.00247158601702535 	0
3 	2.97928887259171 	1.38777878078145e-17 	0.752741310822545 	-0.00215649178528762 	0
3 	2.98520169365902 	1.73472347597681e-17 	0.717318611176959 	-0.00185111532765433 	0
3 	2.99090556520806 	2.08166817117217e-17 	0.677869618515868 	-0.00155888675002547 	0
3 	2.99640787117633 	2.42861286636753e-17 	0.633615386522679 	-0.00128299168159106 	0
3 	3.00171573456492 	2.77555756156289e-17 	0.583551339911307 	-0.00102659245277603 	0
3 	3.00683602665962 	2.77555756156289e-17 	0.526395336163019 	-0.000792771473591548 	0
3 	3.01177537592612 	2.77555756156289e-17 	0.460490676579085 	-0.000583246134209319 	0
3 	3.01654017659085 	2.77555756156289e-17 	0.384553708902963 	-0.000399527627840778 	0
3 	3.02113659691864 	2.42861286636753e-17 	0.299960324101768 	-0.00024538647942905 	0
3 	3.02557058719784 	2.08166817117217e-17 	0.21158307779966 	-0.000127178028497993 	0
3 	3.02984788744324 	2.42861286636753e-17 	0.124480415230157 	-4.8848509887995e-05 	0
