1 	0.72186260648534 	1.73472347597681e-17 	0.0472951874026877 	1.22166771902494e-07 	2640.91620237324 	1.3684419040214e-09 	3.53096608092586e-38
1 	0.726974263978419 	1.56125112837913e-17 	0.0472694308282584 	1.32587739792559e-06 	828.597994992327 	3.01607255976945e-08 	0
1 	0.732273073361977 	1.56125112837913e-17 	0.0472392915340314 	6.97186906214428e-06 	204.602852021164 	2.65836871885699e-07 	0
1 	0.737765882993609 	1.90819582357449e-17 	0.0472097838126676 	2.35302505132847e-05 	85.1339205696289 	1.29212239308252e-06 	0
1 	0.743459791556242 	2.42861286636753e-17 	0.0471801115268178 	6.03370681679219e-05 	45.0086723271315 	4.07507047205088e-06 	0
1 	0.74936215718884 	2.25514051876985e-17 	0.0471498895474502 	0.000129045355700554 	27.1637290957591 	9.04199042971835e-06 	0
1 	0.755480606948831 	1.38777878078145e-17 	0.0471192064497973 	0.000242014110672274 	17.7962487112188 	1.42910084684849e-05 	0
1 	0.761823046618211 	1.21430643318376e-17 	0.0470883498313855 	0.000408725298090138 	12.3371128950358 	1.52928945259998e-05 	0
1 	0.768397670865725 	2.08166817117217e-17 	0.0470578739225317 	0.000630957550856235 	8.95337752186059 	9.7473398763284e-06 	0
1 	0.775212973777957 	2.77555756156289e-17 	0.0470286909249073 	0.000900590251614146 	6.79386586607614 	3.84052696945002e-06 	0
1 	0.782277759772617 	3.29597460435593e-17 	0.047002014729868 	0.00120428217902685 	5.40226488986239 	9.02880205652915e-06 	0
1 	0.78960115490778 	3.29597460435593e-17 	0.0469791509319895 	0.00153059245797882 	4.50452553441146 	3.28148352038243e-05 	0
1 	0.797192618601344 	3.29597460435593e-17 	0.046961245727394 	0.00187394212775065 	3.92958822089349 	7.69081433749367e-05 	0
1 	0.805061955775449 	3.81639164714898e-17 	0.0469491617363609 	0.00223447342282352 	3.57257482811547 	0.000141694106396588 	0
1 	0.813219329441158 	4.33680868994202e-17 	0.0469435069577061 	0.00261653818151482 	3.37172252272094 	0.000229772890193048 	0
1 	0.82167527373921 	4.68375338513738e-17 	0.0469446971341822 	0.00302759832932705 	3.29312014781645 	0.000347331608290142 	0
1 	0.830440707453236 	4.85722573273506e-17 	0.0469529617692525 	0.00347794620540344 	3.32148097279371 	0.000504914540060737 	0
1 	0.839526948012412 	5.03069808033274e-17 	0.0469684273322423 	0.00398067857835514 	3.45445260321101 	0.000718321235668016 	0
1 	0.848945726001124 	4.85722573273506e-17 	0.0469917788958979 	0.00455072821369297 	3.69581704175083 	0.00101085707372513 	0
1 	0.858709200193822 	4.68375338513738e-17 	0.0470261584858116 	0.00520138357371975 	4.0439079812758 	0.00141778394400757 	0
1 	0.868829973133921 	5.3776427755281e-17 	0.0470767417695092 	0.00594123128159576 	4.48122562167319 	0.00199990393940093 	0
1 	0.879321107276245 	5.72458747072346e-17 	0.0471457702398673 	0.00677953524082312 	4.99171796802526 	0.0028360990180864 	0
1 	0.890196141713217 	5.55111512312578e-17 	0.0472365826636452 	0.00772363606652778 	5.57737633875735 	0.00402029612409254 	0
1 	0.90146910950571 	4.85722573273506e-17 	0.0473457169647254 	0.00876505298927839 	6.23887185065561 	0.00570117269515963 	0
1 	0.913154555640207 	4.16333634234434e-17 	0.047454486793621 	0.00988687395733261 	6.96445524438763 	0.0078681018463771 	0
1 	0.92526755563471 	4.85722573273506e-17 	0.0475634305333348 	0.0110546692971269 	7.71614227802172 	0.0104763590199844 	0
1 	0.937823734816585 	5.3776427755281e-17 	0.0476887858939417 	0.0121965742755662 	8.4219087405225 	0.013288398445569 	0
1 	0.950839288296425 	4.5102810375397e-17 	0.047833386100174 	0.0132186655610676 	8.97034733538321 	0.0158315667864408 	0
1 	0.96433100166278 	3.98986399474666e-17 	0.047991866946716 	0.0140510427056082 	9.25762649444648 	0.0176045667395226 	0
1 	0.978316272423567 	3.98986399474666e-17 	0.0481542796368313 	0.0146736258484487 	9.23138244602066 	0.0182131603228009 	0
1 	0.992813132220821 	3.98986399474666e-17 	0.0483094534697195 	0.0151094571354038 	8.88827654592811 	0.0175304284095557 	0
1 	1.00784026984644 	3.98986399474666e-17 	0.0484505827325587 	0.0154111263965031 	8.27034381936327 	0.0157583504287576 	0
1 	1.02341705508757 	4.33680868994202e-17 	0.0485685273335306 	0.0156432324284514 	7.45677132953989 	0.0133294575804004 	0
1 	1.03956356343115 	5.03069808033274e-17 	0.0486612838260158 	0.0158659298872721 	6.54544907993877 	0.0107372126959324 	0
1 	1.05630060165851 	4.33680868994202e-17 	0.0487130554979386 	0.0161236163773151 	5.63438141263027 	0.00839676184511642 	0
1 	1.07364973436162 	3.81639164714898e-17 	0.0486959323172152 	0.0164381521526785 	4.79066455948098 	0.00634750484514987 	0
1 	1.091633311414 	4.16333634234434e-17 	0.0486301427723713 	0.0168196760609017 	4.05124063934276 	0.00488365927209646 	0
1 	1.11027449643034 	4.5102810375397e-17 	0.0485389142735685 	0.0172581155901976 	3.44076299788696 	0.00390123713305568 	0
1 	1.1295972962502 	4.85722573273506e-17 	0.0484189088962283 	0.0177336260480389 	2.97024370966477 	0.00327128345787987 	0
1 	1.14962659148233 	4.5102810375397e-17 	0.0482785262496042 	0.0182257988315514 	2.62727785194562 	0.00288741161436902 	0
1 	1.17038816814745 	4.16333634234434e-17 	0.0481352087003654 	0.0187181962785914 	2.37995250127142 	0.00266803641615319 	0
1 	1.19190875045884 	3.81639164714898e-17 	0.0480012475359626 	0.019197456811845 	2.19570422219376 	0.00255048998321649 	0
1 	1.2142160347814 	4.16333634234434e-17 	0.0478807882412982 	0.0196518766526853 	2.05078328177791 	0.00249027470567151 	0
1 	1.23733872481109 	4.85722573273506e-17 	0.0477738670816908 	0.0200709527064089 	1.93040838964924 	0.00245975614660921 	0
1 	1.26130656801881 	4.16333634234434e-17 	0.0476799573563772 	0.0204454165878167 	1.82613433946181 	0.00244374707842869 	0
1 	1.28615039340353 	2.77555756156289e-17 	0.047599415477363 	0.0207673210049591 	1.73333233323716 	0.00243442019755684 	0
1 	1.31190215060192 	2.08166817117217e-17 	0.0475337587542192 	0.021030026794829 	1.64940701321503 	0.00242739405327958 	0
1 	1.33859495040276 	1.38777878078145e-17 	0.0474854716291448 	0.0212281097007059 	1.57270570209829 	0.00241936637138978 	0
1 	1.36626310671677 	1.04083408558608e-17 	0.0474576159777977 	0.0213572615212587 	1.50194722768447 	0.00240703914899836 	0
1 	1.3949421800539 	1.04083408558608e-17 	0.0474534126461672 	0.0214142477190243 	1.43599162355559 	0.00238692975762296 	0
1 	1.42466902256228 	1.38777878078145e-17 	0.0474759202652901 	0.0213969441929733 	1.37379804169154 	0.00235566034006498 	0
1 	1.45548182468505 	2.08166817117217e-17 	0.0475278617235528 	0.0213044380557124 	1.31445965426647 	0.00231039316660788 	0
1 	1.48742016349314 	2.08166817117217e-17 	0.0476115751649092 	0.0211371547465782 	1.25724878736395 	0.00224920021412867 	0
1 	1.52052505275458 	2.08166817117217e-17 	0.0477290320286741 	0.0208969680753018 	1.20164223207212 	0.00217127471675178 	0
1 	1.55483899480282 	1.38777878078145e-17 	0.0478818695595391 	0.0205872554769735 	1.14732052196135 	0.00207697680915098 	0
1 	1.5904060342692 	3.46944695195361e-18 	0.0480714094230829 	0.0202128714924266 	1.09414642350862 	0.00196774574630378 	0
1 	1.627271813747 	-1.04083408558608e-17 	0.0482986575096639 	0.0197800241914187 	1.04213068953929 	0.0018459186661118 	0
1 	1.66548363145696 	-2.08166817117217e-17 	0.0485642924285632 	0.0192960505053873 	0.991391770098848 	0.0017144893342439 	0
1 	1.70509050098717 	-2.77555756156289e-17 	0.0488686515923358 	0.0187690969159391 	0.942114067068079 	0.00157683439054765 	0
1 	1.74614321318255 	-3.46944695195361e-17 	0.0492117203003567 	0.018207720734508 	0.894508003575753 	0.00143643397107257 	0
1 	1.78869440026235 	-3.46944695195361e-17 	0.0495931273442295 	0.0176204321180905 	0.848774656756978 	0.00129661471321026 	0
1 	1.83279860224716 	-2.77555756156289e-17 	0.0500121354711962 	0.0170151950604987 	0.805077311231515 	0.00116034056567746 	0
1 	1.87851233577965 	-1.38777878078145e-17 	0.0504675518404055 	0.0163988945254486 	0.763521478405486 	0.00103007708961179 	0
1 	1.92589416542708 	-6.93889390390723e-18 	0.0509578171055919 	0.0157767566602241 	0.724143510136027 	0.000907690496573525 	0
1 	1.97500477755671 	-6.93889390390723e-18 	0.0515093641463504 	0.0151252081473568 	0.685276096522712 	0.000790059510830151 	0
1 	2.04004996790234 	-6.93889390390723e-18 	0.0522235907437355 	0.0143525203006493 	0.641364841228786 	0.000662957761481783 	0
1 	2.11873460271874 	-6.93889390390723e-18 	0.0530709629215568 	0.013511982744465 	0.595928960681914 	0.000536402211587176 	0
1 	2.19463865000285 	-6.93889390390723e-18 	0.0539219428931595 	0.0127328872584485 	0.555932428964806 	0.000431894218796719 	0
1 	2.26786037121375 	-6.93889390390723e-18 	0.054739451181386 	0.0120298936436526 	0.521749396337506 	0.000349449236386366 	0
1 	2.33849455540975 	-1.04083408558608e-17 	0.055518331992712 	0.0113886279937048 	0.492303976019049 	0.00028378290815216 	0
1 	2.40663264195737 	-1.73472347597681e-17 	0.0562559883465625 	0.0107988639289477 	0.466836343660773 	0.000230930331728335 	0
1 	2.47236283890404 	-2.08166817117217e-17 	0.0569514626072073 	0.0102534324524454 	0.444797245055499 	0.000187982087521575 	0
1 	2.5357702371677 	-2.08166817117217e-17 	0.0576048759065129 	0.00974715281994797 	0.42577610529184 	0.000152782200960855 	0
1 	2.59693692069108 	-2.08166817117217e-17 	0.0582171091540622 	0.00927615089212912 	0.409460807824218 	0.000123713981540947 	0
1 	2.65594207270333 	-1.73472347597681e-17 	0.0587895457922133 	0.00883740950575458 	0.395609340711987 	9.9549719517815e-05 	0
1 	2.71286207822658 	-1.38777878078145e-17 	0.0593238922859242 	0.00842845352194334 	0.384030747171116 	7.93499484017563e-05 	0
1 	2.76777062296 	-1.38777878078145e-17 	0.0598220453257779 	0.00804719771731931 	0.374575929150332 	6.23948589845295e-05 	0
1 	2.8207387886695 	-1.38777878078145e-17 	0.0602859936936312 	0.00769186677717784 	0.367131544316753 	4.81359754375533e-05 	0
1 	2.87183514520655 	-1.38777878078145e-17 	0.0607177483005661 	0.00736093963214242 	0.361615872142181 	3.61607305821826e-05 	0
1 	2.92112583927514 	-1.38777878078145e-17 	0.0611192940295827 	0.0070531109297476 	0.357976303846828 	2.61658136525043e-05 	0
1 	2.9686746800619 	-1.04083408558608e-17 	0.0614925575426603 	0.00676726588309517 	0.356187916083152 	1.79368767883198e-05 	0
