0 	3.27286e-06 	4.71292e-05 	47.7073 	5.58433e-17 	5.8623e-16
0 	9.79743e-06 	0.000141083 	47.7011 	2.19832e-16 	1.99993e-15
0 	1.62798e-05 	0.00023443 	47.6951 	2.59884e-16 	2.92678e-15
0 	2.27203e-05 	0.000327172 	47.689 	2.2667e-16 	2.88184e-15
0 	2.91192e-05 	0.000419316 	47.6829 	1.88395e-16 	2.63939e-15
0 	3.54766e-05 	0.000510864 	47.6769 	1.58127e-16 	2.64557e-15
0 	4.1793e-05 	0.00060182 	47.671 	1.25489e-16 	2.87469e-15
0 	4.80686e-05 	0.000692188 	47.665 	9.5196e-17 	3.12289e-15
0 	5.43036e-05 	0.000781971 	47.6591 	6.05191e-17 	3.28597e-15
0 	6.04982e-05 	0.000871175 	47.6532 	1.37285e-17 	3.43286e-15
0 	6.66529e-05 	0.000959801 	47.6474 	-2.82443e-17 	3.62592e-15
0 	7.27677e-05 	0.00104786 	47.6416 	-4.5625e-17 	3.84636e-15
0 	7.8843e-05 	0.00113534 	47.6358 	-4.14865e-17 	4.01881e-15
0 	8.48791e-05 	0.00122226 	47.63 	-4.21641e-17 	4.09584e-15
0 	8.99195e-05 	0.00129484 	47.6252 	-5.77337e-17 	4.11864e-15
0 	9.29083e-05 	0.00133788 	47.6205 	-7.34294e-17 	4.14226e-15
0 	9.68343e-05 	0.00139441 	47.6091 	-8.99137e-17 	4.21482e-15
0 	0.000102754 	0.00147966 	47.5918 	-1.22116e-16 	4.26356e-15
0 	0.000108636 	0.00156435 	47.5747 	-1.68262e-16 	4.20869e-15
0 	0.000114479 	0.0016485 	47.5576 	-2.13632e-16 	4.17544e-15
0 	0.000120285 	0.0017321 	47.5407 	-2.56042e-16 	4.17581e-15
0 	0.000126053 	0.00181516 	47.5238 	-2.79672e-16 	4.05911e-15
0 	0.000131784 	0.00189768 	47.5071 	-2.76909e-16 	3.85212e-15
0 	0.000137477 	0.00197967 	47.4905 	-2.48556e-16 	3.72424e-15
0 	0.000143134 	0.00206114 	47.474 	-1.85054e-16 	3.744e-15
0 	0.000148755 	0.00214207 	47.4576 	-8.2134e-17 	3.92334e-15
0 	0.000154339 	0.00222248 	47.4413 	-1.36129e-17 	4.21941e-15
0 	0.000159887 	0.00230237 	47.4251 	-1.80213e-17 	4.41953e-15
0 	0.000165399 	0.00238175 	47.409 	-4.29005e-17 	4.35754e-15
0 	0.000170876 	0.00246061 	47.393 	-1.66608e-17 	4.23889e-15
0 	0.000174574 	0.00251387 	47.3822 	3.12679e-17 	4.26955e-15
0 	0.000177286 	0.00255292 	47.371 	7.54056e-17 	4.38835e-15
0 	0.000181722 	0.0026168 	47.3496 	1.08786e-16 	4.58521e-15
0 	0.000187093 	0.00269415 	47.3237 	7.99467e-17 	4.79583e-15
0 	0.00019243 	0.00277099 	47.2979 	7.93137e-19 	4.94095e-15
0 	0.000197731 	0.00284733 	47.2723 	-8.44702e-17 	5.04373e-15
0 	0.000202999 	0.00292318 	47.2469 	-1.40425e-16 	5.0694e-15
0 	0.000208232 	0.00299855 	47.2217 	-1.27955e-16 	5.00438e-15
0 	0.000213432 	0.00307342 	47.1966 	-3.09825e-17 	4.92574e-15
0 	0.000218598 	0.00314781 	47.1716 	8.57912e-17 	4.96953e-15
0 	0.00022373 	0.00322172 	47.1469 	1.75224e-16 	5.16987e-15
0 	0.00022883 	0.00329515 	47.1223 	2.32543e-16 	5.45231e-15
0 	0.000233896 	0.00336811 	47.0978 	2.07854e-16 	5.68297e-15
0 	0.00023893 	0.00344059 	47.0735 	6.39012e-17 	5.72769e-15
0 	0.000243931 	0.00351261 	47.0494 	-1.04261e-16 	5.59808e-15
0 	0.0002489 	0.00358416 	47.0254 	-1.60947e-16 	5.45425e-15
0 	0.000251457 	0.00362098 	47.013 	-1.48264e-16 	5.40383e-15
0 	0.000253917 	0.00365641 	46.9966 	-1.03734e-16 	5.37207e-15
0 	0.000258741 	0.00372588 	46.9642 	-1.66855e-17 	5.32412e-15
0 	0.000263614 	0.00379605 	46.9314 	5.18658e-17 	5.30441e-15
0 	0.000268456 	0.00386577 	46.8988 	7.22543e-17 	5.30637e-15
0 	0.000273266 	0.00393503 	46.8665 	8.12753e-17 	5.2814e-15
0 	0.000278045 	0.00400385 	46.8343 	1.61903e-16 	5.19107e-15
0 	0.000282794 	0.00407223 	46.8024 	3.10116e-16 	5.12766e-15
0 	0.000287511 	0.00414016 	46.7706 	4.42935e-16 	5.15014e-15
0 	0.000292198 	0.00420766 	46.7391 	4.77176e-16 	5.18912e-15
0 	0.000296855 	0.00427471 	46.7078 	4.11334e-16 	5.22701e-15
0 	0.000301482 	0.00434134 	46.6766 	3.18792e-16 	5.2788e-15
0 	0.000306079 	0.00440753 	46.6457 	2.08055e-16 	5.28267e-15
0 	0.000310646 	0.0044733 	46.615 	4.67015e-17 	5.21175e-15
0 	0.000315183 	0.00453864 	46.5844 	-1.20901e-16 	5.13226e-15
0 	0.000319033 	0.00459408 	46.5585 	-2.11841e-16 	5.0805e-15
0 	0.00032128 	0.00462643 	46.5421 	-2.36246e-16 	5.05056e-15
0 	0.00032417 	0.00466805 	46.5171 	-2.10612e-16 	4.94845e-15
0 	0.00032862 	0.00473213 	46.4785 	-1.10024e-16 	4.74339e-15
0 	0.000333042 	0.0047958 	46.4402 	2.22808e-17 	4.57002e-15
0 	0.000337435 	0.00485906 	46.4022 	1.39961e-16 	4.49578e-15
0 	0.000341799 	0.0049219 	46.3644 	2.52639e-16 	4.43857e-15
0 	0.000346135 	0.00498434 	46.3268 	3.62092e-16 	4.30498e-15
0 	0.000350443 	0.00504638 	46.2895 	4.53011e-16 	4.10189e-15
0 	0.000354723 	0.00510802 	46.2524 	4.89321e-16 	3.88828e-15
0 	0.000358976 	0.00516925 	46.2155 	4.59019e-16 	3.70846e-15
0 	0.000363201 	0.00523009 	46.1789 	4.02496e-16 	3.57373e-15
0 	0.000367399 	0.00529054 	46.1425 	3.67582e-16 	3.46304e-15
0 	0.000371569 	0.0053506 	46.1064 	3.81543e-16 	3.32853e-15
0 	0.000375713 	0.00541027 	46.0705 	4.56349e-16 	3.17103e-15
0 	0.00037983 	0.00546955 	46.0348 	5.56853e-16 	3.0321e-15
0 	0.000382654 	0.00551022 	46.0103 	6.11835e-16 	2.95475e-15
0 	0.000384692 	0.00553957 	45.9901 	6.28908e-16 	2.91209e-15
0 	0.000387984 	0.00558697 	45.955 	6.44142e-16 	2.92561e-15
0 	0.000392022 	0.00564511 	45.912 	6.51162e-16 	3.0615e-15
0 	0.000396033 	0.00570288 	45.8692 	6.65578e-16 	3.21596e-15
0 	0.000400019 	0.00576027 	45.8267 	6.91432e-16 	3.28026e-15
0 	0.000403978 	0.00581729 	45.7844 	7.02562e-16 	3.26202e-15
0 	0.000407913 	0.00587394 	45.7425 	6.91689e-16 	3.16983e-15
0 	0.000411821 	0.00593023 	45.7008 	6.81925e-16 	3.01987e-15
0 	0.000415705 	0.00598615 	45.6593 	6.80253e-16 	2.90174e-15
0 	0.000419563 	0.00604171 	45.6182 	6.73938e-16 	2.89166e-15
0 	0.000423397 	0.00609691 	45.5773 	6.44394e-16 	2.93534e-15
0 	0.000427205 	0.00615175 	45.5366 	6.1944e-16 	2.89601e-15
0 	0.000430989 	0.00620624 	45.4962 	6.0955e-16 	2.74864e-15
0 	0.000434749 	0.00626038 	45.4561 	6.0002e-16 	2.5816e-15
0 	0.000438484 	0.00631417 	45.4162 	5.84356e-16 	2.44114e-15
0 	0.000440433 	0.00634224 	45.3954 	5.74457e-16 	2.37523e-15
0 	0.000442283 	0.00636887 	45.3719 	5.44994e-16 	2.32643e-15
0 	0.000445882 	0.0064207 	45.326 	4.82377e-16 	2.25845e-15
0 	0.000449545 	0.00647345 	45.2793 	4.14935e-16 	2.19312e-15
0 	0.000453185 	0.00652586 	45.2328 	3.44096e-16 	2.07445e-15
0 	0.000456801 	0.00657794 	45.1866 	2.44549e-16 	1.95188e-15
0 	0.000460394 	0.00662967 	45.1407 	1.25999e-16 	1.85976e-15
0 	0.000463963 	0.00668107 	45.0951 	2.88795e-17 	1.76012e-15
0 	0.00046751 	0.00673214 	45.0498 	-4.76899e-17 	1.66976e-15
0 	0.000471033 	0.00678288 	45.0048 	-1.14402e-16 	1.63208e-15
0 	0.000474534 	0.00683329 	44.9601 	-1.63828e-16 	1.64096e-15
0 	0.000478012 	0.00688337 	44.9156 	-2.20911e-16 	1.62602e-15
0 	0.000481467 	0.00693313 	44.8714 	-2.67497e-16 	1.52943e-15
0 	0.000484901 	0.00698257 	44.8275 	-2.44461e-16 	1.42476e-15
0 	0.000488312 	0.00703169 	44.7838 	-1.87848e-16 	1.38227e-15
0 	0.000491218 	0.00707354 	44.7466 	-1.64527e-16 	1.37e-15
0 	0.000492907 	0.00709787 	44.724 	-1.66137e-16 	1.3616e-15
0 	0.000495068 	0.00712897 	44.6916 	-1.68996e-16 	1.33922e-15
0 	0.000498413 	0.00717715 	44.6414 	-1.51717e-16 	1.29295e-15
0 	0.000501737 	0.00722501 	44.5915 	-1.06849e-16 	1.238e-15
0 	0.000505039 	0.00727256 	44.5419 	-7.07657e-17 	1.21319e-15
0 	0.00050832 	0.0073198 	44.4926 	-6.30687e-17 	1.25393e-15
0 	0.000511579 	0.00736674 	44.4437 	-6.69694e-17 	1.33178e-15
0 	0.000514818 	0.00741338 	44.395 	-7.47147e-17 	1.3909e-15
0 	0.000518036 	0.00745971 	44.3466 	-1.06334e-16 	1.41145e-15
0 	0.000521232 	0.00750575 	44.2985 	-1.39253e-16 	1.38027e-15
0 	0.000524408 	0.00755148 	44.2508 	-1.35419e-16 	1.33318e-15
0 	0.000527564 	0.00759692 	44.2033 	-1.12241e-16 	1.31858e-15
0 	0.000530699 	0.00764207 	44.1561 	-9.43844e-17 	1.32434e-15
0 	0.000533814 	0.00768693 	44.1091 	-1.01329e-16 	1.30211e-15
0 	0.000536909 	0.00773149 	44.0625 	-1.21419e-16 	1.21047e-15
0 	0.000539031 	0.00776205 	44.0305 	-1.27247e-16 	1.13351e-15
0 	0.000540564 	0.00778412 	44.0051 	-1.18552e-16 	1.10312e-15
0 	0.000543039 	0.00781976 	43.9619 	-1.0577e-16 	1.11377e-15
0 	0.000546074 	0.00786347 	43.9089 	-8.30058e-17 	1.16713e-15
0 	0.00054909 	0.00790689 	43.8562 	-4.41925e-17 	1.16629e-15
0 	0.000552086 	0.00795003 	43.8038 	-1.17298e-18 	1.10924e-15
0 	0.000555062 	0.0079929 	43.7518 	4.75021e-17 	1.0503e-15
0 	0.00055802 	0.00803549 	43.7 	1.01254e-16 	9.8792e-16
0 	0.000560958 	0.0080778 	43.6485 	1.47157e-16 	9.05812e-16
0 	0.000563878 	0.00811984 	43.5974 	1.86774e-16 	8.39808e-16
0 	0.000566778 	0.0081616 	43.5465 	2.09981e-16 	8.0822e-16
0 	0.00056966 	0.0082031 	43.496 	2.20256e-16 	7.87612e-16
0 	0.000572523 	0.00824433 	43.4457 	2.2154e-16 	8.00545e-16
0 	0.000575367 	0.00828529 	43.3958 	2.06898e-16 	8.51399e-16
0 	0.000578194 	0.00832599 	43.3461 	1.85637e-16 	8.94923e-16
0 	0.000581002 	0.00836642 	43.2967 	1.81932e-16 	9.39419e-16
0 	0.000582454 	0.00838734 	43.2712 	1.89112e-16 	9.70426e-16
0 	0.000583844 	0.00840736 	43.2432 	2.04944e-16 	1.00435e-15
0 	0.000586563 	0.00844651 	43.188 	2.30231e-16 	1.04093e-15
0 	0.000589317 	0.00848616 	43.1322 	2.47692e-16 	1.02073e-15
0 	0.000592053 	0.00852556 	43.0766 	2.51664e-16 	9.94478e-16
0 	0.000594771 	0.00856471 	43.0214 	2.43624e-16 	1.03526e-15
0 	0.000597472 	0.0086036 	42.9665 	2.48132e-16 	1.12601e-15
0 	0.000600155 	0.00864224 	42.9119 	2.52826e-16 	1.20911e-15
0 	0.000602821 	0.00868063 	42.8577 	2.3973e-16 	1.25072e-15
0 	0.00060547 	0.00871877 	42.8037 	2.27483e-16 	1.22291e-15
0 	0.000608102 	0.00875666 	42.75 	2.17284e-16 	1.13956e-15
0 	0.000610716 	0.00879431 	42.6966 	2.14952e-16 	1.05636e-15
0 	0.000613314 	0.00883172 	42.6436 	2.16377e-16 	1.01892e-15
0 	0.000615895 	0.00886888 	42.5908 	2.06584e-16 	1.01754e-15
0 	0.000618459 	0.00890581 	42.5383 	1.97448e-16 	1.01614e-15
0 	0.00062062 	0.00893693 	42.4941 	2.02392e-16 	1.02543e-15
0 	0.00062189 	0.00895521 	42.4669 	2.09158e-16 	1.04325e-15
0 	0.000623538 	0.00897894 	42.4281 	2.09446e-16 	1.07591e-15
0 	0.000626053 	0.00901516 	42.3689 	1.95525e-16 	1.10487e-15
0 	0.000628551 	0.00905114 	42.3101 	1.65799e-16 	1.07985e-15
0 	0.000631033 	0.00908688 	42.2515 	1.38059e-16 	1.00157e-15
0 	0.0006335 	0.0091224 	42.1933 	1.29131e-16 	9.03967e-16
0 	0.00063595 	0.00915768 	42.1354 	1.06818e-16 	8.5267e-16
0 	0.000638385 	0.00919274 	42.0778 	3.88933e-17 	8.4641e-16
0 	0.000640804 	0.00922757 	42.0206 	-3.86725e-17 	8.09674e-16
0 	0.000643207 	0.00926218 	41.9636 	-8.5327e-17 	7.3312e-16
0 	0.000645594 	0.00929656 	41.9069 	-1.06837e-16 	6.59473e-16
0 	0.000647967 	0.00933072 	41.8506 	-1.17278e-16 	6.01538e-16
0 	0.000650323 	0.00936466 	41.7945 	-1.22972e-16 	5.4558e-16
0 	0.000652665 	0.00939838 	41.7387 	-1.22151e-16 	4.80152e-16
0 	0.000654992 	0.00943188 	41.6832 	-1.16488e-16 	4.17702e-16
0 	0.000656553 	0.00945436 	41.6459 	-1.1112e-16 	3.79138e-16
0 	0.000657705 	0.00947095 	41.6159 	-1.05043e-16 	3.47867e-16
0 	0.0006596 	0.00949823 	41.5643 	-9.1289e-17 	2.96234e-16
0 	0.000661881 	0.00953109 	41.5021 	-7.3569e-17 	2.41837e-16
0 	0.000664148 	0.00956373 	41.4403 	-5.51435e-17 	2.10099e-16
0 	0.0006664 	0.00959617 	41.3787 	-2.66709e-17 	2.2087e-16
0 	0.000668638 	0.00962839 	41.3175 	6.43012e-18 	2.73985e-16
0 	0.000670861 	0.0096604 	41.2565 	3.58099e-17 	3.11239e-16
0 	0.00067307 	0.00969221 	41.1959 	6.91561e-17 	2.95239e-16
0 	0.000675265 	0.00972381 	41.1356 	1.09604e-16 	2.6874e-16
0 	0.000677445 	0.00975521 	41.0756 	1.38185e-16 	2.77061e-16
0 	0.000679612 	0.00978641 	41.0159 	1.40336e-16 	3.06187e-16
0 	0.000681764 	0.0098174 	40.9565 	1.22316e-16 	3.15192e-16
0 	0.000683902 	0.00984819 	40.8974 	9.89717e-17 	2.84209e-16
0 	0.000686027 	0.00987879 	40.8385 	8.15689e-17 	2.26843e-16
0 	0.000688134 	0.00990914 	40.7801 	6.95036e-17 	1.75703e-16
0 	0.000689186 	0.00992428 	40.7508 	6.42043e-17 	1.56037e-16
0 	0.000690235 	0.00993938 	40.7179 	5.77216e-17 	1.53745e-16
0 	0.000692318 	0.00996939 	40.6524 	4.60785e-17 	1.50444e-16
0 	0.000694389 	0.0099992 	40.5873 	4.46578e-17 	1.43524e-16
0 	0.000696445 	0.0100288 	40.5224 	5.44024e-17 	1.31942e-16
0 	0.000698489 	0.0100582 	40.4579 	6.33644e-17 	1.17581e-16
0 	0.000700519 	0.0100875 	40.3937 	7.51835e-17 	1.01716e-16
0 	0.000702536 	0.0101165 	40.3297 	8.65222e-17 	1.02382e-16
0 	0.00070454 	0.0101454 	40.2661 	8.28333e-17 	1.22157e-16
0 	0.000706531 	0.0101741 	40.2028 	6.05232e-17 	1.37468e-16
0 	0.00070851 	0.0102025 	40.1398 	1.84494e-17 	1.35651e-16
0 	0.000710475 	0.0102308 	40.077 	-3.27986e-17 	1.22167e-16
0 	0.000712428 	0.010259 	40.0146 	-7.9042e-17 	1.08142e-16
0 	0.000714368 	0.0102869 	39.9524 	-1.17808e-16 	8.71469e-17
0 	0.000716296 	0.0103147 	39.8905 	-1.47175e-16 	5.12063e-17
0 	0.000717869 	0.0103373 	39.8399 	-1.66088e-16 	2.36276e-17
0 	0.000718824 	0.0103511 	39.8078 	-1.7605e-16 	1.35417e-17
0 	0.000720114 	0.0103696 	39.7611 	-2.02845e-16 	2.18275e-18
0 	0.000722004 	0.0103969 	39.6926 	-2.58811e-16 	-2.25041e-17
0 	0.000723882 	0.0104239 	39.6244 	-3.1293e-16 	-5.55675e-17
0 	0.000725749 	0.0104508 	39.5565 	-3.33875e-16 	-7.78243e-17
0 	0.000727603 	0.0104775 	39.4889 	-3.18847e-16 	-7.46566e-17
0 	0.000729445 	0.010504 	39.4216 	-2.88467e-16 	-5.82417e-17
0 	0.000731275 	0.0105304 	39.3546 	-2.5984e-16 	-5.43959e-17
0 	0.000733093 	0.0105565 	39.2879 	-2.32952e-16 	-6.1781e-17
0 	0.0007349 	0.0105826 	39.2215 	-1.98023e-16 	-6.51343e-17
0 	0.000736695 	0.0106084 	39.1553 	-1.52812e-16 	-5.01107e-17
0 	0.000738478 	0.0106341 	39.0895 	-1.06393e-16 	-1.93726e-17
0 	0.00074025 	0.0106596 	39.0239 	-6.64028e-17 	7.52693e-18
0 	0.00074201 	0.0106849 	38.9586 	-3.68787e-17 	2.54959e-17
0 	0.000743759 	0.0107101 	38.8935 	-1.60363e-17 	5.00562e-17
0 	0.000744874 	0.0107262 	38.852 	-8.41445e-18 	7.31043e-17
0 	0.00074574 	0.0107387 	38.8169 	-1.31615e-17 	9.53794e-17
0 	0.000747223 	0.01076 	38.755 	-2.90271e-17 	1.31359e-16
0 	0.000748938 	0.0107847 	38.6833 	-4.47436e-17 	1.69895e-16
0 	0.000750642 	0.0108092 	38.6118 	-5.0062e-17 	2.05691e-16
0 	0.000752335 	0.0108336 	38.5407 	-5.83941e-17 	2.44924e-16
0 	0.000754017 	0.0108579 	38.4698 	-6.58695e-17 	2.73569e-16
0 	0.000755689 	0.0108819 	38.3992 	-6.26389e-17 	2.72796e-16
0 	0.000757349 	0.0109058 	38.329 	-5.45824e-17 	2.60741e-16
0 	0.000758999 	0.0109296 	38.259 	-4.64122e-17 	2.5566e-16
0 	0.000760638 	0.0109532 	38.1893 	-4.19678e-17 	2.55107e-16
0 	0.000762267 	0.0109766 	38.1198 	-4.75368e-17 	2.63742e-16
0 	0.000763884 	0.0109999 	38.0506 	-6.03096e-17 	2.80059e-16
0 	0.000765492 	0.0110231 	37.9818 	-7.71205e-17 	2.89603e-16
0 	0.000767089 	0.0110461 	37.9131 	-9.48559e-17 	2.8836e-16
0 	0.000768608 	0.011068 	37.8477 	-1.05867e-16 	2.75513e-16
0 	0.000769399 	0.0110793 	37.8132 	-1.09059e-16 	2.64419e-16
0 	0.000770252 	0.0110916 	37.7721 	-1.0937e-16 	2.36765e-16
0 	0.000771819 	0.0111142 	37.6966 	-1.10569e-16 	1.72838e-16
0 	0.000773375 	0.0111366 	37.6213 	-1.08965e-16 	1.06912e-16
0 	0.000774921 	0.0111589 	37.5463 	-1.03165e-16 	6.4186e-17
0 	0.000776457 	0.011181 	37.4717 	-1.03332e-16 	4.52365e-17
0 	0.000777984 	0.011203 	37.3973 	-1.1451e-16 	3.54571e-17
0 	0.0007795 	0.0112248 	37.3232 	-1.26666e-16 	2.203e-17
0 	0.000781006 	0.0112465 	37.2494 	-1.26899e-16 	3.93295e-18
0 	0.000782503 	0.011268 	37.1759 	-1.11841e-16 	-1.34244e-17
0 	0.00078399 	0.0112895 	37.1027 	-8.88838e-17 	-1.59246e-17
0 	0.000785468 	0.0113107 	37.0297 	-6.81287e-17 	1.17926e-17
0 	0.000786936 	0.0113319 	36.957 	-5.50678e-17 	6.07613e-17
0 	0.000788394 	0.0113529 	36.8846 	-5.38382e-17 	1.00002e-16
0 	0.000789843 	0.0113737 	36.8124 	-6.20327e-17 	1.07093e-16
0 	0.000790954 	0.0113897 	36.7569 	-7.17023e-17 	8.81989e-17
0 	0.000791672 	0.0114001 	36.7192 	-7.97654e-17 	6.36959e-17
0 	0.000792714 	0.0114151 	36.6612 	-9.24097e-17 	1.69973e-17
0 	0.000794135 	0.0114355 	36.5818 	-1.04583e-16 	-4.75749e-17
0 	0.000795547 	0.0114559 	36.5028 	-1.08576e-16 	-9.58484e-17
0 	0.000796949 	0.0114761 	36.4241 	-1.07196e-16 	-1.29425e-16
0 	0.000798343 	0.0114961 	36.3457 	-1.00675e-16 	-1.50662e-16
0 	0.000799728 	0.0115161 	36.2675 	-9.13849e-17 	-1.45914e-16
0 	0.000801104 	0.0115359 	36.1897 	-8.33788e-17 	-1.21341e-16
0 	0.000802471 	0.0115556 	36.1122 	-7.45256e-17 	-1.17554e-16
0 	0.000803829 	0.0115751 	36.0349 	-6.51567e-17 	-1.45778e-16
0 	0.000805178 	0.0115946 	35.9579 	-5.80997e-17 	-1.7862e-16
0 	0.000806519 	0.0116139 	35.8812 	-4.8801e-17 	-2.04177e-16
0 	0.00080785 	0.011633 	35.8048 	-3.87836e-17 	-2.28519e-16
0 	0.000809174 	0.0116521 	35.7287 	-3.00781e-17 	-2.53212e-16
0 	0.000810488 	0.011671 	35.6528 	-1.60019e-17 	-2.85281e-16
0 	0.000811249 	0.011682 	35.6088 	-4.06779e-18 	-3.08076e-16
0 	0.0008119 	0.0116914 	35.5676 	1.10458e-17 	-3.27994e-16
0 	0.000813092 	0.0117085 	35.4907 	3.47576e-17 	-3.51734e-16
0 	0.000814382 	0.0117271 	35.4074 	4.99749e-17 	-3.58907e-16
0 	0.000815663 	0.0117455 	35.3244 	5.17143e-17 	-3.58277e-16
0 	0.000816936 	0.0117639 	35.2417 	4.19253e-17 	-3.52069e-16
0 	0.0008182 	0.0117821 	35.1593 	2.48407e-17 	-3.3783e-16
0 	0.000819457 	0.0118002 	35.0773 	5.80123e-18 	-3.21802e-16
0 	0.000820705 	0.0118182 	34.9955 	-9.3427e-18 	-3.13648e-16
0 	0.000821945 	0.011836 	34.9141 	-1.57719e-17 	-3.17906e-16
0 	0.000823177 	0.0118538 	34.8329 	-1.34348e-17 	-3.22312e-16
0 	0.000824401 	0.0118714 	34.752 	-4.77329e-18 	-3.1005e-16
0 	0.000825618 	0.0118889 	34.6715 	6.1464e-20 	-2.75427e-16
0 	0.000826826 	0.0119063 	34.5912 	-6.43317e-18 	-2.37425e-16
0 	0.000828027 	0.0119236 	34.5112 	-1.63054e-17 	-2.20883e-16
0 	0.000829086 	0.0119388 	34.4405 	-2.25356e-17 	-2.21308e-16
0 	0.00082968 	0.0119474 	34.3997 	-2.53641e-17 	-2.23201e-16
0 	0.000830405 	0.0119578 	34.3458 	-2.78972e-17 	-2.2242e-16
0 	0.000831582 	0.0119748 	34.258 	-3.25431e-17 	-2.22479e-16
0 	0.000832752 	0.0119916 	34.1706 	-4.07316e-17 	-2.31144e-16
0 	0.000833914 	0.0120084 	34.0835 	-5.21765e-17 	-2.48249e-16
0 	0.000835069 	0.012025 	33.9968 	-6.14285e-17 	-2.64243e-16
0 	0.000836217 	0.0120415 	33.9104 	-6.40965e-17 	-2.6826e-16
0 	0.000837356 	0.0120579 	33.8243 	-5.99353e-17 	-2.59722e-16
0 	0.000838489 	0.0120742 	33.7385 	-5.28197e-17 	-2.48334e-16
0 	0.000839614 	0.0120904 	33.653 	-4.77384e-17 	-2.36711e-16
0 	0.000840732 	0.0121065 	33.5679 	-4.29582e-17 	-2.21956e-16
0 	0.000841843 	0.0121225 	33.4831 	-3.4947e-17 	-1.99355e-16
0 	0.000842946 	0.0121384 	33.3986 	-2.8236e-17 	-1.64025e-16
0 	0.000844043 	0.0121542 	33.3145 	-2.87555e-17 	-1.27468e-16
0 	0.000845132 	0.0121699 	33.2307 	-3.70187e-17 	-1.13148e-16
0 	0.00084588 	0.0121807 	33.173 	-4.58529e-17 	-1.18948e-16
0 	0.000846419 	0.0121884 	33.1285 	-5.41263e-17 	-1.31491e-16
0 	0.00084729 	0.012201 	33.0537 	-6.57485e-17 	-1.49661e-16
0 	0.000848358 	0.0122164 	32.9617 	-7.64114e-17 	-1.61802e-16
0 	0.000849419 	0.0122316 	32.8701 	-8.56398e-17 	-1.56124e-16
0 	0.000850474 	0.0122468 	32.7789 	-9.64651e-17 	-1.37308e-16
0 	0.000851522 	0.0122619 	32.6881 	-1.07492e-16 	-1.262e-16
0 	0.000852563 	0.0122769 	32.5976 	-1.16197e-16 	-1.38351e-16
0 	0.000853597 	0.0122918 	32.5074 	-1.18134e-16 	-1.64447e-16
0 	0.000854624 	0.0123066 	32.4177 	-1.11321e-16 	-1.85661e-16
0 	0.000855645 	0.0123213 	32.3282 	-1.04442e-16 	-1.89458e-16
0 	0.00085666 	0.0123359 	32.2392 	-1.05277e-16 	-1.83514e-16
0 	0.000857667 	0.0123504 	32.1505 	-1.08661e-16 	-1.79475e-16
0 	0.000858669 	0.0123648 	32.0622 	-1.09778e-16 	-1.73874e-16
0 	0.000859663 	0.0123792 	31.9742 	-1.09397e-16 	-1.65735e-16
0 	0.00086064 	0.0123932 	31.8876 	-1.0853e-16 	-1.65568e-16
0 	0.000861132 	0.0124003 	31.8438 	-1.08061e-16 	-1.69212e-16
0 	0.000861634 	0.0124075 	31.7942 	-1.07416e-16 	-1.76351e-16
0 	0.000862609 	0.0124216 	31.6976 	-1.04987e-16 	-1.85647e-16
0 	0.000863579 	0.0124355 	31.6015 	-1.03279e-16 	-1.90703e-16
0 	0.000864542 	0.0124494 	31.5058 	-1.03665e-16 	-2.01681e-16
0 	0.000865498 	0.0124632 	31.4105 	-1.00773e-16 	-2.12353e-16
0 	0.000866449 	0.0124769 	31.3156 	-9.40588e-17 	-2.09356e-16
0 	0.000867393 	0.0124905 	31.2211 	-8.47796e-17 	-2.01663e-16
0 	0.000868332 	0.012504 	31.127 	-7.13893e-17 	-1.98862e-16
0 	0.000869264 	0.0125174 	31.0333 	-6.07989e-17 	-1.93645e-16
0 	0.00087019 	0.0125307 	30.94 	-5.37793e-17 	-1.84106e-16
0 	0.000871111 	0.012544 	30.8471 	-4.59354e-17 	-1.76105e-16
0 	0.000872025 	0.0125572 	30.7546 	-3.7339e-17 	-1.73033e-16
0 	0.000872933 	0.0125702 	30.6625 	-2.96017e-17 	-1.75469e-16
0 	0.000873836 	0.0125832 	30.5707 	-2.18147e-17 	-1.81182e-16
0 	0.000874537 	0.0125933 	30.4993 	-1.52875e-17 	-1.85465e-16
0 	0.000874984 	0.0125998 	30.4515 	-1.08027e-17 	-1.87505e-16
0 	0.000875624 	0.012609 	30.3789 	-5.16386e-18 	-1.94369e-16
0 	0.000876509 	0.0126217 	30.2783 	2.35531e-19 	-2.07909e-16
0 	0.000877388 	0.0126344 	30.1781 	9.6301e-19 	-2.13447e-16
0 	0.000878262 	0.012647 	30.0783 	-2.26375e-18 	-2.05915e-16
0 	0.00087913 	0.0126595 	29.979 	-4.85351e-18 	-2.0085e-16
0 	0.000879993 	0.0126719 	29.8802 	-4.90326e-18 	-2.04804e-16
0 	0.000880849 	0.0126842 	29.7817 	-3.50253e-18 	-2.06686e-16
0 	0.000881701 	0.0126965 	29.6838 	-6.96255e-18 	-1.90292e-16
0 	0.000882547 	0.0127087 	29.5862 	-1.90657e-17 	-1.59623e-16
0 	0.000883387 	0.0127208 	29.4891 	-3.39819e-17 	-1.35746e-16
0 	0.000884222 	0.0127328 	29.3924 	-4.59815e-17 	-1.22715e-16
0 	0.000885052 	0.0127447 	29.2961 	-5.62353e-17 	-1.11001e-16
0 	0.000885876 	0.0127566 	29.2003 	-6.52723e-17 	-9.72871e-17
0 	0.000886695 	0.0127684 	29.1049 	-7.02521e-17 	-8.04604e-17
0 	0.000887158 	0.0127751 	29.0509 	-7.13833e-17 	-6.9681e-17
0 	0.000887564 	0.0127809 	28.9989 	-7.23725e-17 	-6.23513e-17
0 	0.000888317 	0.0127918 	28.9009 	-7.72052e-17 	-5.34656e-17
0 	0.00088912 	0.0128033 	28.7962 	-8.52128e-17 	-4.6906e-17
0 	0.000889918 	0.0128148 	28.692 	-9.49136e-17 	-4.05286e-17
0 	0.00089071 	0.0128262 	28.5883 	-1.06605e-16 	-4.37909e-17
0 	0.000891498 	0.0128376 	28.4851 	-1.14784e-16 	-6.26758e-17
0 	0.000892281 	0.0128488 	28.3823 	-1.15426e-16 	-8.63925e-17
0 	0.000893058 	0.01286 	28.2801 	-1.14203e-16 	-1.02339e-16
0 	0.00089383 	0.0128712 	28.1783 	-1.13092e-16 	-1.13442e-16
0 	0.000894598 	0.0128822 	28.0769 	-1.09956e-16 	-1.24659e-16
0 	0.00089536 	0.0128932 	27.9761 	-1.05833e-16 	-1.29125e-16
0 	0.000896118 	0.0129041 	27.8757 	-1.02818e-16 	-1.23621e-16
0 	0.000896871 	0.0129149 	27.7758 	-9.94182e-17 	-1.14461e-16
0 	0.000897618 	0.0129257 	27.6763 	-9.6342e-17 	-1.06377e-16
0 	0.00089825 	0.0129348 	27.5922 	-9.51639e-17 	-9.85305e-17
0 	0.000898621 	0.0129401 	27.5411 	-9.5021e-17 	-9.25492e-17
0 	0.0008991 	0.012947 	27.4699 	-9.36136e-17 	-8.27886e-17
0 	0.000899833 	0.0129576 	27.3607 	-8.96057e-17 	-7.14222e-17
0 	0.000900562 	0.0129681 	27.2521 	-8.45267e-17 	-6.90888e-17
0 	0.000901286 	0.0129785 	27.144 	-8.22626e-17 	-7.011e-17
0 	0.000902005 	0.0129889 	27.0364 	-8.30415e-17 	-6.99753e-17
0 	0.000902719 	0.0129992 	26.9293 	-8.07531e-17 	-6.80102e-17
0 	0.000903429 	0.0130094 	26.8228 	-7.23518e-17 	-6.03944e-17
0 	0.000904135 	0.0130195 	26.7167 	-5.95459e-17 	-4.67413e-17
0 	0.000904836 	0.0130296 	26.6112 	-4.2131e-17 	-3.15e-17
0 	0.000905532 	0.0130397 	26.5061 	-2.24407e-17 	-1.81142e-17
0 	0.000906224 	0.0130496 	26.4016 	-4.48958e-18 	-6.29026e-18
0 	0.000906911 	0.0130595 	26.2976 	7.76365e-18 	6.23895e-18
0 	0.000907594 	0.0130694 	26.1941 	1.33477e-17 	2.22019e-17
0 	0.000908273 	0.0130791 	26.0911 	1.44205e-17 	3.87404e-17
0 	0.000908694 	0.0130852 	26.027 	1.4314e-17 	4.57305e-17
0 	0.00090903 	0.01309 	25.9715 	1.40698e-17 	4.40262e-17
0 	0.000909616 	0.0130985 	25.8721 	1.56062e-17 	3.68577e-17
0 	0.000910282 	0.0131081 	25.759 	1.8999e-17 	3.33103e-17
0 	0.000910943 	0.0131176 	25.6466 	1.99754e-17 	4.58297e-17
0 	0.0009116 	0.013127 	25.5346 	1.90167e-17 	6.39639e-17
0 	0.000912252 	0.0131364 	25.4233 	1.81275e-17 	7.57492e-17
0 	0.000912901 	0.0131458 	25.3125 	1.70399e-17 	8.44349e-17
0 	0.000913545 	0.013155 	25.2023 	1.4371e-17 	9.74952e-17
0 	0.000914185 	0.0131643 	25.0925 	1.07749e-17 	1.1458e-16
0 	0.000914821 	0.0131734 	24.9834 	8.02009e-18 	1.29833e-16
0 	0.000915452 	0.0131825 	24.8748 	5.95811e-18 	1.40332e-16
0 	0.00091608 	0.0131916 	24.7667 	3.8349e-18 	1.49126e-16
0 	0.000916704 	0.0132005 	24.6592 	-1.09494e-19 	1.60845e-16
0 	0.000917323 	0.0132095 	24.5522 	-5.19486e-18 	1.74025e-16
0 	0.000917873 	0.0132174 	24.4571 	-1.06635e-17 	1.84429e-16
0 	0.00091818 	0.0132218 	24.4027 	-1.43137e-17 	1.89662e-16
0 	0.000918551 	0.0132271 	24.3312 	-2.13671e-17 	1.94244e-16
0 	0.000919158 	0.0132359 	24.2139 	-3.20742e-17 	1.96747e-16
0 	0.000919762 	0.0132446 	24.0972 	-3.87732e-17 	1.93417e-16
0 	0.000920362 	0.0132532 	23.9811 	-4.49114e-17 	1.89682e-16
0 	0.000920958 	0.0132618 	23.8656 	-5.40923e-17 	1.84299e-16
0 	0.00092155 	0.0132703 	23.7507 	-6.26261e-17 	1.74252e-16
0 	0.000922138 	0.0132788 	23.6364 	-6.48337e-17 	1.63832e-16
0 	0.000922722 	0.0132872 	23.5226 	-6.05764e-17 	1.58424e-16
0 	0.000923303 	0.0132956 	23.4095 	-5.59658e-17 	1.58932e-16
0 	0.00092388 	0.0133039 	23.2969 	-5.41775e-17 	1.61832e-16
0 	0.000924453 	0.0133121 	23.1849 	-5.21972e-17 	1.6293e-16
0 	0.000925023 	0.0133203 	23.0734 	-4.77841e-17 	1.60278e-16
0 	0.000925589 	0.0133285 	22.9626 	-4.26224e-17 	1.56234e-16
0 	0.000926151 	0.0133366 	22.8523 	-3.92174e-17 	1.52973e-16
0 	0.000926516 	0.0133418 	22.7806 	-3.86617e-17 	1.5126e-16
0 	0.000926794 	0.0133458 	22.7216 	-3.99947e-17 	1.50505e-16
0 	0.000927264 	0.0133526 	22.6189 	-4.38541e-17 	1.5173e-16
0 	0.000927815 	0.0133605 	22.4983 	-5.1193e-17 	1.54477e-16
0 	0.000928363 	0.0133684 	22.3783 	-6.08148e-17 	1.51703e-16
0 	0.000928907 	0.0133763 	22.259 	-7.16299e-17 	1.40805e-16
0 	0.000929448 	0.0133841 	22.1403 	-8.22674e-17 	1.27035e-16
0 	0.000929985 	0.0133918 	22.0223 	-9.09732e-17 	1.15236e-16
0 	0.000930519 	0.0133995 	21.9048 	-9.45204e-17 	1.04532e-16
0 	0.000931049 	0.0134071 	21.788 	-9.25136e-17 	9.28113e-17
0 	0.000931576 	0.0134147 	21.6717 	-8.8675e-17 	8.08705e-17
0 	0.0009321 	0.0134222 	21.5561 	-8.50742e-17 	6.89982e-17
0 	0.00093262 	0.0134297 	21.4411 	-8.19927e-17 	5.86036e-17
0 	0.000933136 	0.0134372 	21.3267 	-7.92908e-17 	5.23385e-17
0 	0.00093365 	0.0134446 	21.2128 	-7.52311e-17 	4.87411e-17
0 	0.000934111 	0.0134512 	21.1105 	-6.93543e-17 	4.4986e-17
0 	0.000934365 	0.0134549 	21.0529 	-6.55401e-17 	4.24221e-17
0 	0.000934667 	0.0134592 	20.9787 	-6.19419e-17 	4.18301e-17
0 	0.00093517 	0.0134664 	20.8547 	-5.7418e-17 	4.40368e-17
0 	0.00093567 	0.0134737 	20.7314 	-5.52142e-17 	4.91319e-17
0 	0.000936167 	0.0134808 	20.6089 	-5.43807e-17 	5.42311e-17
0 	0.000936661 	0.0134879 	20.4869 	-5.37611e-17 	5.76639e-17
0 	0.000937152 	0.013495 	20.3657 	-5.26554e-17 	5.93919e-17
0 	0.000937639 	0.013502 	20.2451 	-5.08161e-17 	6.02015e-17
0 	0.000938123 	0.013509 	20.1251 	-4.89028e-17 	6.01537e-17
0 	0.000938604 	0.0135159 	20.0058 	-4.75308e-17 	6.13562e-17
0 	0.000939082 	0.0135228 	19.8871 	-4.77707e-17 	6.58712e-17
0 	0.000939557 	0.0135296 	19.769 	-5.05462e-17 	6.96949e-17
0 	0.000940029 	0.0135364 	19.6515 	-5.48827e-17 	6.87068e-17
0 	0.000940498 	0.0135432 	19.5347 	-6.02734e-17 	6.62241e-17
0 	0.000940964 	0.0135499 	19.4186 	-6.56694e-17 	6.36824e-17
0 	0.000941263 	0.0135542 	19.344 	-6.82792e-17 	6.13561e-17
0 	0.000941493 	0.0135575 	19.2821 	-6.89536e-17 	5.89771e-17
0 	0.000941886 	0.0135632 	19.1739 	-6.92268e-17 	5.59357e-17
0 	0.000942343 	0.0135697 	19.0479 	-6.81621e-17 	5.56774e-17
0 	0.000942797 	0.0135763 	18.9226 	-6.67845e-17 	5.82048e-17
0 	0.000943248 	0.0135828 	18.798 	-6.48643e-17 	5.97834e-17
0 	0.000943696 	0.0135892 	18.6741 	-6.1047e-17 	6.07042e-17
0 	0.000944141 	0.0135956 	18.551 	-5.62271e-17 	6.41302e-17
0 	0.000944583 	0.013602 	18.4285 	-5.18239e-17 	6.94444e-17
0 	0.000945022 	0.0136083 	18.3066 	-4.75865e-17 	7.34066e-17
0 	0.000945459 	0.0136146 	18.1853 	-4.33338e-17 	7.54725e-17
0 	0.000945893 	0.0136209 	18.0648 	-3.77618e-17 	7.74738e-17
0 	0.000946324 	0.0136271 	17.9449 	-3.06366e-17 	8.11604e-17
0 	0.000946752 	0.0136332 	17.8257 	-2.39053e-17 	8.72858e-17
0 	0.000947177 	0.0136393 	17.7071 	-1.9991e-17 	9.4824e-17
0 	0.000947547 	0.0136447 	17.6037 	-1.92958e-17 	1.00763e-16
0 	0.000947758 	0.0136477 	17.5435 	-1.98167e-17 	1.03501e-16
0 	0.000948019 	0.0136515 	17.4632 	-2.00783e-17 	1.06386e-16
0 	0.000948437 	0.0136575 	17.3351 	-2.02263e-17 	1.11404e-16
0 	0.000948851 	0.0136635 	17.2077 	-2.06887e-17 	1.16342e-16
0 	0.000949263 	0.0136694 	17.081 	-2.18984e-17 	1.20711e-16
0 	0.000949672 	0.0136753 	16.955 	-2.38704e-17 	1.26169e-16
0 	0.000950078 	0.0136811 	16.8297 	-2.62719e-17 	1.32103e-16
0 	0.000950482 	0.0136869 	16.7052 	-2.86685e-17 	1.36181e-16
0 	0.000950883 	0.0136927 	16.5812 	-3.14076e-17 	1.37255e-16
0 	0.000951282 	0.0136985 	16.4579 	-3.36695e-17 	1.3425e-16
0 	0.000951678 	0.0137042 	16.3353 	-3.4146e-17 	1.29973e-16
0 	0.000952072 	0.0137098 	16.2134 	-3.46734e-17 	1.28442e-16
0 	0.000952463 	0.0137155 	16.0922 	-3.71223e-17 	1.26143e-16
0 	0.000952851 	0.0137211 	15.9716 	-3.92892e-17 	1.18575e-16
0 	0.000953237 	0.0137266 	15.8518 	-3.91235e-17 	1.08512e-16
0 	0.000953466 	0.0137299 	15.7806 	-3.84464e-17 	1.02895e-16
0 	0.000953657 	0.0137327 	15.7169 	-3.8283e-17 	9.89075e-17
0 	0.000954001 	0.0137376 	15.6002 	-3.84962e-17 	9.16554e-17
0 	0.00095438 	0.0137431 	15.4719 	-3.93815e-17 	8.28158e-17
0 	0.000954756 	0.0137485 	15.3444 	-4.09117e-17 	7.22618e-17
0 	0.000955129 	0.0137539 	15.2176 	-4.27825e-17 	6.06163e-17
0 	0.000955501 	0.0137592 	15.0915 	-4.37449e-17 	4.82333e-17
0 	0.000955869 	0.0137645 	14.9663 	-4.34434e-17 	3.5287e-17
0 	0.000956236 	0.0137698 	14.8417 	-4.23551e-17 	2.29434e-17
0 	0.0009566 	0.013775 	14.7178 	-4.04795e-17 	1.17044e-17
0 	0.000956961 	0.0137802 	14.5946 	-3.82422e-17 	1.84153e-18
0 	0.000957321 	0.0137854 	14.4721 	-3.69826e-17 	-5.47949e-18
0 	0.000957678 	0.0137906 	14.3503 	-3.73212e-17 	-1.10867e-17
0 	0.000958032 	0.0137957 	14.2293 	-3.83436e-17 	-1.73631e-17
0 	0.000958385 	0.0138007 	14.109 	-3.93118e-17 	-2.38503e-17
0 	0.000958666 	0.0138048 	14.0129 	-4.04733e-17 	-2.78916e-17
0 	0.000958841 	0.0138073 	13.9515 	-4.16262e-17 	-2.96938e-17
0 	0.000959083 	0.0138108 	13.8628 	-4.37199e-17 	-3.23034e-17