0 	3.27286e-06 	4.71292e-05 	4.99319e-14 	6.51469 	20498.2
0 	9.79743e-06 	0.000141083 	4.87299e-14 	6.52653 	20549.5
0 	1.62798e-05 	0.00023443 	6.0204e-14 	6.53828 	20600.5
0 	2.27203e-05 	0.000327172 	8.99563e-14 	6.54997 	20651.1
0 	2.91192e-05 	0.000419316 	1.31004e-13 	6.56158 	20701.5
0 	3.54766e-05 	0.000510864 	1.75698e-13 	6.57312 	20751.5
0 	4.1793e-05 	0.00060182 	2.21136e-13 	6.58458 	20801.1
0 	4.80686e-05 	0.000692188 	2.66809e-13 	6.59596 	20850.5
0 	5.43036e-05 	0.000781971 	3.14599e-13 	6.60728 	20899.5
0 	6.04982e-05 	0.000871175 	3.63982e-13 	6.61852 	20948.2
0 	6.66529e-05 	0.000959801 	4.12734e-13 	6.62969 	20996.6
0 	7.27677e-05 	0.00104786 	4.59862e-13 	6.64078 	21044.7
0 	7.8843e-05 	0.00113534 	5.05116e-13 	6.6518 	21092.5
0 	8.48791e-05 	0.00122226 	5.49182e-13 	6.66275 	21139.9
0 	8.99195e-05 	0.00129484 	5.85617e-13 	6.6719 	21179.5
0 	9.29083e-05 	0.00133788 	6.07016e-13 	6.68075 	21218.5
0 	9.68343e-05 	0.00139441 	6.34161e-13 	6.70198 	21313
0 	0.000102754 	0.00147966 	6.72542e-13 	6.73399 	21455.5
0 	0.000108636 	0.00156435 	7.07917e-13 	6.76579 	21597
0 	0.000114479 	0.0016485 	7.41085e-13 	6.79738 	21737.6
0 	0.000120285 	0.0017321 	7.69874e-13 	6.82877 	21877.3
0 	0.000126053 	0.00181516 	7.93963e-13 	6.85995 	22016.1
0 	0.000131784 	0.00189768 	8.15482e-13 	6.89093 	22154
0 	0.000137477 	0.00197967 	8.34979e-13 	6.92171 	22291
0 	0.000143134 	0.00206114 	8.5285e-13 	6.95229 	22427.1
0 	0.000148755 	0.00214207 	8.70156e-13 	6.98267 	22562.3
0 	0.000154339 	0.00222248 	8.86312e-13 	7.01285 	22696.7
0 	0.000159887 	0.00230237 	8.9985e-13 	7.04284 	22830.2
0 	0.000165399 	0.00238175 	9.12782e-13 	7.07264 	22962.8
0 	0.000170876 	0.00246061 	9.28597e-13 	7.10224 	23094.6
0 	0.000174574 	0.00251387 	9.40548e-13 	7.12223 	23183.6
0 	0.000177286 	0.00255292 	9.49018e-13 	7.14233 	23276.6
0 	0.000181722 	0.0026168 	9.60976e-13 	7.18019 	23453.9
0 	0.000187093 	0.00269415 	9.73925e-13 	7.22602 	23668.5
0 	0.00019243 	0.00277099 	9.86532e-13 	7.27156 	23881.9
0 	0.000197731 	0.00284733 	9.98368e-13 	7.3168 	24093.8
0 	0.000202999 	0.00292318 	1.00932e-12 	7.36175 	24304.4
0 	0.000208232 	0.00299855 	1.0198e-12 	7.4064 	24513.5
0 	0.000213432 	0.00307342 	1.03116e-12 	7.45077 	24721.4
0 	0.000218598 	0.00314781 	1.04386e-12 	7.49485 	24927.9
0 	0.00022373 	0.00322172 	1.0563e-12 	7.53864 	25133
0 	0.00022883 	0.00329515 	1.06838e-12 	7.58215 	25336.9
0 	0.000233896 	0.00336811 	1.08037e-12 	7.62538 	25539.4
0 	0.00023893 	0.00344059 	1.0918e-12 	7.66832 	25740.6
0 	0.000243931 	0.00351261 	1.10341e-12 	7.71099 	25940.5
0 	0.0002489 	0.00358416 	1.11586e-12 	7.75338 	26139.1
0 	0.000251457 	0.00362098 	1.12237e-12 	7.7752 	26241.3
0 	0.000253917 	0.00365641 	1.12855e-12 	7.80247 	26378.4
0 	0.000258741 	0.00372588 	1.14059e-12 	7.85636 	26649.8
0 	0.000263614 	0.00379605 	1.15257e-12 	7.9108 	26924
0 	0.000268456 	0.00386577 	1.16406e-12 	7.96488 	27196.4
0 	0.000273266 	0.00393503 	1.17459e-12 	8.01862 	27467.1
0 	0.000278045 	0.00400385 	1.18471e-12 	8.072 	27736
0 	0.000282794 	0.00407223 	1.19573e-12 	8.12504 	28003.2
0 	0.000287511 	0.00414016 	1.20665e-12 	8.17773 	28268.6
0 	0.000292198 	0.00420766 	1.21736e-12 	8.23009 	28532.3
0 	0.000296855 	0.00427471 	1.22872e-12 	8.2821 	28794.3
0 	0.000301482 	0.00434134 	1.24009e-12 	8.33378 	29054.6
0 	0.000306079 	0.00440753 	1.25145e-12 	8.38511 	29313.2
0 	0.000310646 	0.0044733 	1.2635e-12 	8.43612 	29570.2
0 	0.000315183 	0.00453864 	1.27681e-12 	8.4868 	29825.5
0 	0.000319033 	0.00459408 	1.28802e-12 	8.5298 	30042.1
0 	0.00032128 	0.00462643 	1.29395e-12 	8.55631 	30180
0 	0.00032417 	0.00466805 	1.30041e-12 	8.59482 	30392.8
0 	0.00032862 	0.00473213 	1.31024e-12 	8.65412 	30720.6
0 	0.000333042 	0.0047958 	1.32032e-12 	8.71303 	31046.2
0 	0.000337435 	0.00485906 	1.32965e-12 	8.77157 	31369.8
0 	0.000341799 	0.0049219 	1.3376e-12 	8.82971 	31691.2
0 	0.000346135 	0.00498434 	1.34547e-12 	8.88749 	32010.6
0 	0.000350443 	0.00504638 	1.35439e-12 	8.94488 	32327.9
0 	0.000354723 	0.00510802 	1.36311e-12 	9.00191 	32643.1
0 	0.000358976 	0.00516925 	1.37004e-12 	9.05856 	32956.3
0 	0.000363201 	0.00523009 	1.37568e-12 	9.11484 	33267.5
0 	0.000367399 	0.00529054 	1.38085e-12 	9.17076 	33576.6
0 	0.000371569 	0.0053506 	1.3861e-12 	9.22632 	33883.8
0 	0.000375713 	0.00541027 	1.39168e-12 	9.28151 	34189
0 	0.00037983 	0.00546955 	1.3975e-12 	9.33634 	34492.1
0 	0.000382654 	0.00551022 	1.40156e-12 	9.37396 	34700.1
0 	0.000384692 	0.00553957 	1.40503e-12 	9.40327 	34874.7
0 	0.000387984 	0.00558697 	1.41109e-12 	9.45273 	35180.7
0 	0.000392022 	0.00564511 	1.41805e-12 	9.51338 	35556.1
0 	0.000396033 	0.00570288 	1.42377e-12 	9.57365 	35929
0 	0.000400019 	0.00576027 	1.43023e-12 	9.63352 	36299.5
0 	0.000403978 	0.00581729 	1.43792e-12 	9.693 	36667.6
0 	0.000407913 	0.00587394 	1.44486e-12 	9.75209 	37033.4
0 	0.000411821 	0.00593023 	1.45222e-12 	9.81081 	37396.7
0 	0.000415705 	0.00598615 	1.46116e-12 	9.86914 	37757.7
0 	0.000419563 	0.00604171 	1.47087e-12 	9.92708 	38116.4
0 	0.000423397 	0.00609691 	1.47917e-12 	9.98465 	38472.7
0 	0.000427205 	0.00615175 	1.4864e-12 	10.0418 	38826.8
0 	0.000430989 	0.00620624 	1.49585e-12 	10.0986 	39178.5
0 	0.000434749 	0.00626038 	1.50659e-12 	10.1551 	39528
0 	0.000438484 	0.00631417 	1.51635e-12 	10.2112 	39875.2
0 	0.000440433 	0.00634224 	1.52116e-12 	10.2404 	40056.3
0 	0.000442283 	0.00636887 	1.52608e-12 	10.2705 	40267.4
0 	0.000445882 	0.0064207 	1.53554e-12 	10.3292 	40681.9
0 	0.000449545 	0.00647345 	1.54442e-12 	10.3889 	41103.8
0 	0.000453185 	0.00652586 	1.55347e-12 	10.4483 	41523
0 	0.000456801 	0.00657794 	1.56384e-12 	10.5072 	41939.4
0 	0.000460394 	0.00662967 	1.57364e-12 	10.5658 	42353.2
0 	0.000463963 	0.00668107 	1.58227e-12 	10.624 	42764.2
0 	0.00046751 	0.00673214 	1.59107e-12 	10.6818 	43172.6
0 	0.000471033 	0.00678288 	1.60041e-12 	10.7392 	43578.3
0 	0.000474534 	0.00683329 	1.60902e-12 	10.7963 	43981.4
0 	0.000478012 	0.00688337 	1.61509e-12 	10.8529 	44381.9
0 	0.000481467 	0.00693313 	1.62044e-12 	10.9092 	44779.8
0 	0.000484901 	0.00698257 	1.62682e-12 	10.9651 	45175
0 	0.000488312 	0.00703169 	1.6326e-12 	11.0207 	45567.8
0 	0.000491218 	0.00707354 	1.63635e-12 	11.068 	45902.4
0 	0.000492907 	0.00709787 	1.63812e-12 	11.096 	46109.5
0 	0.000495068 	0.00712897 	1.6403e-12 	11.1332 	46415.1
0 	0.000498413 	0.00717715 	1.64374e-12 	11.1908 	46888.2
0 	0.000501737 	0.00722501 	1.6474e-12 	11.248 	47358.3
0 	0.000505039 	0.00727256 	1.65142e-12 	11.3049 	47825.3
0 	0.00050832 	0.0073198 	1.65549e-12 	11.3613 	48289.2
0 	0.000511579 	0.00736674 	1.65882e-12 	11.4174 	48750.2
0 	0.000514818 	0.00741338 	1.66173e-12 	11.4731 	49208.1
0 	0.000518036 	0.00745971 	1.66432e-12 	11.5285 	49663.1
0 	0.000521232 	0.00750575 	1.66647e-12 	11.5834 	50115.1
0 	0.000524408 	0.00755148 	1.66912e-12 	11.638 	50564.1
0 	0.000527564 	0.00759692 	1.67198e-12 	11.6922 	51010.2
0 	0.000530699 	0.00764207 	1.67451e-12 	11.7461 	51453.4
0 	0.000533814 	0.00768693 	1.6766e-12 	11.7996 	51893.8
0 	0.000536909 	0.00773149 	1.67881e-12 	11.8528 	52331.2
0 	0.000539031 	0.00776205 	1.68127e-12 	11.8892 	52631.1
0 	0.000540564 	0.00778412 	1.6839e-12 	11.9161 	52878.2
0 	0.000543039 	0.00781976 	1.68722e-12 	11.9601 	53307.4
0 	0.000546074 	0.00786347 	1.68943e-12 	12.0141 	53833.6
0 	0.00054909 	0.00790689 	1.69057e-12 	12.0678 	54356.4
0 	0.000552086 	0.00795003 	1.69191e-12 	12.121 	54875.7
0 	0.000555062 	0.0079929 	1.69315e-12 	12.174 	55391.7
0 	0.00055802 	0.00803549 	1.69414e-12 	12.2265 	55904.2
0 	0.000560958 	0.0080778 	1.69508e-12 	12.2787 	56413.5
0 	0.000563878 	0.00811984 	1.69622e-12 	12.3305 	56919.4
0 	0.000566778 	0.0081616 	1.69736e-12 	12.382 	57421.9
0 	0.00056966 	0.0082031 	1.69922e-12 	12.4331 	57921.2
0 	0.000572523 	0.00824433 	1.70176e-12 	12.4838 	58417.3
0 	0.000575367 	0.00828529 	1.70336e-12 	12.5342 	58910
0 	0.000578194 	0.00832599 	1.70467e-12 	12.5843 	59399.5
0 	0.000581002 	0.00836642 	1.70697e-12 	12.634 	59885.8
0 	0.000582454 	0.00838734 	1.70837e-12 	12.6596 	60137.3
0 	0.000583844 	0.00840736 	1.70904e-12 	12.6847 	60431.5
0 	0.000586563 	0.00844651 	1.7098e-12 	12.7338 	61010.8
0 	0.000589317 	0.00848616 	1.71049e-12 	12.7835 	61597.6
0 	0.000592053 	0.00852556 	1.71242e-12 	12.8328 	62180.5
0 	0.000594771 	0.00856471 	1.71471e-12 	12.8818 	62759.5
0 	0.000597472 	0.0086036 	1.71617e-12 	12.9304 	63334.7
0 	0.000600155 	0.00864224 	1.71754e-12 	12.9787 	63906.2
0 	0.000602821 	0.00868063 	1.71889e-12 	13.0266 	64473.9
0 	0.00060547 	0.00871877 	1.71967e-12 	13.0741 	65037.8
0 	0.000608102 	0.00875666 	1.72076e-12 	13.1214 	65598
0 	0.000610716 	0.00879431 	1.72242e-12 	13.1683 	66154.5
0 	0.000613314 	0.00883172 	1.72436e-12 	13.2148 	66707.4
0 	0.000615895 	0.00886888 	1.72593e-12 	13.261 	67256.6
0 	0.000618459 	0.00890581 	1.7271e-12 	13.3068 	67802.1
0 	0.00062062 	0.00893693 	1.72831e-12 	13.3455 	68261.8
0 	0.00062189 	0.00895521 	1.72919e-12 	13.3682 	68551.1
0 	0.000623538 	0.00897894 	1.72978e-12 	13.3977 	68983.3
0 	0.000626053 	0.00901516 	1.72991e-12 	13.4427 	69642.9
0 	0.000628551 	0.00905114 	1.72964e-12 	13.4874 	70298.1
0 	0.000631033 	0.00908688 	1.72919e-12 	13.5318 	70948.9
0 	0.0006335 	0.0091224 	1.72951e-12 	13.5758 	71595.5
0 	0.00063595 	0.00915768 	1.73113e-12 	13.6195 	72237.8
0 	0.000638385 	0.00919274 	1.73187e-12 	13.6628 	72875.7
0 	0.000640804 	0.00922757 	1.7316e-12 	13.7058 	73509.4
0 	0.000643207 	0.00926218 	1.73155e-12 	13.7484 	74139
0 	0.000645594 	0.00929656 	1.73152e-12 	13.7908 	74764.3
0 	0.000647967 	0.00933072 	1.73129e-12 	13.8328 	75385.4
0 	0.000650323 	0.00936466 	1.7306e-12 	13.8744 	76002.4
0 	0.000652665 	0.00939838 	1.72978e-12 	13.9158 	76615.3
0 	0.000654992 	0.00943188 	1.72915e-12 	13.9568 	77224
0 	0.000656553 	0.00945436 	1.72871e-12 	13.9842 	77632.5
0 	0.000657705 	0.00947095 	1.72842e-12 	14.0042 	77979.3
0 	0.0006596 	0.00949823 	1.72828e-12 	14.0368 	78589.8
0 	0.000661881 	0.00953109 	1.7282e-12 	14.0761 	79324.8
0 	0.000664148 	0.00956373 	1.72788e-12 	14.115 	80054.9
0 	0.0006664 	0.00959617 	1.7277e-12 	14.1536 	80780.2
0 	0.000668638 	0.00962839 	1.72722e-12 	14.1918 	81500.5
0 	0.000670861 	0.0096604 	1.72561e-12 	14.2297 	82216
0 	0.00067307 	0.00969221 	1.72388e-12 	14.2674 	82926.7
0 	0.000675265 	0.00972381 	1.72311e-12 	14.3047 	83632.6
0 	0.000677445 	0.00975521 	1.72261e-12 	14.3416 	84333.7
0 	0.000679612 	0.00978641 	1.72142e-12 	14.3782 	85030.1
0 	0.000681764 	0.0098174 	1.71985e-12 	14.4145 	85721.8
0 	0.000683902 	0.00984819 	1.71839e-12 	14.4505 	86408.8
0 	0.000686027 	0.00987879 	1.71714e-12 	14.4861 	87091.1
0 	0.000688134 	0.00990914 	1.71619e-12 	14.5214 	87767.8
0 	0.000689186 	0.00992428 	1.71578e-12 	14.539 	88105.7
0 	0.000690235 	0.00993938 	1.71548e-12 	14.5556 	88520
0 	0.000692318 	0.00996939 	1.71448e-12 	14.5886 	89343.2
0 	0.000694389 	0.0099992 	1.71296e-12 	14.6213 	90160.9
0 	0.000696445 	0.0100288 	1.71128e-12 	14.6536 	90973
0 	0.000698489 	0.0100582 	1.70941e-12 	14.6856 	91779.7
0 	0.000700519 	0.0100875 	1.70723e-12 	14.7174 	92580.8
0 	0.000702536 	0.0101165 	1.70529e-12 	14.7488 	93376.4
0 	0.00070454 	0.0101454 	1.70333e-12 	14.7798 	94166.6
0 	0.000706531 	0.0101741 	1.70101e-12 	14.8106 	94951.5
0 	0.00070851 	0.0102025 	1.6988e-12 	14.8411 	95731
0 	0.000710475 	0.0102308 	1.69681e-12 	14.8712 	96505.1
0 	0.000712428 	0.010259 	1.69485e-12 	14.901 	97273.7
0 	0.000714368 	0.0102869 	1.69252e-12 	14.9306 	98037.2
0 	0.000716296 	0.0103147 	1.68998e-12 	14.9598 	98795.3
0 	0.000717869 	0.0103373 	1.68796e-12 	14.9835 	99413.9
0 	0.000718824 	0.0103511 	1.68675e-12 	14.9974 	99820.6
0 	0.000720114 	0.0103696 	1.68463e-12 	15.0151 	100447
0 	0.000722004 	0.0103969 	1.68157e-12 	15.0409 	101364
0 	0.000723882 	0.0104239 	1.67895e-12 	15.0664 	102275
0 	0.000725749 	0.0104508 	1.6766e-12 	15.0916 	103180
0 	0.000727603 	0.0104775 	1.67447e-12 	15.1165 	104078
0 	0.000729445 	0.010504 	1.67237e-12 	15.1411 	104970
0 	0.000731275 	0.0105304 	1.67035e-12 	15.1654 	105856
0 	0.000733093 	0.0105565 	1.66885e-12 	15.1894 	106736
0 	0.0007349 	0.0105826 	1.66768e-12 	15.2131 	107610
0 	0.000736695 	0.0106084 	1.66687e-12 	15.2365 	108477
0 	0.000738478 	0.0106341 	1.66603e-12 	15.2596 	109339
0 	0.00074025 	0.0106596 	1.66502e-12 	15.2823 	110194
0 	0.00074201 	0.0106849 	1.66412e-12 	15.3048 	111044
0 	0.000743759 	0.0107101 	1.66355e-12 	15.327 	111888
0 	0.000744874 	0.0107262 	1.66324e-12 	15.341 	112425
0 	0.00074574 	0.0107387 	1.66276e-12 	15.3508 	112915
0 	0.000747223 	0.01076 	1.66181e-12 	15.3667 	113803
0 	0.000748938 	0.0107847 	1.66067e-12 	15.3849 	114828
0 	0.000750642 	0.0108092 	1.65979e-12 	15.4028 	115847
0 	0.000752335 	0.0108336 	1.65893e-12 	15.4205 	116858
0 	0.000754017 	0.0108579 	1.65767e-12 	15.4378 	117862
0 	0.000755689 	0.0108819 	1.65638e-12 	15.4549 	118860
0 	0.000757349 	0.0109058 	1.65546e-12 	15.4717 	119850
0 	0.000758999 	0.0109296 	1.65446e-12 	15.4882 	120833
0 	0.000760638 	0.0109532 	1.65341e-12 	15.5043 	121809
0 	0.000762267 	0.0109766 	1.65249e-12 	15.5202 	122779
0 	0.000763884 	0.0109999 	1.65136e-12 	15.5359 	123741
0 	0.000765492 	0.0110231 	1.64999e-12 	15.5512 	124697
0 	0.000767089 	0.0110461 	1.64857e-12 	15.5663 	125646
0 	0.000768608 	0.011068 	1.64708e-12 	15.5804 	126548
0 	0.000769399 	0.0110793 	1.64624e-12 	15.5875 	127027
0 	0.000770252 	0.0110916 	1.64531e-12 	15.5934 	127660
0 	0.000771819 	0.0111142 	1.64368e-12 	15.6039 	128820
0 	0.000773375 	0.0111366 	1.64228e-12 	15.6142 	129973
0 	0.000774921 	0.0111589 	1.64096e-12 	15.6242 	131117
0 	0.000776457 	0.011181 	1.63956e-12 	15.6339 	132253
0 	0.000777984 	0.011203 	1.63798e-12 	15.6434 	133381
0 	0.0007795 	0.0112248 	1.63617e-12 	15.6526 	134500
0 	0.000781006 	0.0112465 	1.63419e-12 	15.6616 	135612
0 	0.000782503 	0.011268 	1.63226e-12 	15.6703 	136716
0 	0.00078399 	0.0112895 	1.63045e-12 	15.6787 	137813
0 	0.000785468 	0.0113107 	1.62859e-12 	15.6868 	138901
0 	0.000786936 	0.0113319 	1.6264e-12 	15.6946 	139981
0 	0.000788394 	0.0113529 	1.62381e-12 	15.7022 	141054
0 	0.000789843 	0.0113737 	1.62112e-12 	15.7096 	142118
0 	0.000790954 	0.0113897 	1.61906e-12 	15.7151 	142934
0 	0.000791672 	0.0114001 	1.61767e-12 	15.7175 	143523
0 	0.000792714 	0.0114151 	1.61585e-12 	15.7194 	144484
0 	0.000794135 	0.0114355 	1.61367e-12 	15.7217 	145794
0 	0.000795547 	0.0114559 	1.61144e-12 	15.7237 	147095
0 	0.000796949 	0.0114761 	1.60892e-12 	15.7255 	148386
0 	0.000798343 	0.0114961 	1.60666e-12 	15.7271 	149668
0 	0.000799728 	0.0115161 	1.60475e-12 	15.7284 	150941
0 	0.000801104 	0.0115359 	1.60252e-12 	15.7295 	152205
0 	0.000802471 	0.0115556 	1.5998e-12 	15.7303 	153459
0 	0.000803829 	0.0115751 	1.59748e-12 	15.731 	154705
0 	0.000805178 	0.0115946 	1.59559e-12 	15.7313 	155941
0 	0.000806519 	0.0116139 	1.59362e-12 	15.7314 	157168
0 	0.00080785 	0.011633 	1.59152e-12 	15.7313 	158387
0 	0.000809174 	0.0116521 	1.58919e-12 	15.731 	159597
0 	0.000810488 	0.011671 	1.58653e-12 	15.7304 	160797
0 	0.000811249 	0.011682 	1.58494e-12 	15.73 	161491
0 	0.0008119 	0.0116914 	1.5837e-12 	15.7274 	162217
0 	0.000813092 	0.0117085 	1.58138e-12 	15.7219 	163592
0 	0.000814382 	0.0117271 	1.57858e-12 	15.7156 	165077
0 	0.000815663 	0.0117455 	1.57549e-12 	15.7092 	166552
0 	0.000816936 	0.0117639 	1.57237e-12 	15.7025 	168016
0 	0.0008182 	0.0117821 	1.56925e-12 	15.6957 	169469
0 	0.000819457 	0.0118002 	1.56621e-12 	15.6887 	170912
0 	0.000820705 	0.0118182 	1.5631e-12 	15.6814 	172344
0 	0.000821945 	0.011836 	1.56016e-12 	15.674 	173766
0 	0.000823177 	0.0118538 	1.5575e-12 	15.6664 	175178
0 	0.000824401 	0.0118714 	1.55497e-12 	15.6585 	176579
0 	0.000825618 	0.0118889 	1.55245e-12 	15.6505 	177969
0 	0.000826826 	0.0119063 	1.5495e-12 	15.6423 	179350
0 	0.000828027 	0.0119236 	1.54624e-12 	15.6338 	180720
0 	0.000829086 	0.0119388 	1.54349e-12 	15.6262 	181928
0 	0.00082968 	0.0119474 	1.54204e-12 	15.6212 	182647
0 	0.000830405 	0.0119578 	1.54025e-12 	15.6121 	183695
0 	0.000831582 	0.0119748 	1.53729e-12 	15.5973 	185399
0 	0.000832752 	0.0119916 	1.53435e-12 	15.5823 	187090
0 	0.000833914 	0.0120084 	1.53162e-12 	15.5672 	188768
0 	0.000835069 	0.012025 	1.52904e-12 	15.5519 	190434
0 	0.000836217 	0.0120415 	1.52652e-12 	15.5364 	192088
0 	0.000837356 	0.0120579 	1.52404e-12 	15.5209 	193730
0 	0.000838489 	0.0120742 	1.52162e-12 	15.5051 	195359
0 	0.000839614 	0.0120904 	1.51938e-12 	15.4892 	196977
0 	0.000840732 	0.0121065 	1.51719e-12 	15.4732 	198583
0 	0.000841843 	0.0121225 	1.51509e-12 	15.457 	200177
0 	0.000842946 	0.0121384 	1.51292e-12 	15.4407 	201758
0 	0.000844043 	0.0121542 	1.51034e-12 	15.4242 	203329
0 	0.000845132 	0.0121699 	1.50757e-12 	15.4076 	204887
0 	0.00084588 	0.0121807 	1.50578e-12 	15.3961 	205956
0 	0.000846419 	0.0121884 	1.50464e-12 	15.3855 	206859
0 	0.00084729 	0.012201 	1.50303e-12 	15.3663 	208444
0 	0.000848358 	0.0122164 	1.50115e-12 	15.3424 	210389
0 	0.000849419 	0.0122316 	1.49931e-12 	15.3185 	212320
0 	0.000850474 	0.0122468 	1.49743e-12 	15.2945 	214236
0 	0.000851522 	0.0122619 	1.49516e-12 	15.2704 	216139
0 	0.000852563 	0.0122769 	1.49274e-12 	15.2462 	218026
0 	0.000853597 	0.0122918 	1.49055e-12 	15.2219 	219900
0 	0.000854624 	0.0123066 	1.48856e-12 	15.1976 	221760
0 	0.000855645 	0.0123213 	1.48663e-12 	15.1731 	223607
0 	0.00085666 	0.0123359 	1.48447e-12 	15.1486 	225439
0 	0.000857667 	0.0123504 	1.48222e-12 	15.124 	227257
0 	0.000858669 	0.0123648 	1.48007e-12 	15.0993 	229062
0 	0.000859663 	0.0123792 	1.47783e-12 	15.0745 	230854
0 	0.00086064 	0.0123932 	1.47546e-12 	15.05 	232610
0 	0.000861132 	0.0124003 	1.47422e-12 	15.0375 	233501
0 	0.000861634 	0.0124075 	1.47307e-12 	15.0206 	234655
0 	0.000862609 	0.0124216 	1.47083e-12 	14.9876 	236898
0 	0.000863579 	0.0124355 	1.46837e-12 	14.9547 	239123
0 	0.000864542 	0.0124494 	1.46562e-12 	14.9217 	241332
0 	0.000865498 	0.0124632 	1.46302e-12 	14.8887 	243525
0 	0.000866449 	0.0124769 	1.46047e-12 	14.8556 	245701
0 	0.000867393 	0.0124905 	1.45763e-12 	14.8226 	247861
0 	0.000868332 	0.012504 	1.45486e-12 	14.7896 	250004
0 	0.000869264 	0.0125174 	1.45219e-12 	14.7565 	252132
0 	0.00087019 	0.0125307 	1.44938e-12 	14.7235 	254244
0 	0.000871111 	0.012544 	1.44648e-12 	14.6904 	256339
0 	0.000872025 	0.0125572 	1.4436e-12 	14.6573 	258419
0 	0.000872933 	0.0125702 	1.44076e-12 	14.6242 	260483
0 	0.000873836 	0.0125832 	1.43794e-12 	14.5911 	262531
0 	0.000874537 	0.0125933 	1.43578e-12 	14.5653 	264119
0 	0.000874984 	0.0125998 	1.43443e-12 	14.5467 	265257
0 	0.000875624 	0.012609 	1.43247e-12 	14.5162 	267117
0 	0.000876509 	0.0126217 	1.42984e-12 	14.4739 	269686
0 	0.000877388 	0.0126344 	1.42734e-12 	14.4316 	272237
0 	0.000878262 	0.012647 	1.42469e-12 	14.3894 	274768
0 	0.00087913 	0.0126595 	1.42189e-12 	14.3473 	277279
0 	0.000879993 	0.0126719 	1.41913e-12 	14.3052 	279772
0 	0.000880849 	0.0126842 	1.41644e-12 	14.2632 	282245
0 	0.000881701 	0.0126965 	1.41388e-12 	14.2213 	284700
0 	0.000882547 	0.0127087 	1.41114e-12 	14.1794 	287136
0 	0.000883387 	0.0127208 	1.40829e-12 	14.1376 	289554
0 	0.000884222 	0.0127328 	1.40566e-12 	14.0959 	291953
0 	0.000885052 	0.0127447 	1.40321e-12 	14.0542 	294333
0 	0.000885876 	0.0127566 	1.40077e-12 	14.0126 	296695
0 	0.000886695 	0.0127684 	1.39837e-12 	13.9711 	299038
0 	0.000887158 	0.0127751 	1.397e-12 	13.9476 	300363
0 	0.000887564 	0.0127809 	1.39576e-12 	13.9223 	301808
0 	0.000888317 	0.0127918 	1.3935e-12 	13.8738 	304573
0 	0.00088912 	0.0128033 	1.39123e-12 	13.8219 	307518
0 	0.000889918 	0.0128148 	1.38908e-12 	13.7701 	310441
0 	0.00089071 	0.0128262 	1.38682e-12 	13.7185 	313340
0 	0.000891498 	0.0128376 	1.38453e-12 	13.6671 	316218
0 	0.000892281 	0.0128488 	1.38241e-12 	13.6158 	319073
0 	0.000893058 	0.01286 	1.38034e-12 	13.5647 	321906
0 	0.00089383 	0.0128712 	1.37815e-12 	13.5137 	324718
0 	0.000894598 	0.0128822 	1.37594e-12 	13.4629 	327508
0 	0.00089536 	0.0128932 	1.37375e-12 	13.4122 	330275
0 	0.000896118 	0.0129041 	1.37157e-12 	13.3617 	333021
0 	0.000896871 	0.0129149 	1.36932e-12 	13.3113 	335746
0 	0.000897618 	0.0129257 	1.36707e-12 	13.2611 	338449
0 	0.00089825 	0.0129348 	1.36524e-12 	13.2185 	340729
0 	0.000898621 	0.0129401 	1.36422e-12 	13.1917 	342180
0 	0.0008991 	0.012947 	1.36294e-12 	13.1514 	344404
0 	0.000899833 	0.0129576 	1.36095e-12 	13.0896 	347803
0 	0.000900562 	0.0129681 	1.35904e-12 	13.0281 	351177
0 	0.000901286 	0.0129785 	1.35722e-12 	12.9667 	354523
0 	0.000902005 	0.0129889 	1.35533e-12 	12.9057 	357844
0 	0.000902719 	0.0129992 	1.3534e-12 	12.8448 	361138
0 	0.000903429 	0.0130094 	1.35154e-12 	12.7843 	364406
0 	0.000904135 	0.0130195 	1.34969e-12 	12.7239 	367649
0 	0.000904836 	0.0130296 	1.34786e-12 	12.6638 	370866
0 	0.000905532 	0.0130397 	1.34609e-12 	12.6039 	374057
0 	0.000906224 	0.0130496 	1.34444e-12 	12.5443 	377224
0 	0.000906911 	0.0130595 	1.34291e-12 	12.4848 	380364
0 	0.000907594 	0.0130694 	1.34151e-12 	12.4257 	383480
0 	0.000908273 	0.0130791 	1.34015e-12 	12.3667 	386570
0 	0.000908694 	0.0130852 	1.33928e-12 	12.33 	388490
0 	0.00090903 	0.01309 	1.33858e-12 	12.2957 	390349
0 	0.000909616 	0.0130985 	1.33753e-12 	12.2329 	393779
0 	0.000910282 	0.0131081 	1.33658e-12 	12.1614 	397670
0 	0.000910943 	0.0131176 	1.33565e-12 	12.0902 	401530
0 	0.0009116 	0.013127 	1.33457e-12 	12.0195 	405358
0 	0.000912252 	0.0131364 	1.33348e-12 	11.949 	409155
0 	0.000912901 	0.0131458 	1.33243e-12 	11.8789 	412922
0 	0.000913545 	0.013155 	1.33141e-12 	11.8091 	416659
0 	0.000914185 	0.0131643 	1.33039e-12 	11.7396 	420367
0 	0.000914821 	0.0131734 	1.32936e-12 	11.6704 	424044
0 	0.000915452 	0.0131825 	1.32837e-12 	11.6016 	427691
0 	0.00091608 	0.0131916 	1.32754e-12 	11.5331 	431309
0 	0.000916704 	0.0132005 	1.32689e-12 	11.4649 	434896
0 	0.000917323 	0.0132095 	1.32629e-12 	11.397 	438454
0 	0.000917873 	0.0132174 	1.32585e-12 	11.3367 	441605
0 	0.00091818 	0.0132218 	1.32567e-12 	11.3015 	443473
0 	0.000918551 	0.0132271 	1.32539e-12 	11.252 	446215
0 	0.000919158 	0.0132359 	1.32491e-12 	11.171 	450702
0 	0.000919762 	0.0132446 	1.32449e-12 	11.0904 	455153
0 	0.000920362 	0.0132532 	1.32409e-12 	11.0101 	459567
0 	0.000920958 	0.0132618 	1.32358e-12 	10.9304 	463945
0 	0.00092155 	0.0132703 	1.32305e-12 	10.8511 	468287
0 	0.000922138 	0.0132788 	1.32252e-12 	10.7721 	472594
0 	0.000922722 	0.0132872 	1.322e-12 	10.6936 	476865
0 	0.000923303 	0.0132956 	1.32148e-12 	10.6155 	481102
0 	0.00092388 	0.0133039 	1.32095e-12 	10.5378 	485304
0 	0.000924453 	0.0133121 	1.32036e-12 	10.4606 	489470
0 	0.000925023 	0.0133203 	1.31973e-12 	10.3837 	493602
0 	0.000925589 	0.0133285 	1.31913e-12 	10.3073 	497699
0 	0.000926151 	0.0133366 	1.31856e-12 	10.2312 	501761
0 	0.000926516 	0.0133418 	1.31821e-12 	10.1818 	504394
0 	0.000926794 	0.0133458 	1.31797e-12 	10.139 	506817
0 	0.000927264 	0.0133526 	1.31758e-12 	10.0631 	511213
0 	0.000927815 	0.0133605 	1.31706e-12 	9.97394 	516360
0 	0.000928363 	0.0133684 	1.31647e-12 	9.88534 	521464
0 	0.000928907 	0.0133763 	1.31586e-12 	9.79727 	526526
0 	0.000929448 	0.0133841 	1.31525e-12 	9.70974 	531545
0 	0.000929985 	0.0133918 	1.3146e-12 	9.62273 	536522
0 	0.000930519 	0.0133995 	1.31387e-12 	9.53623 	541457
0 	0.000931049 	0.0134071 	1.31308e-12 	9.4502 	546353
0 	0.000931576 	0.0134147 	1.31226e-12 	9.36469 	551207
0 	0.0009321 	0.0134222 	1.31143e-12 	9.27969 	556021
0 	0.00093262 	0.0134297 	1.31061e-12 	9.1952 	560793
0 	0.000933136 	0.0134372 	1.3098e-12 	9.11121 	565525
0 	0.00093365 	0.0134446 	1.30894e-12 	9.02773 	570216
0 	0.000934111 	0.0134512 	1.30816e-12 	8.95274 	574419
0 	0.000934365 	0.0134549 	1.30775e-12 	8.91003 	576874
0 	0.000934667 	0.0134592 	1.30729e-12 	8.85267 	580474
0 	0.00093517 	0.0134664 	1.3065e-12 	8.75696 	586474
0 	0.00093567 	0.0134737 	1.3057e-12 	8.6619 	592424
0 	0.000936167 	0.0134808 	1.30494e-12 	8.56747 	598324
0 	0.000936661 	0.0134879 	1.30421e-12 	8.47367 	604175
0 	0.000937152 	0.013495 	1.30352e-12 	8.38048 	609977
0 	0.000937639 	0.013502 	1.3028e-12 	8.28792 	615729
0 	0.000938123 	0.013509 	1.30203e-12 	8.19593 	621435
0 	0.000938604 	0.0135159 	1.30128e-12 	8.10451 	627093
0 	0.000939082 	0.0135228 	1.30054e-12 	8.01369 	632702
0 	0.000939557 	0.0135296 	1.29977e-12 	7.92348 	638265
0 	0.000940029 	0.0135364 	1.29903e-12 	7.83387 	643779
0 	0.000940498 	0.0135432 	1.29833e-12 	7.74485 	649246
0 	0.000940964 	0.0135499 	1.2976e-12 	7.65642 	654666
0 	0.000941263 	0.0135542 	1.29712e-12 	7.59965 	658140
0 	0.000941493 	0.0135575 	1.29675e-12 	7.55148 	661452
0 	0.000941886 	0.0135632 	1.29613e-12 	7.46643 	667528
0 	0.000942343 	0.0135697 	1.29544e-12 	7.36761 	674581
0 	0.000942797 	0.0135763 	1.29473e-12 	7.26951 	681576
0 	0.000943248 	0.0135828 	1.29396e-12 	7.17212 	688514
0 	0.000943696 	0.0135892 	1.29322e-12 	7.07545 	695393
0 	0.000944141 	0.0135956 	1.2925e-12 	6.97947 	702216
0 	0.000944583 	0.013602 	1.29177e-12 	6.88418 	708982
0 	0.000945022 	0.0136083 	1.29104e-12 	6.78948 	715694
0 	0.000945459 	0.0136146 	1.29033e-12 	6.69548 	722349
0 	0.000945893 	0.0136209 	1.28964e-12 	6.60215 	728949
0 	0.000946324 	0.0136271 	1.289e-12 	6.50949 	735494
0 	0.000946752 	0.0136332 	1.28842e-12 	6.41751 	741983
0 	0.000947177 	0.0136393 	1.28787e-12 	6.32619 	748417
0 	0.000947547 	0.0136447 	1.28741e-12 	6.24671 	754011
0 	0.000947758 	0.0136477 	1.28716e-12 	6.20037 	757474
0 	0.000948019 	0.0136515 	1.28689e-12 	6.13843 	762852
0 	0.000948437 	0.0136575 	1.28651e-12 	6.0397 	771423
0 	0.000948851 	0.0136635 	1.28615e-12 	5.94176 	779927
0 	0.000949263 	0.0136694 	1.28582e-12 	5.84457 	788363
0 	0.000949672 	0.0136753 	1.28554e-12 	5.74814 	796731
0 	0.000950078 	0.0136811 	1.28526e-12 	5.65244 	805034
0 	0.000950482 	0.0136869 	1.28501e-12 	5.55746 	813270
0 	0.000950883 	0.0136927 	1.28477e-12 	5.46312 	821443
0 	0.000951282 	0.0136985 	1.28453e-12 	5.36947 	829550
0 	0.000951678 	0.0137042 	1.28431e-12 	5.27657 	837592
0 	0.000952072 	0.0137098 	1.28407e-12 	5.18441 	845568
0 	0.000952463 	0.0137155 	1.28376e-12 	5.09299 	853480
0 	0.000952851 	0.0137211 	1.28342e-12 	5.0023 	861327
0 	0.000953237 	0.0137266 	1.28308e-12 	4.91235 	869109
0 	0.000953466 	0.0137299 	1.28287e-12 	4.85906 	873720
0 	0.000953657 	0.0137327 	1.28268e-12 	4.81271 	878810
0 	0.000954001 	0.0137376 	1.28233e-12 	4.72857 	888508
0 	0.00095438 	0.0137431 	1.2819e-12 	4.6363 	899155
0 	0.000954756 	0.0137485 	1.28145e-12 	4.54488 	909720
0 	0.000955129 	0.0137539 	1.28097e-12 	4.45429 	920202
0 	0.000955501 	0.0137592 	1.28046e-12 	4.36454 	930604
0 	0.000955869 	0.0137645 	1.27992e-12 	4.27561 	940925
0 	0.000956236 	0.0137698 	1.27937e-12 	4.18745 	951166
0 	0.0009566 	0.013775 	1.27878e-12 	4.09998 	961330
0 	0.000956961 	0.0137802 	1.27816e-12 	4.01331 	971414
0 	0.000957321 	0.0137854 	1.27751e-12 	3.92744 	981418
0 	0.000957678 	0.0137906 	1.27681e-12 	3.84238 	991344
0 	0.000958032 	0.0137957 	1.27607e-12 	3.75811 	1.00119e+06
0 	0.000958385 	0.0138007 	1.2753e-12 	3.67463 	1.01096e+06
0 	0.000958666 	0.0138048 	1.27467e-12 	3.60814 	1.01876e+06
0 	0.000958841 	0.0138073 	1.27426e-12 	3.56713 	1.02443e+06
0 	0.000959083 	0.0138108 	1.27367e-12 	3.51068 	1.03411e+06
0 	0.000959429 	0.0138158 	1.27279e-12 	3.43035 	1.04791e+06
0 	0.000959772 	0.0138207 	1.27189e-12 	3.35086 	1.06161e+06
0 	0.000960113 	0.0138256 	1.27098e-12 	3.27221 	1.07522e+06
0 	0.000960452 	0.0138305 	1.27004e-12 	3.19438 	1.08872e+06
0 	0.000960789 	0.0138354 	1.26908e-12 	3.11738 	1.10213e+06
0 	0.000961123 	0.0138402 	1.26811e-12 	3.0412 	1.11543e+06
0 	0.000961456 	0.013845 	1.26712e-12 	2.96564 	1.12864e+06
0 	0.000961786 	0.0138497 	1.26608e-12 	2.89086 	1.14176e+06
0 	0.000962114 	0.0138544 	1.26503e-12 	2.81689 	1.15478e+06
0 	0.00096244 	0.0138591 	1.26397e-12 	2.74371 	1.1677e+06
0 	0.000962764 	0.0138638 	1.26288e-12 	2.67133 	1.18053e+06
0 	0.000963086 	0.0138684 	1.26177e-12 	2.59974 	1.19326e+06
0 	0.000963405 	0.013873 	1.26065e-12 	2.52921 	1.20585e+06
0 	0.000963564 	0.0138753 	1.26009e-12 	2.49407 	1.21217e+06
0 	0.000963723 	0.0138776 	1.25952e-12 	2.46142 	1.22158e+06
0 	0.000964039 	0.0138822 	1.25837e-12 	2.39713 	1.24018e+06
0 	0.000964353 	0.0138867 	1.2572e-12 	2.33361 	1.25865e+06
0 	0.000964664 	0.0138912 	1.25602e-12 	2.27085 	1.277e+06
0 	0.000964974 	0.0138956 	1.25482e-12 	2.20885 	1.29522e+06
0 	0.000965281 	0.0139001 	1.25361e-12 	2.1476 	1.31332e+06
0 	0.000965587 	0.0139045 	1.25239e-12 	2.08709 	1.3313e+06
0 	0.00096589 	0.0139088 	1.25118e-12 	2.02722 	1.34915e+06
0 	0.000966192 	0.0139132 	1.24995e-12 	1.96797 	1.36688e+06
0 	0.000966492 	0.0139175 	1.24873e-12 	1.90945 	1.38449e+06
0 	0.000966789 	0.0139218 	1.24751e-12 	1.85166 	1.40197e+06
0 	0.000967085 	0.013926 	1.2463e-12 	1.7946 	1.41934e+06
0 	0.000967379 	0.0139303 	1.24508e-12 	1.73825 	1.43659e+06
0 	0.000967671 	0.0139345 	1.24386e-12 	1.68262 	1.45373e+06
0 	0.000967867 	0.0139373 	1.24304e-12 	1.64545 	1.46523e+06
0 	0.000968012 	0.0139394 	1.24244e-12 	1.6204 	1.47664e+06
0 	0.000968249 	0.0139428 	1.24143e-12 	1.58138 	1.498e+06
0 	0.000968536 	0.0139469 	1.2402e-12 	1.53466 	1.52373e+06
0 	0.00096882 	0.013951 	1.23897e-12 	1.48857 	1.54929e+06
0 	0.000969103 	0.0139551 	1.23775e-12 	1.44311 	1.57469e+06
0 	0.000969384 	0.0139591 	1.23652e-12 	1.39827 	1.59993e+06
0 	0.000969663 	0.0139631 	1.23529e-12 	1.35404 	1.625e+06
0 	0.00096994 	0.0139671 	1.23405e-12 	1.31039 	1.6499e+06
0 	0.000970216 	0.0139711 	1.23281e-12 	1.26718 	1.67464e+06
0 	0.000970489 	0.013975 	1.2316e-12 	1.22457 	1.69923e+06
0 	0.000970761 	0.013979 	1.23038e-12 	1.18256 	1.72365e+06
0 	0.000971031 	0.0139829 	1.22915e-12 	1.14114 	1.74791e+06
0 	0.0009713 	0.0139867 	1.22792e-12 	1.1003 	1.77202e+06
0 	0.000971566 	0.0139906 	1.22669e-12 	1.06005 	1.79597e+06
0 	0.000971788 	0.0139937 	1.22565e-12 	1.02683 	1.81589e+06