5 	0.00391112967796265 	-1.73472347597681e-18 	0.210810734166411 	1.67531036697171e-05 	897.172017085923 	1.52632173235503e-06 	1.14975076840824e-38
5 	0.0118766651674913 	-9.54097911787244e-18 	0.21080638280798 	0.000274023633779697 	187.767067191568 	3.08508014604732e-05 	0
5 	0.020134001548576 	-9.54097911787244e-18 	0.210796932723065 	0.00158194971238116 	54.3322271164581 	0.000143576868042198 	0
5 	0.028693828342395 	-6.07153216591882e-18 	0.210774888253722 	0.00424892780629382 	23.7510146525666 	8.49100661862046e-05 	0
5 	0.0375672266585908 	-8.67361737988404e-18 	0.210728494205711 	0.00712028377456958 	13.4670461335707 	1.75520779652049e-05 	0
5 	0.0467656835403031 	-1.86482773667507e-17 	0.210654998315405 	0.00959768232542006 	9.12293737409583 	0.000101549793286815 	0
5 	0.0563011068347006 	-2.47198095326695e-17 	0.21056078532392 	0.0117023778128017 	6.89133887573796 	0.000231687316819914 	0
5 	0.0661858406082649 	-2.21177243187043e-17 	0.210452323858868 	0.0135436921764041 	5.56666577639476 	0.000368677034130889 	0
5 	0.0764326811267816 	-1.90819582357449e-17 	0.210333246884373 	0.0152027241082937 	4.69874711911262 	0.000506917680257571 	0
5 	0.0870548934207257 	-1.77809156287623e-17 	0.210205709914837 	0.0167326881227672 	4.09005947070142 	0.000647200164840001 	0
5 	0.098066228457484 	-8.02309607639273e-18 	0.210071414261563 	0.0181690699632162 	3.64205719325186 	0.000791080397524079 	0
5 	0.109480940942647 	2.38524477946811e-18 	0.209931843861191 	0.0195364964646663 	3.3005125580505 	0.000940012002858622 	0
5 	0.121313807773416 	2.81892564846231e-18 	0.20978831224386 	0.0208527729014662 	3.03325040638275 	0.00109529663135161 	0
5 	0.13358014716801 	-9.75781955236954e-19 	0.209642012179411 	0.0221312596847882 	2.82002060551914 	0.00125814364215519 	0
5 	0.146295838495838 	-2.38524477946811e-18 	0.209494057503377 	0.0233823145078159 	2.647464902539 	0.00142972697016569 	0
5 	0.159477342834115 	-8.32802793740428e-18 	0.209345507400568 	0.0246141980521217 	2.50642959704798 	0.00161122918723547 	0
5 	0.173141724277517 	-2.10131933554847e-17 	0.209197203559238 	0.0258335885166166 	2.39051272929674 	0.00180391029404416 	0
5 	0.18730667202848 	-2.77555756156289e-17 	0.20905006999289 	0.0270461376643695 	2.29500833613668 	0.00200909211694859 	0
5 	0.201990523296728 	-2.42861286636753e-17 	0.208905293130517 	0.0282567253357275 	2.21634578068206 	0.00222811856881705 	0
5 	0.217212287037675 	-2.42861286636753e-17 	0.208763786822993 	0.0294694388692786 	2.15191565914951 	0.00246248178871519 	0
5 	0.232991668560441 	-2.77555756156289e-17 	0.208626428812389 	0.030687811667938 	2.09972066066075 	0.00271379350399078 	0
5 	0.249349095037321 	-2.77555756156289e-17 	0.208494057085281 	0.0319149002500452 	2.05821440573202 	0.00298379501129529 	0
5 	0.266305741947753 	-3.46944695195361e-17 	0.208367465369375 	0.0331533286586968 	2.02618876134073 	0.00327436350758372 	0
5 	0.283883560490998 	-4.85722573273506e-17 	0.208247398206397 	0.0344053061867241 	2.0026932247554 	0.00358751397152768 	0
5 	0.30210530600303 	-5.55111512312578e-17 	0.208134545525063 	0.0356726218672901 	1.98697594282961 	0.00392539517681429 	0
5 	0.320994567414413 	-5.55111512312578e-17 	0.208029535273261 	0.0369566238625668 	1.97843954975059 	0.00429027294443822 	0
5 	0.340575797787321 	-5.89805981832114e-17 	0.207932930529195 	0.0382582585058215 	1.97660725587255 	0.00468451413190393 	0
5 	0.360874345971201 	-6.59194920871187e-17 	0.207845230379905 	0.0395779045773488 	1.98109600653281 	0.00511055146842657 	0
5 	0.38191648941809 	-6.93889390390723e-17 	0.20776685539219 	0.0409152541285887 	1.99159449440741 	0.00557083525278362 	0
5 	0.403729468200046 	-6.24500451351651e-17 	0.207698144735971 	0.0422692444023489 	2.00784441262318 	0.00606776548757116 	0
5 	0.426341520272733 	-4.85722573273506e-17 	0.20763934797016 	0.0436379243181052 	2.02962368706999 	0.00660359456702067 	0
5 	0.449781918030828 	-4.85722573273506e-17 	0.207590618927369 	0.0450182951344785 	2.05673069897354 	0.00718029804012522 	0
5 	0.474081006202548 	-5.55111512312578e-17 	0.207552042453573 	0.0464061260264346 	2.08896868445054 	0.00779939991965252 	0
5 	0.499270241132363 	-4.85722573273506e-17 	0.207523671099845 	0.0477957455645807 	2.12612961846834 	0.00846176252244328 	0
5 	0.525382231502763 	-4.5102810375397e-17 	0.207505135882606 	0.0491798115211698 	2.16797695239055 	0.00916741925478856 	0
5 	0.552450780547767 	-4.5102810375397e-17 	0.207494406482543 	0.0505490605327859 	2.21422648744339 	0.0099155321665614 	0
5 	0.580510929812849 	-3.81639164714898e-17 	0.207490844104541 	0.0518920343010568 	2.26452438127897 	0.0107219765840702 	0
5 	0.60959900451791 	-2.77555756156289e-17 	0.207515208134391 	0.0531959545912593 	2.31847838700639 	0.0116913696630174 	0
5 	0.639752660582032 	-2.08166817117217e-17 	0.207610686571885 	0.0544524870311752 	2.37586835273906 	0.0127942515280703 	0
5 	0.671010933370886 	-1.38777878078145e-17 	0.207767177623966 	0.0556472057040391 	2.43575144109049 	0.0140189030704582 	0
5 	0.7034142882299 	-3.46944695195361e-18 	0.207920827193244 	0.0567343836522361 	2.49502134311631 	0.0152479037732946 	0
5 	0.737004672868606 	-6.93889390390723e-18 	0.20803386202371 	0.0576434861792191 	2.54880504041269 	0.0163180374071412 	0
5 	0.771825571663976 	-1.73472347597681e-17 	0.208103110357992 	0.0583029054669372 	2.59198813798766 	0.0171391181020435 	0
5 	0.807922061953053 	-2.08166817117217e-17 	0.208137319758596 	0.0586549997148877 	2.62035623136395 	0.0176912251074419 	0
5 	0.845340872387742 	-1.73472347597681e-17 	0.208142785712818 	0.0586592849008455 	2.63100461326077 	0.0179816663598271 	0
5 	0.884130443427309 	-1.73472347597681e-17 	0.20811931008105 	0.0582902980743928 	2.62230782894656 	0.0180136930770038 	0
5 	0.924340990046898 	-2.42861286636753e-17 	0.208060986035081 	0.0575361167097998 	2.59373380612488 	0.0177781825630289 	0
5 	0.966024566743242 	-1.73472347597681e-17 	0.207958484631294 	0.0563997419267224 	2.54563997585739 	0.0172631291410425 	0
5 	0.98803860501359 	-9.97465998686664e-18 	0.207891289831419 	0.0557074043345991 	2.51545506000651 	0.016917891312387 	0
5 	1.01003250347456 	-1.69135538907739e-17 	0.207798723559858 	0.0548763680084969 	2.47798640751889 	0.0164558962830688 	0
5 	1.05402863275205 	-1.38777878078145e-17 	0.207581929655302 	0.0530964020455346 	2.39657736141496 	0.0154304156988898 	0
5 	1.10046304758287 	-1.04083408558608e-17 	0.207287719881775 	0.0510243868577727 	2.29946464893408 	0.0141826300567972 	0
5 	1.14859849100923 	-2.08166817117217e-17 	0.206911215325048 	0.0487665948141732 	2.19101165605283 	0.0128018844017972 	0
5 	1.19849727668994 	-2.42861286636753e-17 	0.206445726637577 	0.0464067388991682 	2.07466142118872 	0.0113711795418332 	0
5 	1.25022400101563 	-1.38777878078145e-17 	0.205886455653591 	0.0440252355923348 	1.95396010790444 	0.00996934151917234 	0
5 	1.30384562673185 	-5.20417042793042e-18 	0.205231171409969 	0.0416898129879806 	1.83232076717709 	0.00865841942351421 	0
5 	1.35943156962565 	-1.73472347597681e-18 	0.204481216796925 	0.0394523402152104 	1.7133855072491 	0.00747742806363256 	0
5 	1.41705378838762 	6.93889390390723e-18 	0.203641453745883 	0.0373417803855492 	1.59990090098769 	0.00644162391200575 	0
5 	1.47678687776592 	1.56125112837913e-17 	0.20271843229137 	0.0353618823888203 	1.49283068716362 	0.00554714964122962 	0
5 	1.53870816513278 	1.04083408558608e-17 	0.201719653207879 	0.0334968899709331 	1.3915758089257 	0.00477604907410757 	0
5 	1.60289781058851 	5.20417042793042e-18 	0.200654084288817 	0.0317115504627819 	1.29304322821222 	0.00410629330329502 	0
5 	1.66943891073267 	1.0842021724855e-17 	0.199529311311615 	0.0299759596986314 	1.19607782954282 	0.0035208500001394 	0
5 	1.73841760623657 	1.0842021724855e-17 	0.198370003618872 	0.0282768644182992 	1.10369292134493 	0.00300956949357208 	0
5 	1.8099231933566 	6.93889390390723e-18 	0.197212923481275 	0.0266007110946993 	1.02045542007371 	0.00253521777050355 	0
5 	1.88404823953249 	6.93889390390723e-18 	0.196035463918314 	0.024934129259487 	0.948458030960193 	0.00210609578827064 	0
5 	1.96088870322038 	6.93889390390723e-18 	0.194816915326241 	0.023290293608985 	0.888059397137482 	0.00172424070557386 	0
5 	2.02025965173185 	6.93889390390723e-18 	0.193903512219549 	0.0220179334070049 	0.849383971750096 	0.00145952446838438 	0
5 	2.06006301192217 	6.93889390390723e-18 	0.193259903788667 	0.021139126341147 	0.825685148546031 	0.00128523471656319 	0
5 	2.09845978584128 	6.93889390390723e-18 	0.192670259087748 	0.0203301054366249 	0.806388669081442 	0.00113614047635431 	0
5 	2.13549967996946 	6.93889390390723e-18 	0.192106939089344 	0.0195582135835473 	0.790277087273671 	0.00100114460078428 	0
5 	2.17123064424048 	6.93889390390723e-18 	0.191570469985702 	0.0188216051323811 	0.777120714482036 	0.00087841442519009 	0
5 	2.20569893411516 	6.93889390390723e-18 	0.19106025787192 	0.0181186929147768 	0.766750889619108 	0.000766763054793938 	0
5 	2.23894917046123 	6.93889390390723e-18 	0.190575332891498 	0.0174480691532794 	0.759047851594366 	0.00066518522076298 	0
5 	2.27102439731726 	6.93889390390723e-18 	0.190114736020425 	0.0168084537908828 	0.753932379429722 	0.000572839132275067 	0
5 	2.30196613761522 	6.93889390390723e-18 	0.189677518473195 	0.0161986624822815 	0.751360232403279 	0.00048901875099669 	0
5 	2.33181444693392 	1.04083408558608e-17 	0.189262736481908 	0.0156175886896585 	0.751318682936088 	0.000413130942810465 	0
5 	2.3606079653529 	1.04083408558608e-17 	0.188869461857784 	0.0150641956247443 	0.753824633639059 	0.000344680679432304 	0
5 	2.38838396747391 	6.93889390390723e-18 	0.188496790532886 	0.0145375147461893 	0.758923962008756 	0.000283261781642461 	0
5 	2.41517841067461 	1.04083408558608e-17 	0.188143847586795 	0.0140366483962741 	0.766691855156111 	0.000228551565990814 	0
5 	2.44102598165722 	1.38777878078145e-17 	0.187809790152508 	0.0135607748715848 	0.777233986412819 	0.000180308495268421 	0
5 	2.46596014135208 	1.38777878078145e-17 	0.187493808811976 	0.0131091547540001 	0.790688451217924 	0.000138372238109267 	0
5 	2.49001316823444 	1.73472347597681e-17 	0.187195127806359 	0.0126811377046433 	0.807228427068111 	0.000102665741508472 	0
5 	2.51321620011054 	2.42861286636753e-17 	0.186913004347555 	0.0122761691731414 	0.827065555988207 	7.31990647461271e-05 	0
5 	2.535599274427 	2.77555756156289e-17 	0.186646727277835 	0.0118937966236212 	0.850454070967782 	5.00748146868691e-05 	0
5 	2.55719136715571 	2.77555756156289e-17 	0.186395615277754 	0.0115336749491072 	0.877695701844171 	3.34950690376918e-05 	0
5 	2.57802043030466 	2.42861286636753e-17 	0.18615901478175 	0.0111955707549131 	0.909145401811899 	2.37696841531464e-05 	0
5 	2.59811342810315 	2.08166817117217e-17 	0.185936297727109 	0.0108793651535272 	0.945217932814658 	2.1325862717428e-05 	0
5 	2.61749637190832 	2.08166817117217e-17 	0.185726859234358 	0.0105850546410329 	0.986395335560727 	2.67188081311728e-05 	0
5 	2.63619435387806 	2.42861286636753e-17 	0.185530115295459 	0.0103127495310807 	1.03323528644944 	4.06432213449569e-05 	0
5 	2.65423157945406 	2.42861286636753e-17 	0.185345500530255 	0.0100626693216994 	1.08638030800925 	6.39453091345181e-05 	0
5 	2.67163139869691 	2.08166817117217e-17 	0.185172466061237 	0.00983513428129681 	1.14656775089674 	9.76348809265816e-05 	0
5 	2.68841633651388 	2.08166817117217e-17 	0.185010477551323 	0.00963055248607775 	1.2146404049575 	0.000142897028836302 	0
5 	2.70460812181851 	1.73472347597681e-17 	0.184859013448153 	0.00944940154897042 	1.29155752769455 	0.000201102830039433 	0
5 	2.72022771565972 	1.04083408558608e-17 	0.184717563479855 	0.00929220437886991 	1.37840600775228 	0.00027381849883237 	0
5 	2.73529533835695 	1.04083408558608e-17 	0.184585627449455 	0.00915949852429536 	1.47641132035365 	0.000362812457839966 	0
5 	2.74983049567626 	1.73472347597681e-17 	0.184462714375443 	0.00905179900273403 	1.58694789790115 	0.000470059889603999 	0
5 	2.76385200408157 	2.08166817117217e-17 	0.184348342022035 	0.00896955499264701 	1.71154855428278 	0.000597744446588983 	0
5 	2.77737801509344 	2.08166817117217e-17 	0.184242036851845 	0.00891310134061648 	1.85191269265068 	0.000748256894860521 	0
5 	2.79042603878708 	2.08166817117217e-17 	0.184143334414758 	0.00888260645594384 	2.009913224518 	0.000924190492093444 	0
5 	2.80301296646003 	2.42861286636753e-17 	0.184051780163286 	0.0088780187540289 	2.18760246811055 	0.00112833282082002 	0
5 	2.81515509249873 	2.77555756156289e-17 	0.183966930668447 	0.008899014289425 	2.38721781668907 	0.00136365363323146 	0
5 	2.82686813547238 	2.77555756156289e-17 	0.183888355183233 	0.00894494852866746 	2.61118872119382 	0.00163328811340716 	0
5 	2.83816725848143 	2.42861286636753e-17 	0.183815637317766 	0.00901481532691861 	2.86214757216739 	0.00194051500433741 	0
5 	2.84906708878692 	2.42861286636753e-17 	0.183748376333386 	0.00910721610878967 	3.14294845376086 	0.00228872953607813 	0
5 	2.85958173674617 	2.42861286636753e-17 	0.183686189308137 	0.00922034206235427 	3.45669953382087 	0.00268141231387112 	0
5 	2.86972481407933 	1.73472347597681e-17 	0.183628721076867 	0.00935197189756382 	3.80681709423685 	0.00312209692255954 	0
5 	2.87950945149043 	2.08166817117217e-17 	0.183575654072304 	0.00949948747869635 	4.19711195229294 	0.00361434565041771 	0
5 	2.88894831566567 	2.42861286636753e-17 	0.1835266141708 	0.00965990932732603 	4.631922329194 	0.00416464685170963 	0
5 	2.89805362567107 	2.08166817117217e-17 	0.183480933144107 	0.00982992255291049 	5.11653260107395 	0.0048023399352954 	0
5 	2.90683716877067 	2.08166817117217e-17 	0.183438454637138 	0.0100056830875236 	5.65939192836308 	0.00552361445726517 	0
5 	2.9153103156857 	2.08166817117217e-17 	0.183399390907927 	0.010182660979803 	6.27059357506639 	0.0063481773818398 	0
5 	2.92348403531449 	2.08166817117217e-17 	0.183363600170954 	0.0103532458097227 	6.95674679553367 	0.00726636950613453 	0
5 	2.9313689089323 	1.73472347597681e-17 	0.18333086938303 	0.0105073584809705 	7.72166360738007 	0.00825476548944429 	0
5 	2.93897514388925 	1.04083408558608e-17 	0.183300928194414 	0.0106343017206726 	8.56996597307154 	0.00930107540482018 	0
5 	2.94631258682425 	6.93889390390723e-18 	0.183273536941236 	0.0107236389630829 	9.51006274346171 	0.0104019394724983 	0
5 	2.95339073641193 	3.46944695195361e-18 	0.183248521340745 	0.0107652506063525 	10.5566198220655 	0.0115595912544163 	0
5 	2.96021875565916 	0 	0.183225770278705 	0.0107488940991609 	11.7336810806165 	0.012779893247824 	0
5 	2.96680548376697 	0 	0.18320522633799 	0.0106634544327074 	13.0779189842536 	0.0140711105579778 	0
5 	2.97315944757337 	0 	0.183186876383937 	0.0104960180353764 	14.6407844175983 	0.0154422855774904 	0
5 	2.97928887259171 	3.46944695195361e-18 	0.18317074132504 	0.0102305804250566 	16.4968815007764 	0.0168991765566133 	0
5 	2.98520169365903 	6.93889390390723e-18 	0.183156862550133 	0.00984614650107436 	18.7580103066442 	0.0184341865673281 	0
5 	2.99090556520807 	1.38777878078145e-17 	0.183145281157991 	0.00931444827906696 	21.5938062632654 	0.0200041553945187 	0
5 	2.99640787117633 	2.08166817117217e-17 	0.183136006284946 	0.00859760207856056 	25.2708638093707 	0.0214812402389446 	0
5 	3.00171573456492 	2.08166817117217e-17 	0.183128980107851 	0.0076475590736768 	30.233139747702 	0.0225854477550698 	0
5 	3.00683602665963 	2.08166817117217e-17 	0.183124066664119 	0.00640984055830026 	37.2909263757647 	0.0227182204954576 	0
5 	3.01177537592613 	2.08166817117217e-17 	0.183121058522055 	0.00484000984827271 	48.1285770301429 	0.0200765947644166 	0
5 	3.01654017659085 	2.08166817117217e-17 	0.183119487358775 	0.00304105092474754 	66.9411482915805 	0.0135005889318288 	0
5 	3.02113659691864 	2.08166817117217e-17 	0.183118751049978 	0.00142076533783801 	107.264160217008 	0.00551943563920614 	0
5 	3.02557058719784 	2.77555756156289e-17 	0.183118486335441 	0.000440356945673072 	225.85142130761 	0.00113329808596708 	0
5 	3.02984788744324 	3.46944695195361e-17 	0.183118544934925 	7.69969161405734e-05 	801.471004159549 	0.000103576877929781 	0
