5 	0.00391112967796265 	-1.73472347597681e-18 	-0.0265966045771151 	-9.22431119228233e-05 	1.81461253043811e-15
5 	0.0118766651674913 	-9.54097911787244e-18 	-0.0683177259664485 	-0.000197004814042878 	-2.57537974285367e-15
5 	0.020134001548576 	-9.54097911787244e-18 	-0.0954370678728226 	-0.000554116745741838 	-9.53958391589392e-17
5 	0.028693828342395 	-6.07153216591882e-18 	-0.106212102210003 	-0.00109041389070346 	-1.19436713649252e-22
5 	0.0375672266585908 	-8.67361737988404e-18 	-0.107534052581812 	-0.0016791839309742 	-1.01708122518651e-20
5 	0.0467656835403031 	-1.86482773667507e-17 	-0.105561079110922 	-0.00230208769907481 	-6.54989815279069e-21
5 	0.0563011068347006 	-2.47198095326695e-17 	-0.102494971537853 	-0.00296616690590164 	9.09705703552039e-21
5 	0.0661858406082649 	-2.21177243187043e-17 	-0.0989838444289063 	-0.0036678820981957 	7.52348592397079e-23
5 	0.0764326811267816 	-1.90819582357449e-17 	-0.0952320011262457 	-0.00440270174522495 	-2.80806952007329e-21
5 	0.0870548934207257 	-1.77809156287623e-17 	-0.0913081123356383 	-0.00516850525633317 	-2.36726153007964e-21
5 	0.098066228457484 	-8.02309607639273e-18 	-0.0872326830712717 	-0.0059646045518818 	-9.16320151441224e-25
5 	0.109480940942647 	2.38524477946811e-18 	-0.0830065340182717 	-0.00679086059239929 	0
5 	0.121313807773416 	2.81892564846231e-18 	-0.0786213333934836 	-0.00764736982723324 	1.04062259686313e-23
5 	0.13358014716801 	-9.75781955236954e-19 	-0.0740638725162146 	-0.0085343629955896 	1.52776930893384e-23
5 	0.146295838495838 	-2.38524477946811e-18 	-0.0693178987731115 	-0.0094521506450787 	1.42157609011379e-21
5 	0.159477342834115 	-8.32802793740428e-18 	-0.0643649025273825 	-0.0104010836866395 	1.3389604219347e-21
5 	0.173141724277517 	-2.10131933554847e-17 	-0.059183749340834 	-0.0113815529951334 	-2.57011784313937e-21
5 	0.18730667202848 	-2.77555756156289e-17 	-0.0537515292018161 	-0.0123939008261639 	1.48204842254214e-23
5 	0.201990523296728 	-2.42861286636753e-17 	-0.0480446449056367 	-0.0134383908806479 	2.44687226345616e-23
5 	0.217212287037675 	-2.42861286636753e-17 	-0.042036595122082 	-0.0145152785636312 	1.75115780747396e-23
5 	0.232991668560441 	-2.77555756156289e-17 	-0.0356985760053486 	-0.0156247428420152 	2.00863495580525e-21
5 	0.249349095037321 	-2.77555756156289e-17 	-0.0289992572361758 	-0.0167668634256579 	-3.88982859109234e-21
5 	0.266305741947753 	-3.46944695195361e-17 	-0.0219045326984406 	-0.017941595452122 	-1.1863897628612e-24
5 	0.283883560490998 	-4.85722573273506e-17 	-0.0143772505225721 	-0.0191487408034962 	1.82138343792366e-21
5 	0.30210530600303 	-5.55111512312578e-17 	-0.00637692612289438 	-0.0203879151884577 	-4.15936501550264e-23
5 	0.320994567414413 	-5.55111512312578e-17 	0.00214055724989452 	-0.0216585111182933 	-3.81475425989436e-18
5 	0.340575797787321 	-5.89805981832114e-17 	0.0112232441899573 	-0.0229596518674185 	-1.37903346267925e-16
5 	0.360874345971201 	-6.59194920871187e-17 	0.0209234091083409 	-0.0242901389384691 	1.37385243008192e-16
5 	0.38191648941809 	-6.93889390390723e-17 	0.0312978659929893 	-0.0256483904686577 	5.46512105836415e-18
5 	0.403729468200046 	-6.24500451351651e-17 	0.0424082572414403 	-0.0270323744438446 	3.04809478005566e-24
5 	0.426341520272733 	-4.85722573273506e-17 	0.0543213054234012 	-0.0284395285631746 	-6.04346352666144e-21
5 	0.449781918030828 	-4.85722573273506e-17 	0.0671090111339272 	-0.0298666688103668 	-6.87571081206204e-22
5 	0.474081006202548 	-5.55111512312578e-17 	0.0808487695019375 	-0.0313098696298735 	-3.26945757266877e-22
5 	0.499270241132363 	-4.85722573273506e-17 	0.0956233682606671 	-0.0327642827040645 	3.33101348593975e-21
5 	0.525382231502763 	-4.5102810375397e-17 	0.111520821507319 	-0.0342240483678044 	3.96531400493674e-21
5 	0.552450780547767 	-4.5102810375397e-17 	0.128634001993967 	-0.0356830031372115 	4.78117692333569e-21
5 	0.580510929812849 	-3.81639164714898e-17 	0.14706041069011 	-0.0371349809181801 	-5.6639488576488e-22
5 	0.60959900451791 	-2.77555756156289e-17 	0.166938709199097 	-0.0385648872411642 	4.74409309049346e-21
5 	0.639752660582032 	-2.08166817117217e-17 	0.188659181191373 	-0.0399469972662377 	-6.5887942910937e-23
5 	0.671010933370886 	-1.38777878078145e-17 	0.212793867648021 	-0.0412574974588339 	-8.50419852547208e-21
5 	0.7034142882299 	-3.46944695195361e-18 	0.239680158431789 	-0.0424558834824906 	8.09949182182012e-22
5 	0.737004672868606 	-6.93889390390723e-18 	0.269295502256376 	-0.0435164893887327 	-2.46073459646973e-21
5 	0.771825571663976 	-1.73472347597681e-17 	0.301410383246662 	-0.0444273777237877 	-1.07396030891932e-21
5 	0.807922061953053 	-2.08166817117217e-17 	0.335749724717758 	-0.0451774289972934 	-1.18691987420526e-21
5 	0.845340872387742 	-1.73472347597681e-17 	0.372069355516941 	-0.0457508455712365 	-2.60139705301649e-21
5 	0.884130443427309 	-1.73472347597681e-17 	0.410151178450999 	-0.0461280245452965 	3.91660314453704e-21
5 	0.924340990046898 	-2.42861286636753e-17 	0.449755899186201 	-0.0462891187385584 	-6.53677925272291e-21
5 	0.966024566743242 	-1.73472347597681e-17 	0.49057437277345 	-0.0462182038747362 	-2.34670854721128e-21
5 	0.98803860501359 	-9.97465998686664e-18 	0.511998811363304 	-0.0461149584688615 	-2.11740400982147e-23
5 	1.01003250347456 	-1.69135538907739e-17 	0.532959130014315 	-0.0459021737749299 	2.7943727621297e-21
5 	1.05402863275205 	-1.38777878078145e-17 	0.574162058585919 	-0.0453655628441903 	5.20326527189964e-21
5 	1.10046304758287 	-1.04083408558608e-17 	0.615933970046257 	-0.0445926907518366 	4.66213167289158e-23
5 	1.14859849100923 	-2.08166817117217e-17 	0.656967517021473 	-0.0436121527491662 	-1.3364646794997e-20
5 	1.19849727668994 	-2.42861286636753e-17 	0.696765134250714 	-0.0424530957672648 	-1.14467626181422e-20
5 	1.25022400101563 	-1.38777878078145e-17 	0.73493043541626 	-0.0411500361314199 	-3.72299801946791e-20
5 	1.30384562673185 	-5.20417042793042e-18 	0.771200648932225 	-0.0397389830582834 	6.91018666688685e-21
5 	1.35943156962565 	-1.73472347597681e-18 	0.805450056394055 	-0.0382529128199406 	-2.52442507861688e-21
5 	1.41705378838762 	6.93889390390723e-18 	0.83766747414272 	-0.0367179367291545 	-1.88306006455302e-21
5 	1.47678687776592 	1.56125112837913e-17 	0.867921778869847 	-0.0351515072482585 	-4.89120453800384e-21
5 	1.53870816513278 	1.04083408558608e-17 	0.896325386320349 	-0.033562681986402 	-2.63450857206467e-20
5 	1.60289781058851 	5.20417042793042e-18 	0.922988005567905 	-0.0319546222709877 	-4.94086829531883e-22
5 	1.66943891073267 	1.0842021724855e-17 	0.947976776140559 	-0.0303314229308814 	-2.55906498173958e-20
5 	1.73841760623657 	1.0842021724855e-17 	0.971336140397538 	-0.028680026043913 	-2.65754325902352e-20
5 	1.8099231933566 	6.93889390390723e-18 	0.993137448438346 	-0.0269662727172301 	2.61687557079177e-22
5 	1.88404823953249 	6.93889390390723e-18 	1.01354423586549 	-0.0251867807046161 	4.15742562566834e-20
5 	1.96088870322038 	6.93889390390723e-18 	1.03229370415137 	-0.0234105567868815 	3.38018559461355e-20
5 	2.02025965173185 	6.93889390390723e-18 	1.04553024114103 	-0.0220201185407395 	1.72004201329824e-23
5 	2.06006301192217 	6.93889390390723e-18 	1.05421919607239 	-0.0210744635344347 	0
5 	2.09845978584128 	6.93889390390723e-18 	1.0618395171194 	-0.0201999662500404 	0
5 	2.13549967996946 	6.93889390390723e-18 	1.06877553861261 	-0.0193627949893907 	0
5 	2.17123064424048 	6.93889390390723e-18 	1.0750840633407 	-0.018561780694916 	0
5 	2.20569893411516 	6.93889390390723e-18 	1.08081435462393 	-0.0177949173634257 	0
5 	2.23894917046123 	6.93889390390723e-18 	1.08600926929414 	-0.0170603012837145 	0
5 	2.27102439731726 	6.93889390390723e-18 	1.09070612522145 	-0.0163562262526577 	0
5 	2.30196613761522 	6.93889390390723e-18 	1.09493737602621 	-0.0156811218413288 	0
5 	2.33181444693392 	1.04083408558608e-17 	1.09873114040698 	-0.0150335285130477 	0
5 	2.3606079653529 	1.04083408558608e-17 	1.10211161935216 	-0.0144120841764574 	0
5 	2.38838396747391 	6.93889390390723e-18 	1.10509942577147 	-0.0138155115275055 	0
5 	2.41517841067461 	1.04083408558608e-17 	1.10771184445957 	-0.0132426067483888 	0
5 	2.44102598165722 	1.38777878078145e-17 	1.10996303543305 	-0.0126922299295433 	0
5 	2.46596014135208 	1.38777878078145e-17 	1.11186419027858 	-0.0121632969344061 	0
5 	2.49001316823444 	1.73472347597681e-17 	1.11342364884963 	-0.0116547724073785 	0
5 	2.51321620011054 	2.42861286636753e-17 	1.1146469821643 	-0.0111656636921226 	0
5 	2.535599274427 	2.77555756156289e-17 	1.11553704649031 	-0.0106950154694933 	0
5 	2.55719136715571 	2.77555756156289e-17 	1.11609401322348 	-0.0102419049588419 	0
5 	2.57802043030466 	2.42861286636753e-17 	1.11631537918268 	-0.00980543756009778 	0
5 	2.59811342810315 	2.08166817117217e-17 	1.11619596229098 	-0.00938474284764291 	0
5 	2.61749637190832 	2.08166817117217e-17 	1.11572788822995 	-0.00897897086203995 	0
5 	2.63619435387806 	2.42861286636753e-17 	1.11490057446656 	-0.00858728868425183 	0
5 	2.65423157945406 	2.42861286636753e-17 	1.11370071895845 	-0.00820887732103776 	0
5 	2.67163139869691 	2.08166817117217e-17 	1.11211230169633 	-0.00784292898099335 	0
5 	2.68841633651388 	2.08166817117217e-17 	1.11011660784215 	-0.00748864487828302 	1.0979970923836e-16
5 	2.70460812181851 	1.73472347597681e-17 	1.10769228132057 	-0.00714523376365033 	1.83015829952321e-15
5 	2.72022771565972 	1.04083408558608e-17 	1.10481541704557 	-0.00681191144525825 	-1.92604581297723e-15
5 	2.73529533835695 	1.04083408558608e-17 	1.10145969825879 	-0.0064879016174633 	-1.14899577872755e-16
5 	2.74983049567626 	1.73472347597681e-17 	1.09759658256155 	-0.0061724383523774 	0
5 	2.76385200408157 	2.08166817117217e-17 	1.09319553615068 	-0.00586477061267898 	0
5 	2.77737801509344 	2.08166817117217e-17 	1.08822431077531 	-0.00556416909930642 	0
5 	2.79042603878708 	2.08166817117217e-17 	1.08264925252728 	-0.00526993564182388 	0
5 	2.80301296646003 	2.42861286636753e-17 	1.07643562644525 	-0.00498141516420509 	0
5 	2.81515509249873 	2.77555756156289e-17 	1.06954793672221 	-0.00469801000103845 	0
5 	2.82686813547238 	2.77555756156289e-17 	1.06195021946675 	-0.00441919599660864 	0
5 	2.83816725848143 	2.42861286636753e-17 	1.05360628340273 	-0.00414453962268992 	0
5 	2.84906708878692 	2.42861286636753e-17 	1.0444798729783 	-0.00387371590113843 	0
5 	2.85958173674617 	2.42861286636753e-17 	1.03453472709713 	-0.00360652624480844 	0
5 	2.86972481407933 	1.73472347597681e-17 	1.02373450416573 	-0.00334290272189621 	0
5 	2.87950945149043 	2.08166817117217e-17 	1.01204254005878 	-0.00308287269935689 	0
5 	2.88894831566567 	2.42861286636753e-17 	0.999421377216317 	-0.00282662744353918 	0
5 	2.89805362567107 	2.08166817117217e-17 	0.985823576018829 	-0.0025751560424345 	0
5 	2.90683716877067 	2.08166817117217e-17 	0.971114665406096 	-0.00232773295586223 	0
5 	2.9153103156857 	2.08166817117217e-17 	0.955097706946592 	-0.00208367193201076 	0
5 	2.92348403531449 	2.08166817117217e-17 	0.937657600766279 	-0.00184328485983324 	0
5 	2.9313689089323 	1.73472347597681e-17 	0.918767050088882 	-0.00160853249076173 	0
5 	2.93897514388925 	1.04083408558608e-17 	0.89842887687997 	-0.00138183541835401 	0
5 	2.94631258682425 	6.93889390390723e-18 	0.8766375240795 	-0.00116569094032426 	0
5 	2.95339073641193 	3.46944695195361e-18 	0.853357128283377 	-0.000962485964640951 	0
5 	2.96021875565916 	0 	0.828507198418212 	-0.000774394353279586 	0
5 	2.96680548376697 	0 	0.801949051723504 	-0.000603318726831964 	0
5 	2.97315944757337 	0 	0.773468489983106 	-0.000450846547821037 	0
5 	2.97928887259171 	3.46944695195361e-18 	0.74275158888718 	-0.000318208722955973 	0
5 	2.98520169365903 	6.93889390390723e-18 	0.709350664028414 	-0.000206235804150067 	0
5 	2.99090556520807 	1.38777878078145e-17 	0.672637491553238 	-0.000115310384778861 	-1.14753963851896e-15
5 	2.99640787117633 	2.08166817117217e-17 	0.631740971258043 	-4.53217323737958e-05 	-9.97397296760681e-15
5 	3.00171573456492 	2.08166817117217e-17 	0.58547315504623 	4.37428330455238e-06 	1.17443750925632e-14
5 	3.00683602665963 	2.08166817117217e-17 	0.532204353344632 	3.51339171715022e-05 	1.31100908282563e-15
5 	3.01177537592613 	2.08166817117217e-17 	0.46954920116675 	4.96964129264892e-05 	0
5 	3.01654017659085 	2.08166817117217e-17 	0.395140007423586 	5.08593742191636e-05 	0
5 	3.02113659691864 	2.08166817117217e-17 	0.30967550539864 	4.20302748542915e-05 	0
5 	3.02557058719784 	2.77555756156289e-17 	0.218740922449344 	2.73885201534976e-05 	0
5 	3.02984788744324 	3.46944695195361e-17 	0.12867794162025 	1.2525882296751e-05 	0
