# k  FACE_DATA 11045
#  x  y  z  k
0.0005 4.59758e-05 4.69794e-05 6.85573
0.0005 0.000133748 4.69794e-05 7.20602
0.0005 0.000213541 4.69794e-05 7.80583
0.0005 0.000286079 4.69794e-05 8.57029
0.0005 0.000352024 4.69794e-05 9.43067
0.0005 0.000411973 4.69794e-05 10.3339
0.0005 0.000466473 4.69794e-05 11.2406
0.0005 0.000516018 4.69794e-05 12.1232
0.0005 0.000561059 4.69794e-05 12.9631
0.0005 0.000602005 4.69794e-05 13.7488
0.0005 0.000639229 4.69794e-05 14.4736
0.0005 0.000673069 4.69794e-05 15.1308
0.0005 0.000703833 4.69794e-05 15.7111
0.0005 0.000731799 4.69794e-05 16.2088
0.0005 0.000757224 4.69794e-05 16.6218
0.0005 0.000780337 4.69794e-05 16.9495
0.0005 0.000801349 4.69794e-05 17.1912
0.0005 0.000820451 4.69794e-05 17.3449
0.0005 0.000837816 4.69794e-05 17.4073
0.0005 0.000853602 4.69794e-05 17.3731
0.0005 0.000867954 4.69794e-05 17.2351
0.0005 0.000881001 4.69794e-05 16.9839
0.0005 0.000892861 4.69794e-05 16.6086
0.0005 0.000903644 4.69794e-05 16.0965
0.0005 0.000913446 4.69794e-05 15.4347
0.0005 0.000922357 4.69794e-05 14.6113
0.0005 0.000930458 4.69794e-05 13.6182
0.0005 0.000937823 4.69794e-05 12.4546
0.0005 0.000944518 4.69794e-05 11.1312
0.0005 0.000950604 4.69794e-05 9.67338
0.0005 0.000956137 4.69794e-05 8.11321
0.0005 0.000961167 4.69794e-05 6.51848
0.0005 0.00096574 4.69794e-05 4.98697
0.0005 0.000969897 4.69794e-05 3.62162
0.0005 0.000973676 4.69794e-05 2.49772
0.0005 0.000977112 4.69794e-05 1.64092
0.0005 0.000980235 4.69794e-05 1.03027
0.0005 0.000983075 4.69794e-05 0.618877
0.0005 0.000985656 4.69794e-05 0.354697
0.0005 0.000988002 4.69794e-05 0.192492
0.0005 0.000990136 4.69794e-05 0.0975547
0.0005 0.000992075 4.69794e-05 0.0451179
0.0005 0.000993838 4.69794e-05 0.0183201
0.0005 0.000995441 4.69794e-05 0.00609584
0.0005 0.000996898 4.69794e-05 0.00144979
0.0005 0.000998222 4.69794e-05 0.000180642
0.0005 0.000999427 4.69794e-05 5.41816e-06
0.0005 4.59758e-05 0.000140066 6.85504
0.0005 0.000133748 0.000140066 7.20531
0.0005 0.000213541 0.000140066 7.80507
0.0005 0.000286079 0.000140066 8.56946
0.0005 0.000352024 0.000140066 9.42977
0.0005 0.000411973 0.000140066 10.3329
0.0005 0.000466473 0.000140066 11.2396
0.0005 0.000516018 0.000140066 12.1221
0.0005 0.000561059 0.000140066 12.9619
0.0005 0.000602005 0.000140066 13.7476
0.0005 0.000639229 0.000140066 14.4724
0.0005 0.000673069 0.000140066 15.1296
0.0005 0.000703833 0.000140066 15.7098
0.0005 0.000731799 0.000140066 16.2075
0.0005 0.000757224 0.000140066 16.6205
0.0005 0.000780337 0.000140066 16.9482
0.0005 0.000801349 0.000140066 17.1898
0.0005 0.000820451 0.000140066 17.3436
0.0005 0.000837816 0.000140066 17.406
0.0005 0.000853602 0.000140066 17.3718
0.0005 0.000867954 0.000140066 17.2337
0.0005 0.000881001 0.000140066 16.9826
0.0005 0.000892861 0.000140066 16.6073
0.0005 0.000903644 0.000140066 16.0952
0.0005 0.000913446 0.000140066 15.4335
0.0005 0.000922357 0.000140066 14.6101
0.0005 0.000930458 0.000140066 13.617
0.0005 0.000937823 0.000140066 12.4534
0.0005 0.000944518 0.000140066 11.1302
0.0005 0.000950604 0.000140066 9.67237
0.0005 0.000956137 0.000140066 8.1123
0.0005 0.000961167 0.000140066 6.51769
0.0005 0.00096574 0.000140066 4.98632
0.0005 0.000969897 0.000140066 3.62112
0.0005 0.000973676 0.000140066 2.49735
0.0005 0.000977112 0.000140066 1.64067
0.0005 0.000980235 0.000140066 1.03011
0.0005 0.000983075 0.000140066 0.61878
0.0005 0.000985656 0.000140066 0.354641
0.0005 0.000988002 0.000140066 0.192462
0.0005 0.000990136 0.000140066 0.0975392
0.0005 0.000992075 0.000140066 0.0451107
0.0005 0.000993838 0.000140066 0.0183172
0.0005 0.000995441 0.000140066 0.00609487
0.0005 0.000996898 0.000140066 0.00144956
0.0005 0.000998222 0.000140066 0.000180614
0.0005 0.000999427 0.000140066 5.4173e-06
0.0005 4.59758e-05 0.000231425 6.85373
0.0005 0.000133748 0.000231425 7.20393
0.0005 0.000213541 0.000231425 7.8036
0.0005 0.000286079 0.000231425 8.56786
0.0005 0.000352024 0.000231425 9.42803
0.0005 0.000411973 0.000231425 10.331
0.0005 0.000466473 0.000231425 11.2376
0.0005 0.000516018 0.000231425 12.12
0.0005 0.000561059 0.000231425 12.9597
0.0005 0.000602005 0.000231425 13.7453
0.0005 0.000639229 0.000231425 14.47
0.0005 0.000673069 0.000231425 15.1271
0.0005 0.000703833 0.000231425 15.7072
0.0005 0.000731799 0.000231425 16.2049
0.0005 0.000757224 0.000231425 16.6179
0.0005 0.000780337 0.000231425 16.9456
0.0005 0.000801349 0.000231425 17.1872
0.0005 0.000820451 0.000231425 17.3409
0.0005 0.000837816 0.000231425 17.4033
0.0005 0.000853602 0.000231425 17.3691
0.0005 0.000867954 0.000231425 17.2311
0.0005 0.000881001 0.000231425 16.98
0.0005 0.000892861 0.000231425 16.6046
0.0005 0.000903644 0.000231425 16.0926
0.0005 0.000913446 0.000231425 15.4309
0.0005 0.000922357 0.000231425 14.6076
0.0005 0.000930458 0.000231425 13.6145
0.0005 0.000937823 0.000231425 12.4511
0.0005 0.000944518 0.000231425 11.1279
0.0005 0.000950604 0.000231425 9.67029
0.0005 0.000956137 0.000231425 8.11041
0.0005 0.000961167 0.000231425 6.51605
0.0005 0.00096574 0.000231425 4.98497
0.0005 0.000969897 0.000231425 3.62007
0.0005 0.000973676 0.000231425 2.49659
0.0005 0.000977112 0.000231425 1.64015
0.0005 0.000980235 0.000231425 1.02978
0.0005 0.000983075 0.000231425 0.618578
0.0005 0.000985656 0.000231425 0.354524
0.0005 0.000988002 0.000231425 0.192398
0.0005 0.000990136 0.000231425 0.0975071
0.0005 0.000992075 0.000231425 0.0450958
0.0005 0.000993838 0.000231425 0.0183112
0.0005 0.000995441 0.000231425 0.00609286
0.0005 0.000996898 0.000231425 0.00144908
0.0005 0.000998222 0.000231425 0.000180554
0.0005 0.000999427 0.000231425 5.41551e-06
0.0005 4.59758e-05 0.000321089 6.85181
0.0005 0.000133748 0.000321089 7.20192
0.0005 0.000213541 0.000321089 7.80143
0.0005 0.000286079 0.000321089 8.56551
0.0005 0.000352024 0.000321089 9.42548
0.0005 0.000411973 0.000321089 10.3283
0.0005 0.000466473 0.000321089 11.2346
0.0005 0.000516018 0.000321089 12.1168
0.0005 0.000561059 0.000321089 12.9564
0.0005 0.000602005 0.000321089 13.7418
0.0005 0.000639229 0.000321089 14.4664
0.0005 0.000673069 0.000321089 15.1234
0.0005 0.000703833 0.000321089 15.7035
0.0005 0.000731799 0.000321089 16.2011
0.0005 0.000757224 0.000321089 16.614
0.0005 0.000780337 0.000321089 16.9416
0.0005 0.000801349 0.000321089 17.1832
0.0005 0.000820451 0.000321089 17.337
0.0005 0.000837816 0.000321089 17.3994
0.0005 0.000853602 0.000321089 17.3652
0.0005 0.000867954 0.000321089 17.2271
0.0005 0.000881001 0.000321089 16.976
0.0005 0.000892861 0.000321089 16.6007
0.0005 0.000903644 0.000321089 16.0887
0.0005 0.000913446 0.000321089 15.427
0.0005 0.000922357 0.000321089 14.6038
0.0005 0.000930458 0.000321089 13.6108
0.0005 0.000937823 0.000321089 12.4475
0.0005 0.000944518 0.000321089 11.1245
0.0005 0.000950604 0.000321089 9.66715
0.0005 0.000956137 0.000321089 8.10757
0.0005 0.000961167 0.000321089 6.51358
0.0005 0.00096574 0.000321089 4.98293
0.0005 0.000969897 0.000321089 3.61849
0.0005 0.000973676 0.000321089 2.49545
0.0005 0.000977112 0.000321089 1.63937
0.0005 0.000980235 0.000321089 1.02928
0.0005 0.000983075 0.000321089 0.618274
0.0005 0.000985656 0.000321089 0.354349
0.0005 0.000988002 0.000321089 0.192303
0.0005 0.000990136 0.000321089 0.0974586
0.0005 0.000992075 0.000321089 0.0450734
0.0005 0.000993838 0.000321089 0.018302
0.0005 0.000995441 0.000321089 0.00608982
0.0005 0.000996898 0.000321089 0.00144836
0.0005 0.000998222 0.000321089 0.000180464
0.0005 0.000999427 0.000321089 5.41282e-06
0.0005 4.59758e-05 0.000409087 6.84931
0.0005 0.000133748 0.000409087 7.1993
0.0005 0.000213541 0.000409087 7.79861
0.0005 0.000286079 0.000409087 8.56243
0.0005 0.000352024 0.000409087 9.42213
0.0005 0.000411973 0.000409087 10.3246
0.0005 0.000466473 0.000409087 11.2307
0.0005 0.000516018 0.000409087 12.1127
0.0005 0.000561059 0.000409087 12.952
0.0005 0.000602005 0.000409087 13.7373
0.0005 0.000639229 0.000409087 14.4617
0.0005 0.000673069 0.000409087 15.1186
0.0005 0.000703833 0.000409087 15.6985
0.0005 0.000731799 0.000409087 16.196
0.0005 0.000757224 0.000409087 16.6089
0.0005 0.000780337 0.000409087 16.9365
0.0005 0.000801349 0.000409087 17.178
0.0005 0.000820451 0.000409087 17.3317
0.0005 0.000837816 0.000409087 17.3941
0.0005 0.000853602 0.000409087 17.3599
0.0005 0.000867954 0.000409087 17.2219
0.0005 0.000881001 0.000409087 16.9708
0.0005 0.000892861 0.000409087 16.5955
0.0005 0.000903644 0.000409087 16.0835
0.0005 0.000913446 0.000409087 15.4219
0.0005 0.000922357 0.000409087 14.5988
0.0005 0.000930458 0.000409087 13.6059
0.0005 0.000937823 0.000409087 12.4428
0.0005 0.000944518 0.000409087 11.1201
0.0005 0.000950604 0.000409087 9.66299
0.0005 0.000956137 0.000409087 8.1038
0.0005 0.000961167 0.000409087 6.5103
0.0005 0.00096574 0.000409087 4.98022
0.0005 0.000969897 0.000409087 3.61639
0.0005 0.000973676 0.000409087 2.49392
0.0005 0.000977112 0.000409087 1.63834
0.0005 0.000980235 0.000409087 1.02862
0.0005 0.000983075 0.000409087 0.61787
0.0005 0.000985656 0.000409087 0.354116
0.0005 0.000988002 0.000409087 0.192176
0.0005 0.000990136 0.000409087 0.0973941
0.0005 0.000992075 0.000409087 0.0450436
0.0005 0.000993838 0.000409087 0.0182899
0.0005 0.000995441 0.000409087 0.00608579
0.0005 0.000996898 0.000409087 0.0014474
0.0005 0.000998222 0.000409087 0.000180345
0.0005 0.000999427 0.000409087 5.40923e-06
0.0005 4.59758e-05 0.000495453 6.84624
0.0005 0.000133748 0.000495453 7.19608
0.0005 0.000213541 0.000495453 7.79514
0.0005 0.000286079 0.000495453 8.55865
0.0005 0.000352024 0.000495453 9.41801
0.0005 0.000411973 0.000495453 10.3202
0.0005 0.000466473 0.000495453 11.2259
0.0005 0.000516018 0.000495453 12.1076
0.0005 0.000561059 0.000495453 12.9467
0.0005 0.000602005 0.000495453 13.7317
0.0005 0.000639229 0.000495453 14.4559
0.0005 0.000673069 0.000495453 15.1126
0.0005 0.000703833 0.000495453 15.6924
0.0005 0.000731799 0.000495453 16.1898
0.0005 0.000757224 0.000495453 16.6025
0.0005 0.000780337 0.000495453 16.9301
0.0005 0.000801349 0.000495453 17.1716
0.0005 0.000820451 0.000495453 17.3252
0.0005 0.000837816 0.000495453 17.3876
0.0005 0.000853602 0.000495453 17.3534
0.0005 0.000867954 0.000495453 17.2153
0.0005 0.000881001 0.000495453 16.9642
0.0005 0.000892861 0.000495453 16.589
0.0005 0.000903644 0.000495453 16.0771
0.0005 0.000913446 0.000495453 15.4156
0.0005 0.000922357 0.000495453 14.5925
0.0005 0.000930458 0.000495453 13.5999
0.0005 0.000937823 0.000495453 12.4369
0.0005 0.000944518 0.000495453 11.1145
0.0005 0.000950604 0.000495453 9.65781
0.0005 0.000956137 0.000495453 8.09912
0.0005 0.000961167 0.000495453 6.50622
0.0005 0.00096574 0.000495453 4.97685
0.0005 0.000969897 0.000495453 3.61378
0.0005 0.000973676 0.000495453 2.49203
0.0005 0.000977112 0.000495453 1.63705
0.0005 0.000980235 0.000495453 1.02779
0.0005 0.000983075 0.000495453 0.617368
0.0005 0.000985656 0.000495453 0.353826
0.0005 0.000988002 0.000495453 0.192018
0.0005 0.000990136 0.000495453 0.0973141
0.0005 0.000992075 0.000495453 0.0450065
0.0005 0.000993838 0.000495453 0.0182749
0.0005 0.000995441 0.000495453 0.00608079
0.0005 0.000996898 0.000495453 0.00144621
0.0005 0.000998222 0.000495453 0.000180196
0.0005 0.000999427 0.000495453 5.40478e-06
0.0005 4.59758e-05 0.000580215 6.84263
0.0005 0.000133748 0.000580215 7.19228
0.0005 0.000213541 0.000580215 7.79104
0.0005 0.000286079 0.000580215 8.55418
0.0005 0.000352024 0.000580215 9.41312
0.0005 0.000411973 0.000580215 10.3149
0.0005 0.000466473 0.000580215 11.2203
0.0005 0.000516018 0.000580215 12.1016
0.0005 0.000561059 0.000580215 12.9403
0.0005 0.000602005 0.000580215 13.725
0.0005 0.000639229 0.000580215 14.449
0.0005 0.000673069 0.000580215 15.1054
0.0005 0.000703833 0.000580215 15.6851
0.0005 0.000731799 0.000580215 16.1823
0.0005 0.000757224 0.000580215 16.595
0.0005 0.000780337 0.000580215 16.9224
0.0005 0.000801349 0.000580215 17.1639
0.0005 0.000820451 0.000580215 17.3175
0.0005 0.000837816 0.000580215 17.3798
0.0005 0.000853602 0.000580215 17.3456
0.0005 0.000867954 0.000580215 17.2075
0.0005 0.000881001 0.000580215 16.9565
0.0005 0.000892861 0.000580215 16.5813
0.0005 0.000903644 0.000580215 16.0694
0.0005 0.000913446 0.000580215 15.408
0.0005 0.000922357 0.000580215 14.5851
0.0005 0.000930458 0.000580215 13.5926
0.0005 0.000937823 0.000580215 12.4299
0.0005 0.000944518 0.000580215 11.1078
0.0005 0.000950604 0.000580215 9.65164
0.0005 0.000956137 0.000580215 8.09353
0.0005 0.000961167 0.000580215 6.50136
0.0005 0.00096574 0.000580215 4.97284
0.0005 0.000969897 0.000580215 3.61067
0.0005 0.000973676 0.000580215 2.48978
0.0005 0.000977112 0.000580215 1.63552
0.0005 0.000980235 0.000580215 1.02681
0.0005 0.000983075 0.000580215 0.616769
0.0005 0.000985656 0.000580215 0.353481
0.0005 0.000988002 0.000580215 0.19183
0.0005 0.000990136 0.000580215 0.0972186
0.0005 0.000992075 0.000580215 0.0449624
0.0005 0.000993838 0.000580215 0.0182569
0.0005 0.000995441 0.000580215 0.00607482
0.0005 0.000996898 0.000580215 0.00144479
0.0005 0.000998222 0.000580215 0.000180019
0.0005 0.000999427 0.000580215 5.39948e-06
0.0005 4.59758e-05 0.000663404 6.83848
0.0005 0.000133748 0.000663404 7.18793
0.0005 0.000213541 0.000663404 7.78632
0.0005 0.000286079 0.000663404 8.54902
0.0005 0.000352024 0.000663404 9.40749
0.0005 0.000411973 0.000663404 10.3088
0.0005 0.000466473 0.000663404 11.2137
0.0005 0.000516018 0.000663404 12.0946
0.0005 0.000561059 0.000663404 12.9329
0.0005 0.000602005 0.000663404 13.7173
0.0005 0.000639229 0.000663404 14.441
0.0005 0.000673069 0.000663404 15.0972
0.0005 0.000703833 0.000663404 15.6766
0.0005 0.000731799 0.000663404 16.1737
0.0005 0.000757224 0.000663404 16.5862
0.0005 0.000780337 0.000663404 16.9135
0.0005 0.000801349 0.000663404 17.1549
0.0005 0.000820451 0.000663404 17.3085
0.0005 0.000837816 0.000663404 17.3708
0.0005 0.000853602 0.000663404 17.3365
0.0005 0.000867954 0.000663404 17.1985
0.0005 0.000881001 0.000663404 16.9474
0.0005 0.000892861 0.000663404 16.5723
0.0005 0.000903644 0.000663404 16.0605
0.0005 0.000913446 0.000663404 15.3992
0.0005 0.000922357 0.000663404 14.5764
0.0005 0.000930458 0.000663404 13.5842
0.0005 0.000937823 0.000663404 12.4218
0.0005 0.000944518 0.000663404 11.1001
0.0005 0.000950604 0.000663404 9.64448
0.0005 0.000956137 0.000663404 8.08705
0.0005 0.000961167 0.000663404 6.49572
0.0005 0.00096574 0.000663404 4.96819
0.0005 0.000969897 0.000663404 3.60706
0.0005 0.000973676 0.000663404 2.48716
0.0005 0.000977112 0.000663404 1.63374
0.0005 0.000980235 0.000663404 1.02567
0.0005 0.000983075 0.000663404 0.616075
0.0005 0.000985656 0.000663404 0.35308
0.0005 0.000988002 0.000663404 0.191612
0.0005 0.000990136 0.000663404 0.097108
0.0005 0.000992075 0.000663404 0.0449112
0.0005 0.000993838 0.000663404 0.0182362
0.0005 0.000995441 0.000663404 0.0060679
0.0005 0.000996898 0.000663404 0.00144315
0.0005 0.000998222 0.000663404 0.000179814
0.0005 0.000999427 0.000663404 5.39333e-06
0.0005 4.59758e-05 0.000745049 6.83383
0.0005 0.000133748 0.000745049 7.18303
0.0005 0.000213541 0.000745049 7.78101
0.0005 0.000286079 0.000745049 8.54319
0.0005 0.000352024 0.000745049 9.40111
0.0005 0.000411973 0.000745049 10.3018
0.0005 0.000466473 0.000745049 11.2062
0.0005 0.000516018 0.000745049 12.0866
0.0005 0.000561059 0.000745049 12.9245
0.0005 0.000602005 0.000745049 13.7085
0.0005 0.000639229 0.000745049 14.4319
0.0005 0.000673069 0.000745049 15.0878
0.0005 0.000703833 0.000745049 15.667
0.0005 0.000731799 0.000745049 16.1638
0.0005 0.000757224 0.000745049 16.5762
0.0005 0.000780337 0.000745049 16.9035
0.0005 0.000801349 0.000745049 17.1448
0.0005 0.000820451 0.000745049 17.2982
0.0005 0.000837816 0.000745049 17.3605
0.0005 0.000853602 0.000745049 17.3263
0.0005 0.000867954 0.000745049 17.1882
0.0005 0.000881001 0.000745049 16.9372
0.0005 0.000892861 0.000745049 16.5621
0.0005 0.000903644 0.000745049 16.0504
0.0005 0.000913446 0.000745049 15.3892
0.0005 0.000922357 0.000745049 14.5666
0.0005 0.000930458 0.000745049 13.5746
0.0005 0.000937823 0.000745049 12.4125
0.0005 0.000944518 0.000745049 11.0914
0.0005 0.000950604 0.000745049 9.63634
0.0005 0.000956137 0.000745049 8.07967
0.0005 0.000961167 0.000745049 6.4893
0.0005 0.00096574 0.000745049 4.96289
0.0005 0.000969897 0.000745049 3.60296
0.0005 0.000973676 0.000745049 2.48419
0.0005 0.000977112 0.000745049 1.63171
0.0005 0.000980235 0.000745049 1.02437
0.0005 0.000983075 0.000745049 0.615286
0.0005 0.000985656 0.000745049 0.352625
0.0005 0.000988002 0.000745049 0.191364
0.0005 0.000990136 0.000745049 0.0969822
0.0005 0.000992075 0.000745049 0.044853
0.0005 0.000993838 0.000745049 0.0182125
0.0005 0.000995441 0.000745049 0.00606003
0.0005 0.000996898 0.000745049 0.00144127
0.0005 0.000998222 0.000745049 0.000179581
0.0005 0.000999427 0.000745049 5.38634e-06
0.0005 4.59758e-05 0.000825179 6.82868
0.0005 0.000133748 0.000825179 7.17759
0.0005 0.000213541 0.000825179 7.7751
0.0005 0.000286079 0.000825179 8.53671
0.0005 0.000352024 0.000825179 9.394
0.0005 0.000411973 0.000825179 10.2941
0.0005 0.000466473 0.000825179 11.1979
0.0005 0.000516018 0.000825179 12.0777
0.0005 0.000561059 0.000825179 12.9152
0.0005 0.000602005 0.000825179 13.6987
0.0005 0.000639229 0.000825179 14.4216
0.0005 0.000673069 0.000825179 15.0772
0.0005 0.000703833 0.000825179 15.6562
0.0005 0.000731799 0.000825179 16.1528
0.0005 0.000757224 0.000825179 16.5651
0.0005 0.000780337 0.000825179 16.8922
0.0005 0.000801349 0.000825179 17.1334
0.0005 0.000820451 0.000825179 17.2868
0.0005 0.000837816 0.000825179 17.349
0.0005 0.000853602 0.000825179 17.3147
0.0005 0.000867954 0.000825179 17.1767
0.0005 0.000881001 0.000825179 16.9257
0.0005 0.000892861 0.000825179 16.5506
0.0005 0.000903644 0.000825179 16.039
0.0005 0.000913446 0.000825179 15.3779
0.0005 0.000922357 0.000825179 14.5555
0.0005 0.000930458 0.000825179 13.5638
0.0005 0.000937823 0.000825179 12.4022
0.0005 0.000944518 0.000825179 11.0815
0.0005 0.000950604 0.000825179 9.62721
0.0005 0.000956137 0.000825179 8.07141
0.0005 0.000961167 0.000825179 6.48211
0.0005 0.00096574 0.000825179 4.95696
0.0005 0.000969897 0.000825179 3.59836
0.0005 0.000973676 0.000825179 2.48085
0.0005 0.000977112 0.000825179 1.62945
0.0005 0.000980235 0.000825179 1.02291
0.0005 0.000983075 0.000825179 0.614402
0.0005 0.000985656 0.000825179 0.352115
0.0005 0.000988002 0.000825179 0.191086
0.0005 0.000990136 0.000825179 0.0968413
0.0005 0.000992075 0.000825179 0.0447877
0.0005 0.000993838 0.000825179 0.018186
0.0005 0.000995441 0.000825179 0.00605122
0.0005 0.000996898 0.000825179 0.00143918
0.0005 0.000998222 0.000825179 0.00017932
0.0005 0.000999427 0.000825179 5.3785e-06
0.0005 4.59758e-05 0.000903821 6.82304
0.0005 0.000133748 0.000903821 7.17164
0.0005 0.000213541 0.000903821 7.76862
0.0005 0.000286079 0.000903821 8.52957
0.0005 0.000352024 0.000903821 9.38616
0.0005 0.000411973 0.000903821 10.2856
0.0005 0.000466473 0.000903821 11.1887
0.0005 0.000516018 0.000903821 12.0679
0.0005 0.000561059 0.000903821 12.9048
0.0005 0.000602005 0.000903821 13.6878
0.0005 0.000639229 0.000903821 14.4103
0.0005 0.000673069 0.000903821 15.0656
0.0005 0.000703833 0.000903821 15.6442
0.0005 0.000731799 0.000903821 16.1406
0.0005 0.000757224 0.000903821 16.5527
0.0005 0.000780337 0.000903821 16.8796
0.0005 0.000801349 0.000903821 17.1207
0.0005 0.000820451 0.000903821 17.2741
0.0005 0.000837816 0.000903821 17.3362
0.0005 0.000853602 0.000903821 17.3019
0.0005 0.000867954 0.000903821 17.1639
0.0005 0.000881001 0.000903821 16.9129
0.0005 0.000892861 0.000903821 16.5379
0.0005 0.000903644 0.000903821 16.0264
0.0005 0.000913446 0.000903821 15.3655
0.0005 0.000922357 0.000903821 14.5433
0.0005 0.000930458 0.000903821 13.5519
0.0005 0.000937823 0.000903821 12.3907
0.0005 0.000944518 0.000903821 11.0707
0.0005 0.000950604 0.000903821 9.6171
0.0005 0.000956137 0.000903821 8.06225
0.0005 0.000961167 0.000903821 6.47414
0.0005 0.00096574 0.000903821 4.95039
0.0005 0.000969897 0.000903821 3.59327
0.0005 0.000973676 0.000903821 2.47716
0.0005 0.000977112 0.000903821 1.62694
0.0005 0.000980235 0.000903821 1.0213
0.0005 0.000983075 0.000903821 0.613423
0.0005 0.000985656 0.000903821 0.35155
0.0005 0.000988002 0.000903821 0.190779
0.0005 0.000990136 0.000903821 0.0966852
0.0005 0.000992075 0.000903821 0.0447155
0.0005 0.000993838 0.000903821 0.0181567
0.0005 0.000995441 0.000903821 0.00604145
0.0005 0.000996898 0.000903821 0.00143686
0.0005 0.000998222 0.000903821 0.000179031
0.0005 0.000999427 0.000903821 5.36983e-06
0.0005 4.59758e-05 0.000981003 6.81695
0.0005 0.000133748 0.000981003 7.16519
0.0005 0.000213541 0.000981003 7.76157
0.0005 0.000286079 0.000981003 8.52179
0.0005 0.000352024 0.000981003 9.37759
0.0005 0.000411973 0.000981003 10.2762
0.0005 0.000466473 0.000981003 11.1786
0.0005 0.000516018 0.000981003 12.0571
0.0005 0.000561059 0.000981003 12.8934
0.0005 0.000602005 0.000981003 13.6759
0.0005 0.000639229 0.000981003 14.3979
0.0005 0.000673069 0.000981003 15.0527
0.0005 0.000703833 0.000981003 15.631
0.0005 0.000731799 0.000981003 16.1272
0.0005 0.000757224 0.000981003 16.539
0.0005 0.000780337 0.000981003 16.8658
0.0005 0.000801349 0.000981003 17.1068
0.0005 0.000820451 0.000981003 17.2601
0.0005 0.000837816 0.000981003 17.3222
0.0005 0.000853602 0.000981003 17.2879
0.0005 0.000867954 0.000981003 17.1499
0.0005 0.000881001 0.000981003 16.8989
0.0005 0.000892861 0.000981003 16.524
0.0005 0.000903644 0.000981003 16.0126
0.0005 0.000913446 0.000981003 15.3518
0.0005 0.000922357 0.000981003 14.5299
0.0005 0.000930458 0.000981003 13.5388
0.0005 0.000937823 0.000981003 12.3781
0.0005 0.000944518 0.000981003 11.0587
0.0005 0.000950604 0.000981003 9.60598
0.0005 0.000956137 0.000981003 8.05218
0.0005 0.000961167 0.000981003 6.46539
0.0005 0.00096574 0.000981003 4.94316
0.0005 0.000969897 0.000981003 3.58767
0.0005 0.000973676 0.000981003 2.47311
0.0005 0.000977112 0.000981003 1.62418
0.0005 0.000980235 0.000981003 1.01954
0.0005 0.000983075 0.000981003 0.612348
0.0005 0.000985656 0.000981003 0.35093
0.0005 0.000988002 0.000981003 0.190441
0.0005 0.000990136 0.000981003 0.0965138
0.0005 0.000992075 0.000981003 0.0446362
0.0005 0.000993838 0.000981003 0.0181245
0.0005 0.000995441 0.000981003 0.00603074
0.0005 0.000996898 0.000981003 0.00143431
0.0005 0.000998222 0.000981003 0.000178713
0.0005 0.000999427 0.000981003 5.3603e-06
0.0005 4.59758e-05 0.00105675 6.81041
0.0005 0.000133748 0.00105675 7.15825
0.0005 0.000213541 0.00105675 7.75397
0.0005 0.000286079 0.00105675 8.51337
0.0005 0.000352024 0.00105675 9.36829
0.0005 0.000411973 0.00105675 10.266
0.0005 0.000466473 0.00105675 11.1676
0.0005 0.000516018 0.00105675 12.0454
0.0005 0.000561059 0.00105675 12.8809
0.0005 0.000602005 0.00105675 13.6628
0.0005 0.000639229 0.00105675 14.3843
0.0005 0.000673069 0.00105675 15.0387
0.0005 0.000703833 0.00105675 15.6167
0.0005 0.000731799 0.00105675 16.1126
0.0005 0.000757224 0.00105675 16.5242
0.0005 0.000780337 0.00105675 16.8508
0.0005 0.000801349 0.00105675 17.0917
0.0005 0.000820451 0.00105675 17.2449
0.0005 0.000837816 0.00105675 17.3069
0.0005 0.000853602 0.00105675 17.2726
0.0005 0.000867954 0.00105675 17.1346
0.0005 0.000881001 0.00105675 16.8837
0.0005 0.000892861 0.00105675 16.5088
0.0005 0.000903644 0.00105675 15.9975
0.0005 0.000913446 0.00105675 15.3369
0.0005 0.000922357 0.00105675 14.5152
0.0005 0.000930458 0.00105675 13.5245
0.0005 0.000937823 0.00105675 12.3643
0.0005 0.000944518 0.00105675 11.0456
0.0005 0.000950604 0.00105675 9.59386
0.0005 0.000956137 0.00105675 8.04121
0.0005 0.000961167 0.00105675 6.45584
0.0005 0.00096574 0.00105675 4.93529
0.0005 0.000969897 0.00105675 3.58157
0.0005 0.000973676 0.00105675 2.46869
0.0005 0.000977112 0.00105675 1.62118
0.0005 0.000980235 0.00105675 1.01761
0.0005 0.000983075 0.00105675 0.611176
0.0005 0.000985656 0.00105675 0.350254
0.0005 0.000988002 0.00105675 0.190073
0.0005 0.000990136 0.00105675 0.096327
0.0005 0.000992075 0.00105675 0.0445498
0.0005 0.000993838 0.00105675 0.0180894
0.0005 0.000995441 0.00105675 0.00601906
0.0005 0.000996898 0.00105675 0.00143153
0.0005 0.000998222 0.00105675 0.000178367
0.0005 0.000999427 0.00105675 5.34992e-06
0.0005 4.59758e-05 0.0011311 6.80346
0.0005 0.000133748 0.0011311 7.15085
0.0005 0.000213541 0.0011311 7.74583
0.0005 0.000286079 0.0011311 8.50432
0.0005 0.000352024 0.0011311 9.35828
0.0005 0.000411973 0.0011311 10.2551
0.0005 0.000466473 0.0011311 11.1557
0.0005 0.000516018 0.0011311 12.0327
0.0005 0.000561059 0.0011311 12.8675
0.0005 0.000602005 0.0011311 13.6487
0.0005 0.000639229 0.0011311 14.3696
0.0005 0.000673069 0.0011311 15.0235
0.0005 0.000703833 0.0011311 15.6011
0.0005 0.000731799 0.0011311 16.0967
0.0005 0.000757224 0.0011311 16.5081
0.0005 0.000780337 0.0011311 16.8345
0.0005 0.000801349 0.0011311 17.0752
0.0005 0.000820451 0.0011311 17.2283
0.0005 0.000837816 0.0011311 17.2903
0.0005 0.000853602 0.0011311 17.256
0.0005 0.000867954 0.0011311 17.118
0.0005 0.000881001 0.0011311 16.8671
0.0005 0.000892861 0.0011311 16.4923
0.0005 0.000903644 0.0011311 15.9811
0.0005 0.000913446 0.0011311 15.3207
0.0005 0.000922357 0.0011311 14.4993
0.0005 0.000930458 0.0011311 13.509
0.0005 0.000937823 0.0011311 12.3494
0.0005 0.000944518 0.0011311 11.0315
0.0005 0.000950604 0.0011311 9.58071
0.0005 0.000956137 0.0011311 8.02931
0.0005 0.000961167 0.0011311 6.4455
0.0005 0.00096574 0.0011311 4.92676
0.0005 0.000969897 0.0011311 3.57497
0.0005 0.000973676 0.0011311 2.4639
0.0005 0.000977112 0.0011311 1.61792
0.0005 0.000980235 0.0011311 1.01552
0.0005 0.000983075 0.0011311 0.609907
0.0005 0.000985656 0.0011311 0.349522
0.0005 0.000988002 0.0011311 0.189675
0.0005 0.000990136 0.0011311 0.0961247
0.0005 0.000992075 0.0011311 0.0444561
0.0005 0.000993838 0.0011311 0.0180513
0.0005 0.000995441 0.0011311 0.0060064
0.0005 0.000996898 0.0011311 0.00142852
0.0005 0.000998222 0.0011311 0.000177992
0.0005 0.000999427 0.0011311 5.33867e-06
0.0005 4.59758e-05 0.00120406 6.79611
0.0005 0.000133748 0.00120406 7.14301
0.0005 0.000213541 0.00120406 7.73717
0.0005 0.000286079 0.00120406 8.49467
0.0005 0.000352024 0.00120406 9.34756
0.0005 0.000411973 0.00120406 10.2433
0.0005 0.000466473 0.00120406 11.1429
0.0005 0.000516018 0.00120406 12.019
0.0005 0.000561059 0.00120406 12.8529
0.0005 0.000602005 0.00120406 13.6335
0.0005 0.000639229 0.00120406 14.3538
0.0005 0.000673069 0.00120406 15.0071
0.0005 0.000703833 0.00120406 15.5843
0.0005 0.000731799 0.00120406 16.0795
0.0005 0.000757224 0.00120406 16.4907
0.0005 0.000780337 0.00120406 16.8169
0.0005 0.000801349 0.00120406 17.0575
0.0005 0.000820451 0.00120406 17.2105
0.0005 0.000837816 0.00120406 17.2724
0.0005 0.000853602 0.00120406 17.238
0.0005 0.000867954 0.00120406 17.1
0.0005 0.000881001 0.00120406 16.8492
0.0005 0.000892861 0.00120406 16.4745
0.0005 0.000903644 0.00120406 15.9635
0.0005 0.000913446 0.00120406 15.3033
0.0005 0.000922357 0.00120406 14.4822
0.0005 0.000930458 0.00120406 13.4923
0.0005 0.000937823 0.00120406 12.3333
0.0005 0.000944518 0.00120406 11.0162
0.0005 0.000950604 0.00120406 9.56653
0.0005 0.000956137 0.00120406 8.01648
0.0005 0.000961167 0.00120406 6.43434
0.0005 0.00096574 0.00120406 4.91756
0.0005 0.000969897 0.00120406 3.56784
0.0005 0.000973676 0.00120406 2.45874
0.0005 0.000977112 0.00120406 1.61441
0.0005 0.000980235 0.00120406 1.01327
0.0005 0.000983075 0.00120406 0.60854
0.0005 0.000985656 0.00120406 0.348733
0.0005 0.000988002 0.00120406 0.189245
0.0005 0.000990136 0.00120406 0.0959068
0.0005 0.000992075 0.00120406 0.0443553
0.0005 0.000993838 0.00120406 0.0180104
0.0005 0.000995441 0.00120406 0.00599277
0.0005 0.000996898 0.00120406 0.00142528
0.0005 0.000998222 0.00120406 0.000177588
0.0005 0.000999427 0.00120406 5.32656e-06
0.0005 4.59758e-05 0.00127567 6.78839
0.0005 0.000133748 0.00127567 7.13475
0.0005 0.000213541 0.00127567 7.728
0.0005 0.000286079 0.00127567 8.48441
0.0005 0.000352024 0.00127567 9.33613
0.0005 0.000411973 0.00127567 10.2307
0.0005 0.000466473 0.00127567 11.1292
0.0005 0.000516018 0.00127567 12.0043
0.0005 0.000561059 0.00127567 12.8374
0.0005 0.000602005 0.00127567 13.6171
0.0005 0.000639229 0.00127567 14.3367
0.0005 0.000673069 0.00127567 14.9895
0.0005 0.000703833 0.00127567 15.5662
0.0005 0.000731799 0.00127567 16.0611
0.0005 0.000757224 0.00127567 16.472
0.0005 0.000780337 0.00127567 16.798
0.0005 0.000801349 0.00127567 17.0385
0.0005 0.000820451 0.00127567 17.1913
0.0005 0.000837816 0.00127567 17.2532
0.0005 0.000853602 0.00127567 17.2188
0.0005 0.000867954 0.00127567 17.0808
0.0005 0.000881001 0.00127567 16.83
0.0005 0.000892861 0.00127567 16.4554
0.0005 0.000903644 0.00127567 15.9445
0.0005 0.000913446 0.00127567 15.2846
0.0005 0.000922357 0.00127567 14.4638
0.0005 0.000930458 0.00127567 13.4744
0.0005 0.000937823 0.00127567 12.316
0.0005 0.000944518 0.00127567 10.9998
0.0005 0.000950604 0.00127567 9.55131
0.0005 0.000956137 0.00127567 8.0027
0.0005 0.000961167 0.00127567 6.42236
0.0005 0.00096574 0.00127567 4.90769
0.0005 0.000969897 0.00127567 3.5602
0.0005 0.000973676 0.00127567 2.4532
0.0005 0.000977112 0.00127567 1.61065
0.0005 0.000980235 0.00127567 1.01086
0.0005 0.000983075 0.00127567 0.607073
0.0005 0.000985656 0.00127567 0.347887
0.0005 0.000988002 0.00127567 0.188785
0.0005 0.000990136 0.00127567 0.0956729
0.0005 0.000992075 0.00127567 0.0442471
0.0005 0.000993838 0.00127567 0.0179664
0.0005 0.000995441 0.00127567 0.00597815
0.0005 0.000996898 0.00127567 0.0014218
0.0005 0.000998222 0.00127567 0.000177155
0.0005 0.000999427 0.00127567 5.31356e-06
0.0005 4.59758e-05 0.00134595 6.78033
0.0005 0.000133748 0.00134595 7.1261
0.0005 0.000213541 0.00134595 7.71836
0.0005 0.000286079 0.00134595 8.47356
0.0005 0.000352024 0.00134595 9.324
0.0005 0.000411973 0.00134595 10.2173
0.0005 0.000466473 0.00134595 11.1147
0.0005 0.000516018 0.00134595 11.9886
0.0005 0.000561059 0.00134595 12.8208
0.0005 0.000602005 0.00134595 13.5996
0.0005 0.000639229 0.00134595 14.3185
0.0005 0.000673069 0.00134595 14.9707
0.0005 0.000703833 0.00134595 15.5469
0.0005 0.000731799 0.00134595 16.0414
0.0005 0.000757224 0.00134595 16.452