# omega  FACE_DATA 11045
#  x  y  z  omega
0.0005 4.59758e-05 4.69794e-05 20949
0.0005 0.000133748 4.69794e-05 22423.7
0.0005 0.000213541 4.69794e-05 25054.5
0.0005 0.000286079 4.69794e-05 28625
0.0005 0.000352024 4.69794e-05 32991.2
0.0005 0.000411973 4.69794e-05 38070.6
0.0005 0.000466473 4.69794e-05 43830.5
0.0005 0.000516018 4.69794e-05 50278.2
0.0005 0.000561059 4.69794e-05 57460
0.0005 0.000602005 4.69794e-05 65467.5
0.0005 0.000639229 4.69794e-05 74436.2
0.0005 0.000673069 4.69794e-05 84487
0.0005 0.000703833 4.69794e-05 95718.9
0.0005 0.000731799 4.69794e-05 108276
0.0005 0.000757224 4.69794e-05 122363
0.0005 0.000780337 4.69794e-05 138250
0.0005 0.000801349 4.69794e-05 156264
0.0005 0.000820451 4.69794e-05 176795
0.0005 0.000837816 4.69794e-05 200301
0.0005 0.000853602 4.69794e-05 227324
0.0005 0.000867954 4.69794e-05 258494
0.0005 0.000881001 4.69794e-05 294541
0.0005 0.000892861 4.69794e-05 336317
0.0005 0.000903644 4.69794e-05 384810
0.0005 0.000913446 4.69794e-05 441163
0.0005 0.000922357 4.69794e-05 506713
0.0005 0.000930458 4.69794e-05 583065
0.0005 0.000937823 4.69794e-05 672239
0.0005 0.000944518 4.69794e-05 776987
0.0005 0.000950604 4.69794e-05 901351
0.0005 0.000956137 4.69794e-05 1.05162e+06
0.0005 0.000961167 4.69794e-05 1.23714e+06
0.0005 0.00096574 4.69794e-05 1.47219e+06
0.0005 0.000969897 4.69794e-05 1.78012e+06
0.0005 0.000973676 4.69794e-05 2.19855e+06
0.0005 0.000977112 4.69794e-05 2.78648e+06
0.0005 0.000980235 4.69794e-05 3.6363e+06
0.0005 0.000983075 4.69794e-05 4.89665e+06
0.0005 0.000985656 4.69794e-05 6.81911e+06
0.0005 0.000988002 4.69794e-05 9.85731e+06
0.0005 0.000990136 4.69794e-05 1.4893e+07
0.0005 0.000992075 4.69794e-05 2.38048e+07
0.0005 0.000993838 4.69794e-05 4.11029e+07
0.0005 0.000995441 4.69794e-05 7.95361e+07
0.0005 0.000996898 4.69794e-05 1.84802e+08
0.0005 0.000998222 4.69794e-05 5.94344e+08
0.0005 0.000999427 4.69794e-05 3.64963e+09
0.0005 4.59758e-05 0.000140066 20948.2
0.0005 0.000133748 0.000140066 22422.8
0.0005 0.000213541 0.000140066 25053.5
0.0005 0.000286079 0.000140066 28623.9
0.0005 0.000352024 0.000140066 32990
0.0005 0.000411973 0.000140066 38069.2
0.0005 0.000466473 0.000140066 43829
0.0005 0.000516018 0.000140066 50276.5
0.0005 0.000561059 0.000140066 57458.2
0.0005 0.000602005 0.000140066 65465.5
0.0005 0.000639229 0.000140066 74434.1
0.0005 0.000673069 0.000140066 84484.7
0.0005 0.000703833 0.000140066 95716.5
0.0005 0.000731799 0.000140066 108273
0.0005 0.000757224 0.000140066 122360
0.0005 0.000780337 0.000140066 138247
0.0005 0.000801349 0.000140066 156261
0.0005 0.000820451 0.000140066 176792
0.0005 0.000837816 0.000140066 200298
0.0005 0.000853602 0.000140066 227321
0.0005 0.000867954 0.000140066 258490
0.0005 0.000881001 0.000140066 294537
0.0005 0.000892861 0.000140066 336312
0.0005 0.000903644 0.000140066 384804
0.0005 0.000913446 0.000140066 441156
0.0005 0.000922357 0.000140066 506706
0.0005 0.000930458 0.000140066 583056
0.0005 0.000937823 0.000140066 672228
0.0005 0.000944518 0.000140066 776973
0.0005 0.000950604 0.000140066 901335
0.0005 0.000956137 0.000140066 1.0516e+06
0.0005 0.000961167 0.000140066 1.23712e+06
0.0005 0.00096574 0.000140066 1.47217e+06
0.0005 0.000969897 0.000140066 1.7801e+06
0.0005 0.000973676 0.000140066 2.19852e+06
0.0005 0.000977112 0.000140066 2.78646e+06
0.0005 0.000980235 0.000140066 3.63628e+06
0.0005 0.000983075 0.000140066 4.89664e+06
0.0005 0.000985656 0.000140066 6.8191e+06
0.0005 0.000988002 0.000140066 9.8573e+06
0.0005 0.000990136 0.000140066 1.4893e+07
0.0005 0.000992075 0.000140066 2.38048e+07
0.0005 0.000993838 0.000140066 4.11029e+07
0.0005 0.000995441 0.000140066 7.95361e+07
0.0005 0.000996898 0.000140066 1.84802e+08
0.0005 0.000998222 0.000140066 5.94344e+08
0.0005 0.000999427 0.000140066 3.64963e+09
0.0005 4.59758e-05 0.000231425 20946.6
0.0005 0.000133748 0.000231425 22421.1
0.0005 0.000213541 0.000231425 25051.6
0.0005 0.000286079 0.000231425 28621.7
0.0005 0.000352024 0.000231425 32987.6
0.0005 0.000411973 0.000231425 38066.6
0.0005 0.000466473 0.000231425 43826
0.0005 0.000516018 0.000231425 50273.2
0.0005 0.000561059 0.000231425 57454.6
0.0005 0.000602005 0.000231425 65461.6
0.0005 0.000639229 0.000231425 74429.9
0.0005 0.000673069 0.000231425 84480.1
0.0005 0.000703833 0.000231425 95711.6
0.0005 0.000731799 0.000231425 108268
0.0005 0.000757224 0.000231425 122355
0.0005 0.000780337 0.000231425 138241
0.0005 0.000801349 0.000231425 156254
0.0005 0.000820451 0.000231425 176784
0.0005 0.000837816 0.000231425 200290
0.0005 0.000853602 0.000231425 227312
0.0005 0.000867954 0.000231425 258481
0.0005 0.000881001 0.000231425 294526
0.0005 0.000892861 0.000231425 336301
0.0005 0.000903644 0.000231425 384791
0.0005 0.000913446 0.000231425 441141
0.0005 0.000922357 0.000231425 506687
0.0005 0.000930458 0.000231425 583034
0.0005 0.000937823 0.000231425 672202
0.0005 0.000944518 0.000231425 776943
0.0005 0.000950604 0.000231425 901300
0.0005 0.000956137 0.000231425 1.05156e+06
0.0005 0.000961167 0.000231425 1.23707e+06
0.0005 0.00096574 0.000231425 1.47211e+06
0.0005 0.000969897 0.000231425 1.78004e+06
0.0005 0.000973676 0.000231425 2.19847e+06
0.0005 0.000977112 0.000231425 2.78641e+06
0.0005 0.000980235 0.000231425 3.63623e+06
0.0005 0.000983075 0.000231425 4.8966e+06
0.0005 0.000985656 0.000231425 6.81907e+06
0.0005 0.000988002 0.000231425 9.85728e+06
0.0005 0.000990136 0.000231425 1.4893e+07
0.0005 0.000992075 0.000231425 2.38048e+07
0.0005 0.000993838 0.000231425 4.11029e+07
0.0005 0.000995441 0.000231425 7.95361e+07
0.0005 0.000996898 0.000231425 1.84802e+08
0.0005 0.000998222 0.000231425 5.94344e+08
0.0005 0.000999427 0.000231425 3.64963e+09
0.0005 4.59758e-05 0.000321089 20944.2
0.0005 0.000133748 0.000321089 22418.5
0.0005 0.000213541 0.000321089 25048.8
0.0005 0.000286079 0.000321089 28618.6
0.0005 0.000352024 0.000321089 32984.1
0.0005 0.000411973 0.000321089 38062.6
0.0005 0.000466473 0.000321089 43821.6
0.0005 0.000516018 0.000321089 50268.4
0.0005 0.000561059 0.000321089 57449.3
0.0005 0.000602005 0.000321089 65455.8
0.0005 0.000639229 0.000321089 74423.5
0.0005 0.000673069 0.000321089 84473.2
0.0005 0.000703833 0.000321089 95704.1
0.0005 0.000731799 0.000321089 108260
0.0005 0.000757224 0.000321089 122346
0.0005 0.000780337 0.000321089 138231
0.0005 0.000801349 0.000321089 156244
0.0005 0.000820451 0.000321089 176773
0.0005 0.000837816 0.000321089 200278
0.0005 0.000853602 0.000321089 227299
0.0005 0.000867954 0.000321089 258466
0.0005 0.000881001 0.000321089 294510
0.0005 0.000892861 0.000321089 336282
0.0005 0.000903644 0.000321089 384770
0.0005 0.000913446 0.000321089 441116
0.0005 0.000922357 0.000321089 506659
0.0005 0.000930458 0.000321089 583001
0.0005 0.000937823 0.000321089 672163
0.0005 0.000944518 0.000321089 776896
0.0005 0.000950604 0.000321089 901245
0.0005 0.000956137 0.000321089 1.0515e+06
0.0005 0.000961167 0.000321089 1.237e+06
0.0005 0.00096574 0.000321089 1.47204e+06
0.0005 0.000969897 0.000321089 1.77996e+06
0.0005 0.000973676 0.000321089 2.19839e+06
0.0005 0.000977112 0.000321089 2.78633e+06
0.0005 0.000980235 0.000321089 3.63617e+06
0.0005 0.000983075 0.000321089 4.89655e+06
0.0005 0.000985656 0.000321089 6.81903e+06
0.0005 0.000988002 0.000321089 9.85725e+06
0.0005 0.000990136 0.000321089 1.48929e+07
0.0005 0.000992075 0.000321089 2.38048e+07
0.0005 0.000993838 0.000321089 4.11029e+07
0.0005 0.000995441 0.000321089 7.95361e+07
0.0005 0.000996898 0.000321089 1.84802e+08
0.0005 0.000998222 0.000321089 5.94344e+08
0.0005 0.000999427 0.000321089 3.64963e+09
0.0005 4.59758e-05 0.000409087 20941.1
0.0005 0.000133748 0.000409087 22415.2
0.0005 0.000213541 0.000409087 25045.1
0.0005 0.000286079 0.000409087 28614.5
0.0005 0.000352024 0.000409087 32979.5
0.0005 0.000411973 0.000409087 38057.4
0.0005 0.000466473 0.000409087 43815.8
0.0005 0.000516018 0.000409087 50262
0.0005 0.000561059 0.000409087 57442.2
0.0005 0.000602005 0.000409087 65448.1
0.0005 0.000639229 0.000409087 74415.1
0.0005 0.000673069 0.000409087 84464
0.0005 0.000703833 0.000409087 95694.2
0.0005 0.000731799 0.000409087 108249
0.0005 0.000757224 0.000409087 122334
0.0005 0.000780337 0.000409087 138219
0.0005 0.000801349 0.000409087 156230
0.0005 0.000820451 0.000409087 176759
0.0005 0.000837816 0.000409087 200262
0.0005 0.000853602 0.000409087 227281
0.0005 0.000867954 0.000409087 258447
0.0005 0.000881001 0.000409087 294488
0.0005 0.000892861 0.000409087 336257
0.0005 0.000903644 0.000409087 384742
0.0005 0.000913446 0.000409087 441084
0.0005 0.000922357 0.000409087 506621
0.0005 0.000930458 0.000409087 582956
0.0005 0.000937823 0.000409087 672110
0.0005 0.000944518 0.000409087 776834
0.0005 0.000950604 0.000409087 901172
0.0005 0.000956137 0.000409087 1.05142e+06
0.0005 0.000961167 0.000409087 1.23691e+06
0.0005 0.00096574 0.000409087 1.47193e+06
0.0005 0.000969897 0.000409087 1.77985e+06
0.0005 0.000973676 0.000409087 2.19828e+06
0.0005 0.000977112 0.000409087 2.78623e+06
0.0005 0.000980235 0.000409087 3.63608e+06
0.0005 0.000983075 0.000409087 4.89647e+06
0.0005 0.000985656 0.000409087 6.81897e+06
0.0005 0.000988002 0.000409087 9.85721e+06
0.0005 0.000990136 0.000409087 1.48929e+07
0.0005 0.000992075 0.000409087 2.38048e+07
0.0005 0.000993838 0.000409087 4.11029e+07
0.0005 0.000995441 0.000409087 7.95361e+07
0.0005 0.000996898 0.000409087 1.84802e+08
0.0005 0.000998222 0.000409087 5.94344e+08
0.0005 0.000999427 0.000409087 3.64963e+09
0.0005 4.59758e-05 0.000495453 20937.3
0.0005 0.000133748 0.000495453 22411.2
0.0005 0.000213541 0.000495453 25040.7
0.0005 0.000286079 0.000495453 28609.5
0.0005 0.000352024 0.000495453 32973.7
0.0005 0.000411973 0.000495453 38051
0.0005 0.000466473 0.000495453 43808.7
0.0005 0.000516018 0.000495453 50254
0.0005 0.000561059 0.000495453 57433.5
0.0005 0.000602005 0.000495453 65438.4
0.0005 0.000639229 0.000495453 74404.5
0.0005 0.000673069 0.000495453 84452.5
0.0005 0.000703833 0.000495453 95681.7
0.0005 0.000731799 0.000495453 108236
0.0005 0.000757224 0.000495453 122320
0.0005 0.000780337 0.000495453 138203
0.0005 0.000801349 0.000495453 156213
0.0005 0.000820451 0.000495453 176740
0.0005 0.000837816 0.000495453 200241
0.0005 0.000853602 0.000495453 227259
0.0005 0.000867954 0.000495453 258422
0.0005 0.000881001 0.000495453 294461
0.0005 0.000892861 0.000495453 336227
0.0005 0.000903644 0.000495453 384707
0.0005 0.000913446 0.000495453 441043
0.0005 0.000922357 0.000495453 506574
0.0005 0.000930458 0.000495453 582901
0.0005 0.000937823 0.000495453 672045
0.0005 0.000944518 0.000495453 776757
0.0005 0.000950604 0.000495453 901082
0.0005 0.000956137 0.000495453 1.05131e+06
0.0005 0.000961167 0.000495453 1.23679e+06
0.0005 0.00096574 0.000495453 1.47181e+06
0.0005 0.000969897 0.000495453 1.77972e+06
0.0005 0.000973676 0.000495453 2.19815e+06
0.0005 0.000977112 0.000495453 2.78611e+06
0.0005 0.000980235 0.000495453 3.63597e+06
0.0005 0.000983075 0.000495453 4.89638e+06
0.0005 0.000985656 0.000495453 6.8189e+06
0.0005 0.000988002 0.000495453 9.85716e+06
0.0005 0.000990136 0.000495453 1.48929e+07
0.0005 0.000992075 0.000495453 2.38048e+07
0.0005 0.000993838 0.000495453 4.11029e+07
0.0005 0.000995441 0.000495453 7.95361e+07
0.0005 0.000996898 0.000495453 1.84802e+08
0.0005 0.000998222 0.000495453 5.94344e+08
0.0005 0.000999427 0.000495453 3.64963e+09
0.0005 4.59758e-05 0.000580215 20932.8
0.0005 0.000133748 0.000580215 22406.4
0.0005 0.000213541 0.000580215 25035.3
0.0005 0.000286079 0.000580215 28603.5
0.0005 0.000352024 0.000580215 32966.9
0.0005 0.000411973 0.000580215 38043.3
0.0005 0.000466473 0.000580215 43800.1
0.0005 0.000516018 0.000580215 50244.5
0.0005 0.000561059 0.000580215 57423
0.0005 0.000602005 0.000580215 65426.9
0.0005 0.000639229 0.000580215 74391.9
0.0005 0.000673069 0.000580215 84438.8
0.0005 0.000703833 0.000580215 95666.8
0.0005 0.000731799 0.000580215 108219
0.0005 0.000757224 0.000580215 122303
0.0005 0.000780337 0.000580215 138184
0.0005 0.000801349 0.000580215 156193
0.0005 0.000820451 0.000580215 176718
0.0005 0.000837816 0.000580215 200217
0.0005 0.000853602 0.000580215 227232
0.0005 0.000867954 0.000580215 258393
0.0005 0.000881001 0.000580215 294428
0.0005 0.000892861 0.000580215 336190
0.0005 0.000903644 0.000580215 384665
0.0005 0.000913446 0.000580215 440995
0.0005 0.000922357 0.000580215 506518
0.0005 0.000930458 0.000580215 582835
0.0005 0.000937823 0.000580215 671967
0.0005 0.000944518 0.000580215 776665
0.0005 0.000950604 0.000580215 900974
0.0005 0.000956137 0.000580215 1.05119e+06
0.0005 0.000961167 0.000580215 1.23665e+06
0.0005 0.00096574 0.000580215 1.47165e+06
0.0005 0.000969897 0.000580215 1.77956e+06
0.0005 0.000973676 0.000580215 2.19799e+06
0.0005 0.000977112 0.000580215 2.78596e+06
0.0005 0.000980235 0.000580215 3.63584e+06
0.0005 0.000983075 0.000580215 4.89628e+06
0.0005 0.000985656 0.000580215 6.81882e+06
0.0005 0.000988002 0.000580215 9.85709e+06
0.0005 0.000990136 0.000580215 1.48928e+07
0.0005 0.000992075 0.000580215 2.38047e+07
0.0005 0.000993838 0.000580215 4.11029e+07
0.0005 0.000995441 0.000580215 7.95361e+07
0.0005 0.000996898 0.000580215 1.84802e+08
0.0005 0.000998222 0.000580215 5.94344e+08
0.0005 0.000999427 0.000580215 3.64963e+09
0.0005 4.59758e-05 0.000663404 20927.6
0.0005 0.000133748 0.000663404 22400.8
0.0005 0.000213541 0.000663404 25029.2
0.0005 0.000286079 0.000663404 28596.5
0.0005 0.000352024 0.000663404 32959
0.0005 0.000411973 0.000663404 38034.4
0.0005 0.000466473 0.000663404 43790.1
0.0005 0.000516018 0.000663404 50233.4
0.0005 0.000561059 0.000663404 57410.7
0.0005 0.000602005 0.000663404 65413.4
0.0005 0.000639229 0.000663404 74377.2
0.0005 0.000673069 0.000663404 84422.7
0.0005 0.000703833 0.000663404 95649.4
0.0005 0.000731799 0.000663404 108201
0.0005 0.000757224 0.000663404 122282
0.0005 0.000780337 0.000663404 138162
0.0005 0.000801349 0.000663404 156169
0.0005 0.000820451 0.000663404 176692
0.0005 0.000837816 0.000663404 200189
0.0005 0.000853602 0.000663404 227202
0.0005 0.000867954 0.000663404 258359
0.0005 0.000881001 0.000663404 294390
0.0005 0.000892861 0.000663404 336147
0.0005 0.000903644 0.000663404 384616
0.0005 0.000913446 0.000663404 440939
0.0005 0.000922357 0.000663404 506452
0.0005 0.000930458 0.000663404 582758
0.0005 0.000937823 0.000663404 671876
0.0005 0.000944518 0.000663404 776558
0.0005 0.000950604 0.000663404 900849
0.0005 0.000956137 0.000663404 1.05104e+06
0.0005 0.000961167 0.000663404 1.23649e+06
0.0005 0.00096574 0.000663404 1.47148e+06
0.0005 0.000969897 0.000663404 1.77938e+06
0.0005 0.000973676 0.000663404 2.19781e+06
0.0005 0.000977112 0.000663404 2.78579e+06
0.0005 0.000980235 0.000663404 3.63569e+06
0.0005 0.000983075 0.000663404 4.89615e+06
0.0005 0.000985656 0.000663404 6.81872e+06
0.0005 0.000988002 0.000663404 9.85702e+06
0.0005 0.000990136 0.000663404 1.48928e+07
0.0005 0.000992075 0.000663404 2.38047e+07
0.0005 0.000993838 0.000663404 4.11028e+07
0.0005 0.000995441 0.000663404 7.95361e+07
0.0005 0.000996898 0.000663404 1.84802e+08
0.0005 0.000998222 0.000663404 5.94344e+08
0.0005 0.000999427 0.000663404 3.64963e+09
0.0005 4.59758e-05 0.000745049 20921.8
0.0005 0.000133748 0.000745049 22394.6
0.0005 0.000213541 0.000745049 25022.2
0.0005 0.000286079 0.000745049 28588.6
0.0005 0.000352024 0.000745049 32950
0.0005 0.000411973 0.000745049 38024.3
0.0005 0.000466473 0.000745049 43778.7
0.0005 0.000516018 0.000745049 50220.8
0.0005 0.000561059 0.000745049 57396.8
0.0005 0.000602005 0.000745049 65398.1
0.0005 0.000639229 0.000745049 74360.3
0.0005 0.000673069 0.000745049 84404.4
0.0005 0.000703833 0.000745049 95629.5
0.0005 0.000731799 0.000745049 108179
0.0005 0.000757224 0.000745049 122259
0.0005 0.000780337 0.000745049 138137
0.0005 0.000801349 0.000745049 156142
0.0005 0.000820451 0.000745049 176663
0.0005 0.000837816 0.000745049 200157
0.0005 0.000853602 0.000745049 227166
0.0005 0.000867954 0.000745049 258320
0.0005 0.000881001 0.000745049 294347
0.0005 0.000892861 0.000745049 336098
0.0005 0.000903644 0.000745049 384560
0.0005 0.000913446 0.000745049 440875
0.0005 0.000922357 0.000745049 506378
0.0005 0.000930458 0.000745049 582670
0.0005 0.000937823 0.000745049 671772
0.0005 0.000944518 0.000745049 776436
0.0005 0.000950604 0.000745049 900706
0.0005 0.000956137 0.000745049 1.05088e+06
0.0005 0.000961167 0.000745049 1.23631e+06
0.0005 0.00096574 0.000745049 1.47128e+06
0.0005 0.000969897 0.000745049 1.77916e+06
0.0005 0.000973676 0.000745049 2.1976e+06
0.0005 0.000977112 0.000745049 2.7856e+06
0.0005 0.000980235 0.000745049 3.63552e+06
0.0005 0.000983075 0.000745049 4.89601e+06
0.0005 0.000985656 0.000745049 6.81861e+06
0.0005 0.000988002 0.000745049 9.85694e+06
0.0005 0.000990136 0.000745049 1.48927e+07
0.0005 0.000992075 0.000745049 2.38047e+07
0.0005 0.000993838 0.000745049 4.11028e+07
0.0005 0.000995441 0.000745049 7.95361e+07
0.0005 0.000996898 0.000745049 1.84802e+08
0.0005 0.000998222 0.000745049 5.94344e+08
0.0005 0.000999427 0.000745049 3.64963e+09
0.0005 4.59758e-05 0.000825179 20915.4
0.0005 0.000133748 0.000825179 22387.7
0.0005 0.000213541 0.000825179 25014.4
0.0005 0.000286079 0.000825179 28579.7
0.0005 0.000352024 0.000825179 32940
0.0005 0.000411973 0.000825179 38012.9
0.0005 0.000466473 0.000825179 43766
0.0005 0.000516018 0.000825179 50206.6
0.0005 0.000561059 0.000825179 57381.1
0.0005 0.000602005 0.000825179 65380.8
0.0005 0.000639229 0.000825179 74341.3
0.0005 0.000673069 0.000825179 84383.7
0.0005 0.000703833 0.000825179 95607.1
0.0005 0.000731799 0.000825179 108155
0.0005 0.000757224 0.000825179 122233
0.0005 0.000780337 0.000825179 138109
0.0005 0.000801349 0.000825179 156112
0.0005 0.000820451 0.000825179 176630
0.0005 0.000837816 0.000825179 200121
0.0005 0.000853602 0.000825179 227127
0.0005 0.000867954 0.000825179 258276
0.0005 0.000881001 0.000825179 294298
0.0005 0.000892861 0.000825179 336043
0.0005 0.000903644 0.000825179 384498
0.0005 0.000913446 0.000825179 440803
0.0005 0.000922357 0.000825179 506294
0.0005 0.000930458 0.000825179 582572
0.0005 0.000937823 0.000825179 671657
0.0005 0.000944518 0.000825179 776299
0.0005 0.000950604 0.000825179 900547
0.0005 0.000956137 0.000825179 1.0507e+06
0.0005 0.000961167 0.000825179 1.2361e+06
0.0005 0.00096574 0.000825179 1.47105e+06
0.0005 0.000969897 0.000825179 1.77893e+06
0.0005 0.000973676 0.000825179 2.19736e+06
0.0005 0.000977112 0.000825179 2.78538e+06
0.0005 0.000980235 0.000825179 3.63533e+06
0.0005 0.000983075 0.000825179 4.89585e+06
0.0005 0.000985656 0.000825179 6.81848e+06
0.0005 0.000988002 0.000825179 9.85684e+06
0.0005 0.000990136 0.000825179 1.48927e+07
0.0005 0.000992075 0.000825179 2.38046e+07
0.0005 0.000993838 0.000825179 4.11028e+07
0.0005 0.000995441 0.000825179 7.95361e+07
0.0005 0.000996898 0.000825179 1.84802e+08
0.0005 0.000998222 0.000825179 5.94344e+08
0.0005 0.000999427 0.000825179 3.64963e+09
0.0005 4.59758e-05 0.000903821 20908.4
0.0005 0.000133748 0.000903821 22380.1
0.0005 0.000213541 0.000903821 25005.9
0.0005 0.000286079 0.000903821 28569.9
0.0005 0.000352024 0.000903821 32928.8
0.0005 0.000411973 0.000903821 38000.2
0.0005 0.000466473 0.000903821 43751.7
0.0005 0.000516018 0.000903821 50190.7
0.0005 0.000561059 0.000903821 57363.6
0.0005 0.000602005 0.000903821 65361.5
0.0005 0.000639229 0.000903821 74320.2
0.0005 0.000673069 0.000903821 84360.7
0.0005 0.000703833 0.000903821 95582.2
0.0005 0.000731799 0.000903821 108128
0.0005 0.000757224 0.000903821 122204
0.0005 0.000780337 0.000903821 138078
0.0005 0.000801349 0.000903821 156078
0.0005 0.000820451 0.000903821 176593
0.0005 0.000837816 0.000903821 200081
0.0005 0.000853602 0.000903821 227083
0.0005 0.000867954 0.000903821 258228
0.0005 0.000881001 0.000903821 294244
0.0005 0.000892861 0.000903821 335983
0.0005 0.000903644 0.000903821 384429
0.0005 0.000913446 0.000903821 440724
0.0005 0.000922357 0.000903821 506202
0.0005 0.000930458 0.000903821 582463
0.0005 0.000937823 0.000903821 671528
0.0005 0.000944518 0.000903821 776148
0.0005 0.000950604 0.000903821 900369
0.0005 0.000956137 0.000903821 1.05049e+06
0.0005 0.000961167 0.000903821 1.23587e+06
0.0005 0.00096574 0.000903821 1.4708e+06
0.0005 0.000969897 0.000903821 1.77867e+06
0.0005 0.000973676 0.000903821 2.1971e+06
0.0005 0.000977112 0.000903821 2.78513e+06
0.0005 0.000980235 0.000903821 3.63512e+06
0.0005 0.000983075 0.000903821 4.89567e+06
0.0005 0.000985656 0.000903821 6.81834e+06
0.0005 0.000988002 0.000903821 9.85674e+06
0.0005 0.000990136 0.000903821 1.48926e+07
0.0005 0.000992075 0.000903821 2.38046e+07
0.0005 0.000993838 0.000903821 4.11028e+07
0.0005 0.000995441 0.000903821 7.9536e+07
0.0005 0.000996898 0.000903821 1.84802e+08
0.0005 0.000998222 0.000903821 5.94344e+08
0.0005 0.000999427 0.000903821 3.64963e+09
0.0005 4.59758e-05 0.000981003 20900.8
0.0005 0.000133748 0.000981003 22371.9
0.0005 0.000213541 0.000981003 24996.5
0.0005 0.000286079 0.000981003 28559.2
0.0005 0.000352024 0.000981003 32916.5
0.0005 0.000411973 0.000981003 37986.2
0.0005 0.000466473 0.000981003 43736
0.0005 0.000516018 0.000981003 50173.2
0.0005 0.000561059 0.000981003 57344.2
0.0005 0.000602005 0.000981003 65340.2
0.0005 0.000639229 0.000981003 74296.9
0.0005 0.000673069 0.000981003 84335.3
0.0005 0.000703833 0.000981003 95554.7
0.0005 0.000731799 0.000981003 108099
0.0005 0.000757224 0.000981003 122172
0.0005 0.000780337 0.000981003 138044
0.0005 0.000801349 0.000981003 156041
0.0005 0.000820451 0.000981003 176553
0.0005 0.000837816 0.000981003 200037
0.0005 0.000853602 0.000981003 227035
0.0005 0.000867954 0.000981003 258175
0.0005 0.000881001 0.000981003 294185
0.0005 0.000892861 0.000981003 335916
0.0005 0.000903644 0.000981003 384353
0.0005 0.000913446 0.000981003 440636
0.0005 0.000922357 0.000981003 506100
0.0005 0.000930458 0.000981003 582343
0.0005 0.000937823 0.000981003 671387
0.0005 0.000944518 0.000981003 775981
0.0005 0.000950604 0.000981003 900174
0.0005 0.000956137 0.000981003 1.05027e+06
0.0005 0.000961167 0.000981003 1.23562e+06
0.0005 0.00096574 0.000981003 1.47052e+06
0.0005 0.000969897 0.000981003 1.77838e+06
0.0005 0.000973676 0.000981003 2.19682e+06
0.0005 0.000977112 0.000981003 2.78487e+06
0.0005 0.000980235 0.000981003 3.63488e+06
0.0005 0.000983075 0.000981003 4.89548e+06
0.0005 0.000985656 0.000981003 6.81819e+06
0.0005 0.000988002 0.000981003 9.85663e+06
0.0005 0.000990136 0.000981003 1.48925e+07
0.0005 0.000992075 0.000981003 2.38045e+07
0.0005 0.000993838 0.000981003 4.11027e+07
0.0005 0.000995441 0.000981003 7.9536e+07
0.0005 0.000996898 0.000981003 1.84802e+08
0.0005 0.000998222 0.000981003 5.94344e+08
0.0005 0.000999427 0.000981003 3.64963e+09
0.0005 4.59758e-05 0.00105675 20892.7
0.0005 0.000133748 0.00105675 22363
0.0005 0.000213541 0.00105675 24986.4
0.0005 0.000286079 0.00105675 28547.5
0.0005 0.000352024 0.00105675 32903.1
0.0005 0.000411973 0.00105675 37970.9
0.0005 0.000466473 0.00105675 43718.8
0.0005 0.000516018 0.00105675 50154.1
0.0005 0.000561059 0.00105675 57323
0.0005 0.000602005 0.00105675 65316.9
0.0005 0.000639229 0.00105675 74271.2
0.0005 0.000673069 0.00105675 84307.4
0.0005 0.000703833 0.00105675 95524.6
0.0005 0.000731799 0.00105675 108066
0.0005 0.000757224 0.00105675 122137
0.0005 0.000780337 0.00105675 138006
0.0005 0.000801349 0.00105675 156000
0.0005 0.000820451 0.00105675 176509
0.0005 0.000837816 0.00105675 199989
0.0005 0.000853602 0.00105675 226982
0.0005 0.000867954 0.00105675 258116
0.0005 0.000881001 0.00105675 294120
0.0005 0.000892861 0.00105675 335843
0.0005 0.000903644 0.00105675 384270
0.0005 0.000913446 0.00105675 440541
0.0005 0.000922357 0.00105675 505989
0.0005 0.000930458 0.00105675 582213
0.0005 0.000937823 0.00105675 671232
0.0005 0.000944518 0.00105675 775799
0.0005 0.000950604 0.00105675 899961
0.0005 0.000956137 0.00105675 1.05002e+06
0.0005 0.000961167 0.00105675 1.23534e+06
0.0005 0.00096574 0.00105675 1.47022e+06
0.0005 0.000969897 0.00105675 1.77806e+06
0.0005 0.000973676 0.00105675 2.19651e+06
0.0005 0.000977112 0.00105675 2.78458e+06
0.0005 0.000980235 0.00105675 3.63463e+06
0.0005 0.000983075 0.00105675 4.89527e+06
0.0005 0.000985656 0.00105675 6.81802e+06
0.0005 0.000988002 0.00105675 9.8565e+06
0.0005 0.000990136 0.00105675 1.48924e+07
0.0005 0.000992075 0.00105675 2.38045e+07
0.0005 0.000993838 0.00105675 4.11027e+07
0.0005 0.000995441 0.00105675 7.9536e+07
0.0005 0.000996898 0.00105675 1.84802e+08
0.0005 0.000998222 0.00105675 5.94344e+08
0.0005 0.000999427 0.00105675 3.64963e+09
0.0005 4.59758e-05 0.0011311 20884
0.0005 0.000133748 0.0011311 22353.5
0.0005 0.000213541 0.0011311 24975.5
0.0005 0.000286079 0.0011311 28534.9
0.0005 0.000352024 0.0011311 32888.5
0.0005 0.000411973 0.0011311 37954.3
0.0005 0.000466473 0.0011311 43700.1
0.0005 0.000516018 0.0011311 50133.2
0.0005 0.000561059 0.0011311 57299.9
0.0005 0.000602005 0.0011311 65291.4
0.0005 0.000639229 0.0011311 74243.3
0.0005 0.000673069 0.0011311 84277
0.0005 0.000703833 0.0011311 95491.8
0.0005 0.000731799 0.0011311 108031
0.0005 0.000757224 0.0011311 122099
0.0005 0.000780337 0.0011311 137965
0.0005 0.000801349 0.0011311 155956
0.0005 0.000820451 0.0011311 176461
0.0005 0.000837816 0.0011311 199937
0.0005 0.000853602 0.0011311 226925
0.0005 0.000867954 0.0011311 258054
0.0005 0.000881001 0.0011311 294050
0.0005 0.000892861 0.0011311 335764
0.0005 0.000903644 0.0011311 384180
0.0005 0.000913446 0.0011311 440437
0.0005 0.000922357 0.0011311 505868
0.0005 0.000930458 0.0011311 582071
0.0005 0.000937823 0.0011311 671065
0.0005 0.000944518 0.0011311 775601
0.0005 0.000950604 0.0011311 899731
0.0005 0.000956137 0.0011311 1.04976e+06
0.0005 0.000961167 0.0011311 1.23504e+06
0.0005 0.00096574 0.0011311 1.4699e+06
0.0005 0.000969897 0.0011311 1.77772e+06
0.0005 0.000973676 0.0011311 2.19617e+06
0.0005 0.000977112 0.0011311 2.78426e+06
0.0005 0.000980235 0.0011311 3.63435e+06
0.0005 0.000983075 0.0011311 4.89504e+06
0.0005 0.000985656 0.0011311 6.81784e+06
0.0005 0.000988002 0.0011311 9.85637e+06
0.0005 0.000990136 0.0011311 1.48923e+07
0.0005 0.000992075 0.0011311 2.38044e+07
0.0005 0.000993838 0.0011311 4.11027e+07
0.0005 0.000995441 0.0011311 7.9536e+07
0.0005 0.000996898 0.0011311 1.84801e+08
0.0005 0.000998222 0.0011311 5.94344e+08
0.0005 0.000999427 0.0011311 3.64963e+09
0.0005 4.59758e-05 0.00120406 20874.8
0.0005 0.000133748 0.00120406 22343.4
0.0005 0.000213541 0.00120406 24963.9
0.0005 0.000286079 0.00120406 28521.3
0.0005 0.000352024 0.00120406 32872.7
0.0005 0.000411973 0.00120406 37936.3
0.0005 0.000466473 0.00120406 43679.7
0.0005 0.000516018 0.00120406 50110.5
0.0005 0.000561059 0.00120406 57274.8
0.0005 0.000602005 0.00120406 65263.7
0.0005 0.000639229 0.00120406 74212.9
0.0005 0.000673069 0.00120406 84243.9
0.0005 0.000703833 0.00120406 95456.1
0.0005 0.000731799 0.00120406 107992
0.0005 0.000757224 0.00120406 122058
0.0005 0.000780337 0.00120406 137921
0.0005 0.000801349 0.00120406 155909
0.0005 0.000820451 0.00120406 176410
0.0005 0.000837816 0.00120406 199881
0.0005 0.000853602 0.00120406 226864
0.0005 0.000867954 0.00120406 257986
0.0005 0.000881001 0.00120406 293974
0.0005 0.000892861 0.00120406 335679
0.0005 0.000903644 0.00120406 384083
0.0005 0.000913446 0.00120406 440325
0.0005 0.000922357 0.00120406 505738
0.0005 0.000930458 0.00120406 581918
0.0005 0.000937823 0.00120406 670884
0.0005 0.000944518 0.00120406 775388
0.0005 0.000950604 0.00120406 899481
0.0005 0.000956137 0.00120406 1.04947e+06
0.0005 0.000961167 0.00120406 1.23472e+06
0.0005 0.00096574 0.00120406 1.46954e+06
0.0005 0.000969897 0.00120406 1.77735e+06
0.0005 0.000973676 0.00120406 2.1958e+06
0.0005 0.000977112 0.00120406 2.78392e+06
0.0005 0.000980235 0.00120406 3.63405e+06
0.0005 0.000983075 0.00120406 4.89479e+06
0.0005 0.000985656 0.00120406 6.81765e+06
0.0005 0.000988002 0.00120406 9.85623e+06
0.0005 0.000990136 0.00120406 1.48922e+07
0.0005 0.000992075 0.00120406 2.38043e+07
0.0005 0.000993838 0.00120406 4.11026e+07
0.0005 0.000995441 0.00120406 7.9536e+07
0.0005 0.000996898 0.00120406 1.84801e+08
0.0005 0.000998222 0.00120406 5.94344e+08
0.0005 0.000999427 0.00120406 3.64963e+09
0.0005 4.59758e-05 0.00127567 20865.2
0.0005 0.000133748 0.00127567 22332.7
0.0005 0.000213541 0.00127567 24951.5
0.0005 0.000286079 0.00127567 28506.8
0.0005 0.000352024 0.00127567 32855.8
0.0005 0.000411973 0.00127567 37916.9
0.0005 0.000466473 0.00127567 43657.8
0.0005 0.000516018 0.00127567 50086
0.0005 0.000561059 0.00127567 57247.7
0.0005 0.000602005 0.00127567 65233.8
0.0005 0.000639229 0.00127567 74180.1
0.0005 0.000673069 0.00127567 84208.2
0.0005 0.000703833 0.00127567 95417.6
0.0005 0.000731799 0.00127567 107951
0.0005 0.000757224 0.00127567 122014
0.0005 0.000780337 0.00127567 137874
0.0005 0.000801349 0.00127567 155857
0.0005 0.000820451 0.00127567 176354
0.0005 0.000837816 0.00127567 199821
0.0005 0.000853602 0.00127567 226798
0.0005 0.000867954 0.00127567 257912
0.0005 0.000881001 0.00127567 293893
0.0005 0.000892861 0.00127567 335587
0.0005 0.000903644 0.00127567 383978
0.0005 0.000913446 0.00127567 440205
0.0005 0.000922357 0.00127567 505598
0.0005 0.000930458 0.00127567 581754
0.0005 0.000937823 0.00127567 670690
0.0005 0.000944518 0.00127567 775159
0.0005 0.000950604 0.00127567 899213
0.0005 0.000956137 0.00127567 1.04917e+06
0.0005 0.000961167 0.00127567 1.23438e+06
0.0005 0.00096574 0.00127567 1.46917e+06
0.0005 0.000969897 0.00127567 1.77696e+06
0.0005 0.000973676 0.00127567 2.19541e+06
0.0005 0.000977112 0.00127567 2.78356e+06
0.0005 0.000980235 0.00127567 3.63373e+06
0.0005 0.000983075 0.00127567 4.89453e+06
0.0005 0.000985656 0.00127567 6.81744e+06
0.0005 0.000988002 0.00127567 9.85607e+06
0.0005 0.000990136 0.00127567 1.48921e+07
0.0005 0.000992075 0.00127567 2.38043e+07
0.0005 0.000993838 0.00127567 4.11026e+07
0.0005 0.000995441 0.00127567 7.9536e+07
0.0005 0.000996898 0.00127567 1.84801e+08
0.0005 0.000998222 0.00127567 5.94344e+08
0.0005 0.000999427 0.00127567 3.64963e+09
0.0005 4.59758e-05 0.00134595 20855.1
0.0005 0.000133748 0.00134595 22321.5
0.0005 0.000213541 0.00134595 24938.4