# p  FACE_DATA 11045
#  x  y  z  p
0.0005 4.59758e-05 4.69794e-05 4.59316e-14
0.0005 0.000133748 4.69794e-05 1.25998e-13
0.0005 0.000213541 4.69794e-05 1.63488e-13
0.0005 0.000286079 4.69794e-05 1.85579e-13
0.0005 0.000352024 4.69794e-05 1.9767e-13
0.0005 0.000411973 4.69794e-05 2.01399e-13
0.0005 0.000466473 4.69794e-05 2.01093e-13
0.0005 0.000516018 4.69794e-05 1.99718e-13
0.0005 0.000561059 4.69794e-05 1.97183e-13
0.0005 0.000602005 4.69794e-05 1.95588e-13
0.0005 0.000639229 4.69794e-05 1.94492e-13
0.0005 0.000673069 4.69794e-05 1.90372e-13
0.0005 0.000703833 4.69794e-05 1.8734e-13
0.0005 0.000731799 4.69794e-05 1.85309e-13
0.0005 0.000757224 4.69794e-05 1.82623e-13
0.0005 0.000780337 4.69794e-05 1.79185e-13
0.0005 0.000801349 4.69794e-05 1.77307e-13
0.0005 0.000820451 4.69794e-05 1.74576e-13
0.0005 0.000837816 4.69794e-05 1.72078e-13
0.0005 0.000853602 4.69794e-05 1.68797e-13
0.0005 0.000867954 4.69794e-05 1.66509e-13
0.0005 0.000881001 4.69794e-05 1.64026e-13
0.0005 0.000892861 4.69794e-05 1.60288e-13
0.0005 0.000903644 4.69794e-05 1.5665e-13
0.0005 0.000913446 4.69794e-05 1.54128e-13
0.0005 0.000922357 4.69794e-05 1.51615e-13
0.0005 0.000930458 4.69794e-05 1.49142e-13
0.0005 0.000937823 4.69794e-05 1.46885e-13
0.0005 0.000944518 4.69794e-05 1.45049e-13
0.0005 0.000950604 4.69794e-05 1.4341e-13
0.0005 0.000956137 4.69794e-05 1.4199e-13
0.0005 0.000961167 4.69794e-05 1.40819e-13
0.0005 0.00096574 4.69794e-05 1.39847e-13
0.0005 0.000969897 4.69794e-05 1.39048e-13
0.0005 0.000973676 4.69794e-05 1.38369e-13
0.0005 0.000977112 4.69794e-05 1.37775e-13
0.0005 0.000980235 4.69794e-05 1.37261e-13
0.0005 0.000983075 4.69794e-05 1.36805e-13
0.0005 0.000985656 4.69794e-05 1.36398e-13
0.0005 0.000988002 4.69794e-05 1.36026e-13
0.0005 0.000990136 4.69794e-05 1.35689e-13
0.0005 0.000992075 4.69794e-05 1.35394e-13
0.0005 0.000993838 4.69794e-05 1.3514e-13
0.0005 0.000995441 4.69794e-05 1.34931e-13
0.0005 0.000996898 4.69794e-05 1.34769e-13
0.0005 0.000998222 4.69794e-05 1.34655e-13
0.0005 0.000999427 4.69794e-05 1.34582e-13
0.0005 4.59758e-05 0.000140066 1.22439e-13
0.0005 0.000133748 0.000140066 1.54633e-13
0.0005 0.000213541 0.000140066 1.78056e-13
0.0005 0.000286079 0.000140066 1.91913e-13
0.0005 0.000352024 0.000140066 1.98524e-13
0.0005 0.000411973 0.000140066 2.00766e-13
0.0005 0.000466473 0.000140066 2.00608e-13
0.0005 0.000516018 0.000140066 1.9867e-13
0.0005 0.000561059 0.000140066 1.95132e-13
0.0005 0.000602005 0.000140066 1.92316e-13
0.0005 0.000639229 0.000140066 1.90285e-13
0.0005 0.000673069 0.000140066 1.87825e-13
0.0005 0.000703833 0.000140066 1.85635e-13
0.0005 0.000731799 0.000140066 1.83536e-13
0.0005 0.000757224 0.000140066 1.81501e-13
0.0005 0.000780337 0.000140066 1.78975e-13
0.0005 0.000801349 0.000140066 1.75963e-13
0.0005 0.000820451 0.000140066 1.73151e-13
0.0005 0.000837816 0.000140066 1.70166e-13
0.0005 0.000853602 0.000140066 1.67007e-13
0.0005 0.000867954 0.000140066 1.63461e-13
0.0005 0.000881001 0.000140066 1.61019e-13
0.0005 0.000892861 0.000140066 1.58347e-13
0.0005 0.000903644 0.000140066 1.55478e-13
0.0005 0.000913446 0.000140066 1.5264e-13
0.0005 0.000922357 0.000140066 1.50396e-13
0.0005 0.000930458 0.000140066 1.48224e-13
0.0005 0.000937823 0.000140066 1.46474e-13
0.0005 0.000944518 0.000140066 1.44841e-13
0.0005 0.000950604 0.000140066 1.43403e-13
0.0005 0.000956137 0.000140066 1.42212e-13
0.0005 0.000961167 0.000140066 1.41182e-13
0.0005 0.00096574 0.000140066 1.40303e-13
0.0005 0.000969897 0.000140066 1.39655e-13
0.0005 0.000973676 0.000140066 1.39092e-13
0.0005 0.000977112 0.000140066 1.38495e-13
0.0005 0.000980235 0.000140066 1.38035e-13
0.0005 0.000983075 0.000140066 1.37598e-13
0.0005 0.000985656 0.000140066 1.3716e-13
0.0005 0.000988002 0.000140066 1.36769e-13
0.0005 0.000990136 0.000140066 1.36382e-13
0.0005 0.000992075 0.000140066 1.3601e-13
0.0005 0.000993838 0.000140066 1.35674e-13
0.0005 0.000995441 0.000140066 1.35376e-13
0.0005 0.000996898 0.000140066 1.35148e-13
0.0005 0.000998222 0.000140066 1.34949e-13
0.0005 0.000999427 0.000140066 1.34783e-13
0.0005 4.59758e-05 0.000231425 1.67932e-13
0.0005 0.000133748 0.000231425 1.81623e-13
0.0005 0.000213541 0.000231425 1.92517e-13
0.0005 0.000286079 0.000231425 2.02109e-13
0.0005 0.000352024 0.000231425 2.01775e-13
0.0005 0.000411973 0.000231425 1.99985e-13
0.0005 0.000466473 0.000231425 1.99587e-13
0.0005 0.000516018 0.000231425 1.97203e-13
0.0005 0.000561059 0.000231425 1.93808e-13
0.0005 0.000602005 0.000231425 1.89111e-13
0.0005 0.000639229 0.000231425 1.87028e-13
0.0005 0.000673069 0.000231425 1.86248e-13
0.0005 0.000703833 0.000231425 1.85259e-13
0.0005 0.000731799 0.000231425 1.84058e-13
0.0005 0.000757224 0.000231425 1.80492e-13
0.0005 0.000780337 0.000231425 1.76677e-13
0.0005 0.000801349 0.000231425 1.75374e-13
0.0005 0.000820451 0.000231425 1.73286e-13
0.0005 0.000837816 0.000231425 1.70523e-13
0.0005 0.000853602 0.000231425 1.67398e-13
0.0005 0.000867954 0.000231425 1.64069e-13
0.0005 0.000881001 0.000231425 1.62016e-13
0.0005 0.000892861 0.000231425 1.59805e-13
0.0005 0.000903644 0.000231425 1.57577e-13
0.0005 0.000913446 0.000231425 1.55563e-13
0.0005 0.000922357 0.000231425 1.53766e-13
0.0005 0.000930458 0.000231425 1.5231e-13
0.0005 0.000937823 0.000231425 1.51345e-13
0.0005 0.000944518 0.000231425 1.50021e-13
0.0005 0.000950604 0.000231425 1.48909e-13
0.0005 0.000956137 0.000231425 1.48007e-13
0.0005 0.000961167 0.000231425 1.47219e-13
0.0005 0.00096574 0.000231425 1.46535e-13
0.0005 0.000969897 0.000231425 1.46018e-13
0.0005 0.000973676 0.000231425 1.45595e-13
0.0005 0.000977112 0.000231425 1.4524e-13
0.0005 0.000980235 0.000231425 1.4489e-13
0.0005 0.000983075 0.000231425 1.44603e-13
0.0005 0.000985656 0.000231425 1.44368e-13
0.0005 0.000988002 0.000231425 1.44203e-13
0.0005 0.000990136 0.000231425 1.44044e-13
0.0005 0.000992075 0.000231425 1.43907e-13
0.0005 0.000993838 0.000231425 1.4375e-13
0.0005 0.000995441 0.000231425 1.43638e-13
0.0005 0.000996898 0.000231425 1.4355e-13
0.0005 0.000998222 0.000231425 1.43522e-13
0.0005 0.000999427 0.000231425 1.43534e-13
0.0005 4.59758e-05 0.000321089 1.92624e-13
0.0005 0.000133748 0.000321089 1.97798e-13
0.0005 0.000213541 0.000321089 2.0122e-13
0.0005 0.000286079 0.000321089 2.05919e-13
0.0005 0.000352024 0.000321089 2.02572e-13
0.0005 0.000411973 0.000321089 1.97617e-13
0.0005 0.000466473 0.000321089 1.98653e-13
0.0005 0.000516018 0.000321089 1.97365e-13
0.0005 0.000561059 0.000321089 1.94527e-13
0.0005 0.000602005 0.000321089 1.90152e-13
0.0005 0.000639229 0.000321089 1.88704e-13
0.0005 0.000673069 0.000321089 1.85812e-13
0.0005 0.000703833 0.000321089 1.85641e-13
0.0005 0.000731799 0.000321089 1.83864e-13
0.0005 0.000757224 0.000321089 1.81675e-13
0.0005 0.000780337 0.000321089 1.79469e-13
0.0005 0.000801349 0.000321089 1.77455e-13
0.0005 0.000820451 0.000321089 1.75605e-13
0.0005 0.000837816 0.000321089 1.73746e-13
0.0005 0.000853602 0.000321089 1.71103e-13
0.0005 0.000867954 0.000321089 1.68926e-13
0.0005 0.000881001 0.000321089 1.67245e-13
0.0005 0.000892861 0.000321089 1.65955e-13
0.0005 0.000903644 0.000321089 1.64301e-13
0.0005 0.000913446 0.000321089 1.62727e-13
0.0005 0.000922357 0.000321089 1.61472e-13
0.0005 0.000930458 0.000321089 1.6013e-13
0.0005 0.000937823 0.000321089 1.5943e-13
0.0005 0.000944518 0.000321089 1.58804e-13
0.0005 0.000950604 0.000321089 1.57918e-13
0.0005 0.000956137 0.000321089 1.57163e-13
0.0005 0.000961167 0.000321089 1.56551e-13
0.0005 0.00096574 0.000321089 1.56011e-13
0.0005 0.000969897 0.000321089 1.55531e-13
0.0005 0.000973676 0.000321089 1.55107e-13
0.0005 0.000977112 0.000321089 1.54694e-13
0.0005 0.000980235 0.000321089 1.54283e-13
0.0005 0.000983075 0.000321089 1.53944e-13
0.0005 0.000985656 0.000321089 1.53593e-13
0.0005 0.000988002 0.000321089 1.53227e-13
0.0005 0.000990136 0.000321089 1.52823e-13
0.0005 0.000992075 0.000321089 1.52464e-13
0.0005 0.000993838 0.000321089 1.52168e-13
0.0005 0.000995441 0.000321089 1.51878e-13
0.0005 0.000996898 0.000321089 1.51659e-13
0.0005 0.000998222 0.000321089 1.51454e-13
0.0005 0.000999427 0.000321089 1.51263e-13
0.0005 4.59758e-05 0.000409087 2.0564e-13
0.0005 0.000133748 0.000409087 2.06993e-13
0.0005 0.000213541 0.000409087 2.07585e-13
0.0005 0.000286079 0.000409087 2.06782e-13
0.0005 0.000352024 0.000409087 2.08163e-13
0.0005 0.000411973 0.000409087 2.03857e-13
0.0005 0.000466473 0.000409087 2.02034e-13
0.0005 0.000516018 0.000409087 2.00634e-13
0.0005 0.000561059 0.000409087 1.98965e-13
0.0005 0.000602005 0.000409087 1.97626e-13
0.0005 0.000639229 0.000409087 1.97329e-13
0.0005 0.000673069 0.000409087 1.95822e-13
0.0005 0.000703833 0.000409087 1.91295e-13
0.0005 0.000731799 0.000409087 1.8808e-13
0.0005 0.000757224 0.000409087 1.85854e-13
0.0005 0.000780337 0.000409087 1.83353e-13
0.0005 0.000801349 0.000409087 1.81281e-13
0.0005 0.000820451 0.000409087 1.79516e-13
0.0005 0.000837816 0.000409087 1.77884e-13
0.0005 0.000853602 0.000409087 1.76473e-13
0.0005 0.000867954 0.000409087 1.75329e-13
0.0005 0.000881001 0.000409087 1.74148e-13
0.0005 0.000892861 0.000409087 1.72959e-13
0.0005 0.000903644 0.000409087 1.7175e-13
0.0005 0.000913446 0.000409087 1.7115e-13
0.0005 0.000922357 0.000409087 1.70378e-13
0.0005 0.000930458 0.000409087 1.69731e-13
0.0005 0.000937823 0.000409087 1.69073e-13
0.0005 0.000944518 0.000409087 1.68408e-13
0.0005 0.000950604 0.000409087 1.67989e-13
0.0005 0.000956137 0.000409087 1.67594e-13
0.0005 0.000961167 0.000409087 1.67185e-13
0.0005 0.00096574 0.000409087 1.66888e-13
0.0005 0.000969897 0.000409087 1.66544e-13
0.0005 0.000973676 0.000409087 1.66239e-13
0.0005 0.000977112 0.000409087 1.66051e-13
0.0005 0.000980235 0.000409087 1.65899e-13
0.0005 0.000983075 0.000409087 1.65779e-13
0.0005 0.000985656 0.000409087 1.65731e-13
0.0005 0.000988002 0.000409087 1.65704e-13
0.0005 0.000990136 0.000409087 1.65729e-13
0.0005 0.000992075 0.000409087 1.65788e-13
0.0005 0.000993838 0.000409087 1.65874e-13
0.0005 0.000995441 0.000409087 1.65988e-13
0.0005 0.000996898 0.000409087 1.66074e-13
0.0005 0.000998222 0.000409087 1.66174e-13
0.0005 0.000999427 0.000409087 1.66273e-13
0.0005 4.59758e-05 0.000495453 2.12516e-13
0.0005 0.000133748 0.000495453 2.13274e-13
0.0005 0.000213541 0.000495453 2.15418e-13
0.0005 0.000286079 0.000495453 2.10743e-13
0.0005 0.000352024 0.000495453 2.0886e-13
0.0005 0.000411973 0.000495453 2.03202e-13
0.0005 0.000466473 0.000495453 2.04187e-13
0.0005 0.000516018 0.000495453 2.04297e-13
0.0005 0.000561059 0.000495453 2.02581e-13
0.0005 0.000602005 0.000495453 2.00632e-13
0.0005 0.000639229 0.000495453 1.9838e-13
0.0005 0.000673069 0.000495453 1.95403e-13
0.0005 0.000703833 0.000495453 1.94745e-13
0.0005 0.000731799 0.000495453 1.93142e-13
0.0005 0.000757224 0.000495453 1.91095e-13
0.0005 0.000780337 0.000495453 1.89272e-13
0.0005 0.000801349 0.000495453 1.87851e-13
0.0005 0.000820451 0.000495453 1.87043e-13
0.0005 0.000837816 0.000495453 1.86685e-13
0.0005 0.000853602 0.000495453 1.8512e-13
0.0005 0.000867954 0.000495453 1.84084e-13
0.0005 0.000881001 0.000495453 1.83375e-13
0.0005 0.000892861 0.000495453 1.82646e-13
0.0005 0.000903644 0.000495453 1.81879e-13
0.0005 0.000913446 0.000495453 1.81639e-13
0.0005 0.000922357 0.000495453 1.81443e-13
0.0005 0.000930458 0.000495453 1.8131e-13
0.0005 0.000937823 0.000495453 1.80761e-13
0.0005 0.000944518 0.000495453 1.80361e-13
0.0005 0.000950604 0.000495453 1.80314e-13
0.0005 0.000956137 0.000495453 1.80211e-13
0.0005 0.000961167 0.000495453 1.80056e-13
0.0005 0.00096574 0.000495453 1.79929e-13
0.0005 0.000969897 0.000495453 1.79805e-13
0.0005 0.000973676 0.000495453 1.79683e-13
0.0005 0.000977112 0.000495453 1.79573e-13
0.0005 0.000980235 0.000495453 1.79457e-13
0.0005 0.000983075 0.000495453 1.79309e-13
0.0005 0.000985656 0.000495453 1.79098e-13
0.0005 0.000988002 0.000495453 1.78887e-13
0.0005 0.000990136 0.000495453 1.78645e-13
0.0005 0.000992075 0.000495453 1.78383e-13
0.0005 0.000993838 0.000495453 1.78132e-13
0.0005 0.000995441 0.000495453 1.77867e-13
0.0005 0.000996898 0.000495453 1.77691e-13
0.0005 0.000998222 0.000495453 1.77514e-13
0.0005 0.000999427 0.000495453 1.77353e-13
0.0005 4.59758e-05 0.000580215 2.19618e-13
0.0005 0.000133748 0.000580215 2.22017e-13
0.0005 0.000213541 0.000580215 2.17915e-13
0.0005 0.000286079 0.000580215 2.16127e-13
0.0005 0.000352024 0.000580215 2.17749e-13
0.0005 0.000411973 0.000580215 2.11287e-13
0.0005 0.000466473 0.000580215 2.06748e-13
0.0005 0.000516018 0.000580215 2.08342e-13
0.0005 0.000561059 0.000580215 2.08175e-13
0.0005 0.000602005 0.000580215 2.06674e-13
0.0005 0.000639229 0.000580215 2.0494e-13
0.0005 0.000673069 0.000580215 2.03756e-13
0.0005 0.000703833 0.000580215 2.02492e-13
0.0005 0.000731799 0.000580215 2.01239e-13
0.0005 0.000757224 0.000580215 1.99911e-13
0.0005 0.000780337 0.000580215 1.98539e-13
0.0005 0.000801349 0.000580215 1.97327e-13
0.0005 0.000820451 0.000580215 1.96214e-13
0.0005 0.000837816 0.000580215 1.95308e-13
0.0005 0.000853602 0.000580215 1.94551e-13
0.0005 0.000867954 0.000580215 1.93917e-13
0.0005 0.000881001 0.000580215 1.93517e-13
0.0005 0.000892861 0.000580215 1.93196e-13
0.0005 0.000903644 0.000580215 1.92998e-13
0.0005 0.000913446 0.000580215 1.92837e-13
0.0005 0.000922357 0.000580215 1.92847e-13
0.0005 0.000930458 0.000580215 1.92897e-13
0.0005 0.000937823 0.000580215 1.93011e-13
0.0005 0.000944518 0.000580215 1.93107e-13
0.0005 0.000950604 0.000580215 1.9323e-13
0.0005 0.000956137 0.000580215 1.93308e-13
0.0005 0.000961167 0.000580215 1.93357e-13
0.0005 0.00096574 0.000580215 1.9338e-13
0.0005 0.000969897 0.000580215 1.9338e-13
0.0005 0.000973676 0.000580215 1.93346e-13
0.0005 0.000977112 0.000580215 1.93284e-13
0.0005 0.000980235 0.000580215 1.93185e-13
0.0005 0.000983075 0.000580215 1.93051e-13
0.0005 0.000985656 0.000580215 1.92879e-13
0.0005 0.000988002 0.000580215 1.92685e-13
0.0005 0.000990136 0.000580215 1.92478e-13
0.0005 0.000992075 0.000580215 1.92277e-13
0.0005 0.000993838 0.000580215 1.92032e-13
0.0005 0.000995441 0.000580215 1.91837e-13
0.0005 0.000996898 0.000580215 1.91652e-13
0.0005 0.000998222 0.000580215 1.91568e-13
0.0005 0.000999427 0.000580215 1.9157e-13
0.0005 4.59758e-05 0.000663404 2.25555e-13
0.0005 0.000133748 0.000663404 2.28051e-13
0.0005 0.000213541 0.000663404 2.23787e-13
0.0005 0.000286079 0.000663404 2.20927e-13
0.0005 0.000352024 0.000663404 2.18715e-13
0.0005 0.000411973 0.000663404 2.15098e-13
0.0005 0.000466473 0.000663404 2.09287e-13
0.0005 0.000516018 0.000663404 2.11344e-13
0.0005 0.000561059 0.000663404 2.12128e-13
0.0005 0.000602005 0.000663404 2.11184e-13
0.0005 0.000639229 0.000663404 2.10725e-13
0.0005 0.000673069 0.000663404 2.10079e-13
0.0005 0.000703833 0.000663404 2.08751e-13
0.0005 0.000731799 0.000663404 2.07891e-13
0.0005 0.000757224 0.000663404 2.07277e-13
0.0005 0.000780337 0.000663404 2.06636e-13
0.0005 0.000801349 0.000663404 2.05803e-13
0.0005 0.000820451 0.000663404 2.04823e-13
0.0005 0.000837816 0.000663404 2.04735e-13
0.0005 0.000853602 0.000663404 2.04398e-13
0.0005 0.000867954 0.000663404 2.0422e-13
0.0005 0.000881001 0.000663404 2.04304e-13
0.0005 0.000892861 0.000663404 2.03522e-13
0.0005 0.000903644 0.000663404 2.03723e-13
0.0005 0.000913446 0.000663404 2.03682e-13
0.0005 0.000922357 0.000663404 2.03806e-13
0.0005 0.000930458 0.000663404 2.04058e-13
0.0005 0.000937823 0.000663404 2.0417e-13
0.0005 0.000944518 0.000663404 2.04346e-13
0.0005 0.000950604 0.000663404 2.04601e-13
0.0005 0.000956137 0.000663404 2.04828e-13
0.0005 0.000961167 0.000663404 2.05054e-13
0.0005 0.00096574 0.000663404 2.05236e-13
0.0005 0.000969897 0.000663404 2.05374e-13
0.0005 0.000973676 0.000663404 2.05463e-13
0.0005 0.000977112 0.000663404 2.05541e-13
0.0005 0.000980235 0.000663404 2.05602e-13
0.0005 0.000983075 0.000663404 2.05651e-13
0.0005 0.000985656 0.000663404 2.05665e-13
0.0005 0.000988002 0.000663404 2.05696e-13
0.0005 0.000990136 0.000663404 2.05689e-13
0.0005 0.000992075 0.000663404 2.05612e-13
0.0005 0.000993838 0.000663404 2.05507e-13
0.0005 0.000995441 0.000663404 2.05365e-13
0.0005 0.000996898 0.000663404 2.05216e-13
0.0005 0.000998222 0.000663404 2.05178e-13
0.0005 0.000999427 0.000663404 2.05244e-13
0.0005 4.59758e-05 0.000745049 2.30986e-13
0.0005 0.000133748 0.000745049 2.31468e-13
0.0005 0.000213541 0.000745049 2.28551e-13
0.0005 0.000286079 0.000745049 2.25362e-13
0.0005 0.000352024 0.000745049 2.22169e-13
0.0005 0.000411973 0.000745049 2.19666e-13
0.0005 0.000466473 0.000745049 2.1713e-13
0.0005 0.000516018 0.000745049 2.16121e-13
0.0005 0.000561059 0.000745049 2.15732e-13
0.0005 0.000602005 0.000745049 2.1551e-13
0.0005 0.000639229 0.000745049 2.15583e-13
0.0005 0.000673069 0.000745049 2.15205e-13
0.0005 0.000703833 0.000745049 2.14977e-13
0.0005 0.000731799 0.000745049 2.14783e-13
0.0005 0.000757224 0.000745049 2.14621e-13
0.0005 0.000780337 0.000745049 2.1455e-13
0.0005 0.000801349 0.000745049 2.14534e-13
0.0005 0.000820451 0.000745049 2.14656e-13
0.0005 0.000837816 0.000745049 2.14972e-13
0.0005 0.000853602 0.000745049 2.1564e-13
0.0005 0.000867954 0.000745049 2.15415e-13
0.0005 0.000881001 0.000745049 2.15488e-13
0.0005 0.000892861 0.000745049 2.15782e-13
0.0005 0.000903644 0.000745049 2.16301e-13
0.0005 0.000913446 0.000745049 2.16387e-13
0.0005 0.000922357 0.000745049 2.16549e-13
0.0005 0.000930458 0.000745049 2.16776e-13
0.0005 0.000937823 0.000745049 2.17009e-13
0.0005 0.000944518 0.000745049 2.17198e-13
0.0005 0.000950604 0.000745049 2.17326e-13
0.0005 0.000956137 0.000745049 2.17389e-13
0.0005 0.000961167 0.000745049 2.17404e-13
0.0005 0.00096574 0.000745049 2.17388e-13
0.0005 0.000969897 0.000745049 2.17352e-13
0.0005 0.000973676 0.000745049 2.17178e-13
0.0005 0.000977112 0.000745049 2.16983e-13
0.0005 0.000980235 0.000745049 2.1678e-13
0.0005 0.000983075 0.000745049 2.16561e-13
0.0005 0.000985656 0.000745049 2.1635e-13
0.0005 0.000988002 0.000745049 2.16156e-13
0.0005 0.000990136 0.000745049 2.16025e-13
0.0005 0.000992075 0.000745049 2.15962e-13
0.0005 0.000993838 0.000745049 2.15998e-13
0.0005 0.000995441 0.000745049 2.1607e-13
0.0005 0.000996898 0.000745049 2.16184e-13
0.0005 0.000998222 0.000745049 2.16249e-13
0.0005 0.000999427 0.000745049 2.16268e-13
0.0005 4.59758e-05 0.000825179 2.36783e-13
0.0005 0.000133748 0.000825179 2.39417e-13
0.0005 0.000213541 0.000825179 2.3414e-13
0.0005 0.000286079 0.000825179 2.29833e-13
0.0005 0.000352024 0.000825179 2.24686e-13
0.0005 0.000411973 0.000825179 2.24242e-13
0.0005 0.000466473 0.000825179 2.22777e-13
0.0005 0.000516018 0.000825179 2.2187e-13
0.0005 0.000561059 0.000825179 2.22067e-13
0.0005 0.000602005 0.000825179 2.21268e-13
0.0005 0.000639229 0.000825179 2.22843e-13
0.0005 0.000673069 0.000825179 2.21307e-13
0.0005 0.000703833 0.000825179 2.21183e-13
0.0005 0.000731799 0.000825179 2.21183e-13
0.0005 0.000757224 0.000825179 2.21226e-13
0.0005 0.000780337 0.000825179 2.21341e-13
0.0005 0.000801349 0.000825179 2.21446e-13
0.0005 0.000820451 0.000825179 2.21562e-13
0.0005 0.000837816 0.000825179 2.21692e-13
0.0005 0.000853602 0.000825179 2.21876e-13
0.0005 0.000867954 0.000825179 2.22064e-13
0.0005 0.000881001 0.000825179 2.22314e-13
0.0005 0.000892861 0.000825179 2.22599e-13
0.0005 0.000903644 0.000825179 2.22956e-13
0.0005 0.000913446 0.000825179 2.23668e-13
0.0005 0.000922357 0.000825179 2.23864e-13
0.0005 0.000930458 0.000825179 2.24169e-13
0.0005 0.000937823 0.000825179 2.2459e-13
0.0005 0.000944518 0.000825179 2.24658e-13
0.0005 0.000950604 0.000825179 2.24766e-13
0.0005 0.000956137 0.000825179 2.24887e-13
0.0005 0.000961167 0.000825179 2.25002e-13
0.0005 0.00096574 0.000825179 2.25095e-13
0.0005 0.000969897 0.000825179 2.25047e-13
0.0005 0.000973676 0.000825179 2.2499e-13
0.0005 0.000977112 0.000825179 2.24908e-13
0.0005 0.000980235 0.000825179 2.24813e-13
0.0005 0.000983075 0.000825179 2.24709e-13
0.0005 0.000985656 0.000825179 2.24637e-13
0.0005 0.000988002 0.000825179 2.24615e-13
0.0005 0.000990136 0.000825179 2.24668e-13
0.0005 0.000992075 0.000825179 2.24797e-13
0.0005 0.000993838 0.000825179 2.24995e-13
0.0005 0.000995441 0.000825179 2.25224e-13
0.0005 0.000996898 0.000825179 2.25394e-13
0.0005 0.000998222 0.000825179 2.25502e-13
0.0005 0.000999427 0.000825179 2.25551e-13
0.0005 4.59758e-05 0.000903821 2.41837e-13
0.0005 0.000133748 0.000903821 2.41613e-13
0.0005 0.000213541 0.000903821 2.38843e-13
0.0005 0.000286079 0.000903821 2.35663e-13
0.0005 0.000352024 0.000903821 2.32866e-13
0.0005 0.000411973 0.000903821 2.3069e-13
0.0005 0.000466473 0.000903821 2.28911e-13
0.0005 0.000516018 0.000903821 2.28496e-13
0.0005 0.000561059 0.000903821 2.26066e-13
0.0005 0.000602005 0.000903821 2.2541e-13
0.0005 0.000639229 0.000903821 2.25983e-13
0.0005 0.000673069 0.000903821 2.26353e-13
0.0005 0.000703833 0.000903821 2.26654e-13
0.0005 0.000731799 0.000903821 2.27005e-13
0.0005 0.000757224 0.000903821 2.2737e-13
0.0005 0.000780337 0.000903821 2.27852e-13
0.0005 0.000801349 0.000903821 2.28431e-13
0.0005 0.000820451 0.000903821 2.27862e-13
0.0005 0.000837816 0.000903821 2.27604e-13
0.0005 0.000853602 0.000903821 2.2742e-13
0.0005 0.000867954 0.000903821 2.27198e-13
0.0005 0.000881001 0.000903821 2.26962e-13
0.0005 0.000892861 0.000903821 2.2778e-13
0.0005 0.000903644 0.000903821 2.27814e-13
0.0005 0.000913446 0.000903821 2.27625e-13
0.0005 0.000922357 0.000903821 2.27358e-13
0.0005 0.000930458 0.000903821 2.27416e-13
0.0005 0.000937823 0.000903821 2.27317e-13
0.0005 0.000944518 0.000903821 2.27472e-13
0.0005 0.000950604 0.000903821 2.27517e-13
0.0005 0.000956137 0.000903821 2.27457e-13
0.0005 0.000961167 0.000903821 2.27481e-13
0.0005 0.00096574 0.000903821 2.27478e-13
0.0005 0.000969897 0.000903821 2.27427e-13
0.0005 0.000973676 0.000903821 2.2747e-13
0.0005 0.000977112 0.000903821 2.27497e-13
0.0005 0.000980235 0.000903821 2.27505e-13
0.0005 0.000983075 0.000903821 2.2752e-13
0.0005 0.000985656 0.000903821 2.27546e-13
0.0005 0.000988002 0.000903821 2.2759e-13
0.0005 0.000990136 0.000903821 2.27641e-13
0.0005 0.000992075 0.000903821 2.27676e-13
0.0005 0.000993838 0.000903821 2.27723e-13
0.0005 0.000995441 0.000903821 2.27768e-13
0.0005 0.000996898 0.000903821 2.27775e-13
0.0005 0.000998222 0.000903821 2.27727e-13
0.0005 0.000999427 0.000903821 2.27638e-13
0.0005 4.59758e-05 0.000981003 2.47156e-13
0.0005 0.000133748 0.000981003 2.46361e-13
0.0005 0.000213541 0.000981003 2.4416e-13
0.0005 0.000286079 0.000981003 2.41064e-13
0.0005 0.000352024 0.000981003 2.3677e-13
0.0005 0.000411973 0.000981003 2.3626e-13
0.0005 0.000466473 0.000981003 2.32027e-13
0.0005 0.000516018 0.000981003 2.30613e-13
0.0005 0.000561059 0.000981003 2.3064e-13
0.0005 0.000602005 0.000981003 2.31678e-13
0.0005 0.000639229 0.000981003 2.30202e-13
0.0005 0.000673069 0.000981003 2.31457e-13
0.0005 0.000703833 0.000981003 2.31908e-13
0.0005 0.000731799 0.000981003 2.32281e-13
0.0005 0.000757224 0.000981003 2.32599e-13
0.0005 0.000780337 0.000981003 2.32798e-13
0.0005 0.000801349 0.000981003 2.32877e-13
0.0005 0.000820451 0.000981003 2.32824e-13
0.0005 0.000837816 0.000981003 2.32751e-13
0.0005 0.000853602 0.000981003 2.32543e-13
0.0005 0.000867954 0.000981003 2.32069e-13
0.0005 0.000881001 0.000981003 2.32625e-13
0.0005 0.000892861 0.000981003 2.32954e-13
0.0005 0.000903644 0.000981003 2.32966e-13
0.0005 0.000913446 0.000981003 2.3293e-13
0.0005 0.000922357 0.000981003 2.32846e-13
0.0005 0.000930458 0.000981003 2.32711e-13
0.0005 0.000937823 0.000981003 2.32505e-13
0.0005 0.000944518 0.000981003 2.32389e-13
0.0005 0.000950604 0.000981003 2.32358e-13
0.0005 0.000956137 0.000981003 2.32402e-13
0.0005 0.000961167 0.000981003 2.32367e-13
0.0005 0.00096574 0.000981003 2.32378e-13
0.0005 0.000969897 0.000981003 2.32402e-13
0.0005 0.000973676 0.000981003 2.32517e-13
0.0005 0.000977112 0.000981003 2.32612e-13
0.0005 0.000980235 0.000981003 2.32681e-13
0.0005 0.000983075 0.000981003 2.3274e-13
0.0005 0.000985656 0.000981003 2.32834e-13
0.0005 0.000988002 0.000981003 2.32904e-13
0.0005 0.000990136 0.000981003 2.32959e-13
0.0005 0.000992075 0.000981003 2.32967e-13
0.0005 0.000993838 0.000981003 2.33015e-13
0.0005 0.000995441 0.000981003 2.33007e-13
0.0005 0.000996898 0.000981003 2.33013e-13
0.0005 0.000998222 0.000981003 2.32969e-13
0.0005 0.000999427 0.000981003 2.32899e-13
0.0005 4.59758e-05 0.00105675 2.53165e-13
0.0005 0.000133748 0.00105675 2.5245e-13
0.0005 0.000213541 0.00105675 2.50451e-13
0.0005 0.000286079 0.00105675 2.48059e-13
0.0005 0.000352024 0.00105675 2.46106e-13
0.0005 0.000411973 0.00105675 2.44564e-13
0.0005 0.000466473 0.00105675 2.42337e-13
0.0005 0.000516018 0.00105675 2.40346e-13
0.0005 0.000561059 0.00105675 2.37925e-13
0.0005 0.000602005 0.00105675 2.40238e-13
0.0005 0.000639229 0.00105675 2.37733e-13
0.0005 0.000673069 0.00105675 2.35722e-13
0.0005 0.000703833 0.00105675 2.37359e-13
0.0005 0.000731799 0.00105675 2.38049e-13
0.0005 0.000757224 0.00105675 2.38704e-13
0.0005 0.000780337 0.00105675 2.39303e-13
0.0005 0.000801349 0.00105675 2.40079e-13
0.0005 0.000820451 0.00105675 2.39759e-13
0.0005 0.000837816 0.00105675 2.39647e-13
0.0005 0.000853602 0.00105675 2.39721e-13
0.0005 0.000867954 0.00105675 2.39796e-13
0.0005 0.000881001 0.00105675 2.39848e-13
0.0005 0.000892861 0.00105675 2.39848e-13
0.0005 0.000903644 0.00105675 2.39751e-13
0.0005 0.000913446 0.00105675 2.39642e-13
0.0005 0.000922357 0.00105675 2.40018e-13
0.0005 0.000930458 0.00105675 2.40323e-13
0.0005 0.000937823 0.00105675 2.40565e-13
0.0005 0.000944518 0.00105675 2.40776e-13
0.0005 0.000950604 0.00105675 2.40941e-13
0.0005 0.000956137 0.00105675 2.41068e-13
0.0005 0.000961167 0.00105675 2.4126e-13
0.0005 0.00096574 0.00105675 2.41402e-13
0.0005 0.000969897 0.00105675 2.41526e-13
0.0005 0.000973676 0.00105675 2.41569e-13
0.0005 0.000977112 0.00105675 2.41604e-13
0.0005 0.000980235 0.00105675 2.41653e-13
0.0005 0.000983075 0.00105675 2.41672e-13
0.0005 0.000985656 0.00105675 2.41666e-13
0.0005 0.000988002 0.00105675 2.41565e-13
0.0005 0.000990136 0.00105675 2.41467e-13
0.0005 0.000992075 0.00105675 2.41368e-13
0.0005 0.000993838 0.00105675 2.41217e-13
0.0005 0.000995441 0.00105675 2.4113e-13
0.0005 0.000996898 0.00105675 2.41021e-13
0.0005 0.000998222 0.00105675 2.40972e-13
0.0005 0.000999427 0.00105675 2.40983e-13
0.0005 4.59758e-05 0.0011311 2.59751e-13
0.0005 0.000133748 0.0011311 2.59707e-13
0.0005 0.000213541 0.0011311 2.57183e-13
0.0005 0.000286079 0.0011311 2.54598e-13
0.0005 0.000352024 0.0011311 2.52323e-13
0.0005 0.000411973 0.0011311 2.50122e-13
0.0005 0.000466473 0.0011311 2.45384e-13
0.0005 0.000516018 0.0011311 2.45798e-13
0.0005 0.000561059 0.0011311 2.43355e-13
0.0005 0.000602005 0.0011311 2.43525e-13
0.0005 0.000639229 0.0011311 2.42935e-13
0.0005 0.000673069 0.0011311 2.43046e-13
0.0005 0.000703833 0.0011311 2.44459e-13
0.0005 0.000731799 0.0011311 2.44056e-13
0.0005 0.000757224 0.0011311 2.44964e-13
0.0005 0.000780337 0.0011311 2.44502e-13
0.0005 0.000801349 0.0011311 2.43994e-13
0.0005 0.000820451 0.0011311 2.44886e-13
0.0005 0.000837816 0.0011311 2.45357e-13
0.0005 0.000853602 0.0011311 2.45719e-13
0.0005 0.000867954 0.0011311 2.46024e-13
0.0005 0.000881001 0.0011311 2.46356e-13
0.0005 0.000892861 0.0011311 2.46657e-13
0.0005 0.000903644 0.0011311 2.4633e-13
0.0005 0.000913446 0.0011311 2.46602e-13
0.0005 0.000922357 0.0011311 2.46845e-13
0.0005 0.000930458 0.0011311 2.47002e-13
0.0005 0.000937823 0.0011311 2.47089e-13
0.0005 0.000944518 0.0011311 2.47144e-13
0.0005 0.000950604 0.0011311 2.47509e-13
0.0005 0.000956137 0.0011311 2.47796e-13
0.0005 0.000961167 0.0011311 2.48001e-13
0.0005 0.00096574 0.0011311 2.48356e-13
0.0005 0.000969897 0.0011311 2.48604e-13
0.0005 0.000973676 0.0011311 2.48751e-13
0.0005 0.000977112 0.0011311 2.48904e-13
0.0005 0.000980235 0.0011311 2.4913e-13
0.0005 0.000983075 0.0011311 2.49321e-13
0.0005 0.000985656 0.0011311 2.49475e-13
0.0005 0.000988002 0.0011311 2.49617e-13
0.0005 0.000990136 0.0011311 2.49745e-13
0.0005 0.000992075 0.0011311 2.49837e-13
0.0005 0.000993838 0.0011311 2.49931e-13
0.0005 0.000995441 0.0011311 2.49945e-13
0.0005 0.000996898 0.0011311 2.49991e-13
0.0005 0.000998222 0.0011311 2.50029e-13
0.0005 0.000999427 0.0011311 2.50061e-13
0.0005 4.59758e-05 0.00120406 2.66694e-13
0.0005 0.000133748 0.00120406 2.69198e-13
0.0005 0.000213541 0.00120406 2.64034e-13
0.0005 0.000286079 0.00120406 2.60871e-13
0.0005 0.000352024 0.00120406 2.58235e-13
0.0005 0.000411973 0.00120406 2.56124e-13
0.0005 0.000466473 0.00120406 2.5356e-13
0.0005 0.000516018 0.00120406 2.52867e-13
0.0005 0.000561059 0.00120406 2.52145e-13
0.0005 0.000602005 0.00120406 2.49538e-13
0.0005 0.000639229 0.00120406 2.48819e-13
0.0005 0.000673069 0.00120406 2.48886e-13
0.0005 0.000703833 0.00120406 2.49526e-13
0.0005 0.000731799 0.00120406 2.49896e-13
0.0005 0.000757224 0.00120406 2.50226e-13
0.0005 0.000780337 0.00120406 2.50469e-13
0.0005 0.000801349 0.00120406 2.50773e-13
0.0005 0.000820451 0.00120406 2.51188e-13
0.0005 0.000837816 0.00120406 2.51639e-13
0.0005 0.000853602 0.00120406 2.52054e-13
0.0005 0.000867954 0.00120406 2.52505e-13
0.0005 0.000881001 0.00120406 2.52897e-13
0.0005 0.000892861 0.00120406 2.53295e-13
0.0005 0.000903644 0.00120406 2.53583e-13
0.0005 0.000913446 0.00120406 2.53801e-13
0.0005 0.000922357 0.00120406 2.54479e-13
0.0005 0.000930458 0.00120406 2.55064e-13
0.0005 0.000937823 0.00120406 2.55471e-13
0.0005 0.000944518 0.00120406 2.55867e-13
0.0005 0.000950604 0.00120406 2.5624e-13
0.0005 0.000956137 0.00120406 2.56622e-13
0.0005 0.000961167 0.00120406 2.56933e-13
0.0005 0.00096574 0.00120406 2.57225e-13
0.0005 0.000969897 0.00120406 2.57487e-13
0.0005 0.000973676 0.00120406 2.57748e-13
0.0005 0.000977112 0.00120406 2.57958e-13
0.0005 0.000980235 0.00120406 2.58155e-13
0.0005 0.000983075 0.00120406 2.58302e-13
0.0005 0.000985656 0.00120406 2.58423e-13
0.0005 0.000988002 0.00120406 2.58499e-13
0.0005 0.000990136 0.00120406 2.58539e-13
0.0005 0.000992075 0.00120406 2.5856e-13
0.0005 0.000993838 0.00120406 2.5853e-13
0.0005 0.000995441 0.00120406 2.58531e-13
0.0005 0.000996898 0.00120406 2.58508e-13