# U  FACE_DATA 11045
#  x  y  z  U_x  U_y  U_z  
0.0005 4.59758e-05 4.69794e-05 49.1462 -6.11369e-16 -5.74704e-16
0.0005 0.000133748 4.69794e-05 48.9672 -1.71351e-15 -6.40277e-16
0.0005 0.000213541 4.69794e-05 48.6489 -1.24379e-15 -5.6716e-16
0.0005 0.000286079 4.69794e-05 48.2197 -1.18056e-15 -4.74396e-16
0.0005 0.000352024 4.69794e-05 47.7013 -1.03164e-15 -3.37482e-16
0.0005 0.000411973 4.69794e-05 47.1107 -8.15969e-16 -2.50779e-16
0.0005 0.000466473 4.69794e-05 46.4611 -6.8145e-16 -1.99468e-16
0.0005 0.000516018 4.69794e-05 45.7629 -5.87683e-16 -1.4642e-16
0.0005 0.000561059 4.69794e-05 45.0238 -5.21432e-16 -9.11272e-17
0.0005 0.000602005 4.69794e-05 44.2482 -4.27433e-16 -4.59471e-17
0.0005 0.000639229 4.69794e-05 43.4356 -2.63255e-16 -3.58079e-17
0.0005 0.000673069 4.69794e-05 42.5868 -1.43301e-16 -4.8865e-17
0.0005 0.000703833 4.69794e-05 41.7069 -1.26144e-16 -7.23544e-17
0.0005 0.000731799 4.69794e-05 40.8001 -1.38406e-16 -9.06831e-17
0.0005 0.000757224 4.69794e-05 39.8687 -1.7042e-16 -1.12353e-16
0.0005 0.000780337 4.69794e-05 38.913 -2.29468e-16 -1.26083e-16
0.0005 0.000801349 4.69794e-05 37.9321 -3.24631e-16 -1.3636e-16
0.0005 0.000820451 4.69794e-05 36.9239 -4.2036e-16 -1.37283e-16
0.0005 0.000837816 4.69794e-05 35.8857 -4.94723e-16 -1.34498e-16
0.0005 0.000853602 4.69794e-05 34.8141 -5.85539e-16 -1.23372e-16
0.0005 0.000867954 4.69794e-05 33.7053 -6.28078e-16 -1.06497e-16
0.0005 0.000881001 4.69794e-05 32.555 -5.90225e-16 -9.2837e-17
0.0005 0.000892861 4.69794e-05 31.3586 -5.35421e-16 -8.48206e-17
0.0005 0.000903644 4.69794e-05 30.1115 -5.14491e-16 -7.73735e-17
0.0005 0.000913446 4.69794e-05 28.8093 -4.91773e-16 -6.88982e-17
0.0005 0.000922357 4.69794e-05 27.4483 -4.37025e-16 -6.15538e-17
0.0005 0.000930458 4.69794e-05 26.0257 -3.7039e-16 -5.63747e-17
0.0005 0.000937823 4.69794e-05 24.5412 -3.04263e-16 -5.32507e-17
0.0005 0.000944518 4.69794e-05 22.997 -2.38148e-16 -5.12308e-17
0.0005 0.000950604 4.69794e-05 21.3983 -1.78215e-16 -4.96128e-17
0.0005 0.000956137 4.69794e-05 19.7463 -1.24876e-16 -4.83376e-17
0.0005 0.000961167 4.69794e-05 18.0462 -8.19098e-17 -4.69203e-17
0.0005 0.00096574 4.69794e-05 16.3196 -5.05163e-17 -4.52874e-17
0.0005 0.000969897 4.69794e-05 14.5998 -2.96989e-17 -4.33177e-17
0.0005 0.000973676 4.69794e-05 12.9243 -1.6576e-17 -4.08698e-17
0.0005 0.000977112 4.69794e-05 11.3265 -1.07893e-17 -3.79634e-17
0.0005 0.000980235 4.69794e-05 9.82936 -1.01119e-17 -3.47252e-17
0.0005 0.000983075 4.69794e-05 8.4437 -1.20861e-17 -3.13179e-17
0.0005 0.000985656 4.69794e-05 7.17101 -1.42088e-17 -2.78126e-17
0.0005 0.000988002 4.69794e-05 6.00707 -1.60822e-17 -2.43103e-17
0.0005 0.000990136 4.69794e-05 4.94497 -1.72728e-17 -2.08314e-17
0.0005 0.000992075 4.69794e-05 3.97688 -1.70995e-17 -1.73919e-17
0.0005 0.000993838 4.69794e-05 3.09498 -1.53693e-17 -1.39991e-17
0.0005 0.000995441 4.69794e-05 2.29183 -1.22691e-17 -1.0663e-17
0.0005 0.000996898 4.69794e-05 1.56057 -8.48798e-18 -7.41194e-18
0.0005 0.000998222 4.69794e-05 0.894856 -4.56106e-18 -4.30506e-18
0.0005 0.000999427 4.69794e-05 0.288889 -1.64675e-18 -1.40615e-18
0.0005 4.59758e-05 0.000140066 49.1447 -5.96686e-16 -2.12809e-15
0.0005 0.000133748 0.000140066 48.9658 -2.36328e-15 -3.06034e-15
0.0005 0.000213541 0.000140066 48.6474 -2.63033e-15 -2.81491e-15
0.0005 0.000286079 0.000140066 48.2182 -2.48507e-15 -2.41942e-15
0.0005 0.000352024 0.000140066 47.6999 -2.17645e-15 -1.8833e-15
0.0005 0.000411973 0.000140066 47.1093 -1.86797e-15 -1.46171e-15
0.0005 0.000466473 0.000140066 46.4598 -1.56365e-15 -1.19132e-15
0.0005 0.000516018 0.000140066 45.7615 -1.26327e-15 -9.61331e-16
0.0005 0.000561059 0.000140066 45.0225 -1.05644e-15 -7.69136e-16
0.0005 0.000602005 0.000140066 44.2469 -9.50007e-16 -5.98934e-16
0.0005 0.000639229 0.000140066 43.4343 -8.34037e-16 -5.26904e-16
0.0005 0.000673069 0.000140066 42.5856 -7.24475e-16 -5.06681e-16
0.0005 0.000703833 0.000140066 41.7057 -6.5513e-16 -5.15304e-16
0.0005 0.000731799 0.000140066 40.7989 -6.16815e-16 -5.12684e-16
0.0005 0.000757224 0.000140066 39.8675 -5.87956e-16 -5.00103e-16
0.0005 0.000780337 0.000140066 38.9118 -5.63952e-16 -4.81593e-16
0.0005 0.000801349 0.000140066 37.9309 -5.64494e-16 -4.72515e-16
0.0005 0.000820451 0.000140066 36.9228 -5.62253e-16 -4.53034e-16
0.0005 0.000837816 0.000140066 35.8846 -5.3553e-16 -4.25132e-16
0.0005 0.000853602 0.000140066 34.813 -5.09854e-16 -3.86667e-16
0.0005 0.000867954 0.000140066 33.7042 -5.07783e-16 -3.43586e-16
0.0005 0.000881001 0.000140066 32.5539 -4.95751e-16 -3.06168e-16
0.0005 0.000892861 0.000140066 31.3575 -4.43664e-16 -2.76254e-16
0.0005 0.000903644 0.000140066 30.1104 -3.75781e-16 -2.49082e-16
0.0005 0.000913446 0.000140066 28.8083 -3.21279e-16 -2.22681e-16
0.0005 0.000922357 0.000140066 27.4472 -2.73414e-16 -1.98741e-16
0.0005 0.000930458 0.000140066 26.0247 -2.34284e-16 -1.79099e-16
0.0005 0.000937823 0.000140066 24.5402 -1.92109e-16 -1.62636e-16
0.0005 0.000944518 0.000140066 22.9961 -1.42585e-16 -1.48366e-16
0.0005 0.000950604 0.000140066 21.3973 -1.00324e-16 -1.35117e-16
0.0005 0.000956137 0.000140066 19.7454 -6.48211e-17 -1.2308e-16
0.0005 0.000961167 0.000140066 18.0453 -3.71695e-17 -1.11544e-16
0.0005 0.00096574 0.000140066 16.3188 -2.0636e-17 -1.00187e-16
0.0005 0.000969897 0.000140066 14.5991 -8.80507e-18 -8.88008e-17
0.0005 0.000973676 0.000140066 12.9236 1.86534e-19 -7.75009e-17
0.0005 0.000977112 0.000140066 11.3259 2.47126e-18 -6.64893e-17
0.0005 0.000980235 0.000140066 9.82884 -1.30463e-18 -5.61272e-17
0.0005 0.000983075 0.000140066 8.44325 -8.62959e-18 -4.67249e-17
0.0005 0.000985656 0.000140066 7.17063 -1.7578e-17 -3.84812e-17
0.0005 0.000988002 0.000140066 6.00676 -2.61887e-17 -3.14149e-17
0.0005 0.000990136 0.000140066 4.94471 -3.25361e-17 -2.54479e-17
0.0005 0.000992075 0.000140066 3.97667 -3.56112e-17 -2.04425e-17
0.0005 0.000993838 0.000140066 3.09481 -3.4399e-17 -1.62546e-17
0.0005 0.000995441 0.000140066 2.29171 -2.87238e-17 -1.2715e-17
0.0005 0.000996898 0.000140066 1.56049 -1.9524e-17 -9.593e-18
0.0005 0.000998222 0.000140066 0.894809 -9.39496e-18 -6.56127e-18
0.0005 0.000999427 0.000140066 0.288874 -2.95294e-18 -2.80244e-18
0.0005 4.59758e-05 0.000231425 49.1415 -4.00692e-16 -2.10153e-15
0.0005 0.000133748 0.000231425 48.9626 -1.82838e-15 -3.8899e-15
0.0005 0.000213541 0.000231425 48.6442 -2.37463e-15 -3.85158e-15
0.0005 0.000286079 0.000231425 48.2151 -2.28007e-15 -3.38093e-15
0.0005 0.000352024 0.000231425 47.6968 -1.92668e-15 -2.81758e-15
0.0005 0.000411973 0.000231425 47.1062 -1.76953e-15 -2.30215e-15
0.0005 0.000466473 0.000231425 46.4567 -1.57761e-15 -1.92399e-15
0.0005 0.000516018 0.000231425 45.7585 -1.28602e-15 -1.63714e-15
0.0005 0.000561059 0.000231425 45.0196 -1.0503e-15 -1.40308e-15
0.0005 0.000602005 0.000231425 44.244 -1.01266e-15 -1.19558e-15
0.0005 0.000639229 0.000231425 43.4314 -1.03013e-15 -1.02714e-15
0.0005 0.000673069 0.000231425 42.5828 -9.7987e-16 -9.04917e-16
0.0005 0.000703833 0.000231425 41.7029 -8.97634e-16 -8.39129e-16
0.0005 0.000731799 0.000231425 40.7962 -7.61405e-16 -7.7906e-16
0.0005 0.000757224 0.000231425 39.8648 -6.7714e-16 -7.23395e-16
0.0005 0.000780337 0.000231425 38.9092 -6.9899e-16 -6.76347e-16
0.0005 0.000801349 0.000231425 37.9283 -7.23336e-16 -6.38089e-16
0.0005 0.000820451 0.000231425 36.9202 -6.64854e-16 -6.03031e-16
0.0005 0.000837816 0.000231425 35.8821 -5.69346e-16 -5.69772e-16
0.0005 0.000853602 0.000231425 34.8105 -4.9937e-16 -5.38944e-16
0.0005 0.000867954 0.000231425 33.7017 -4.72491e-16 -5.10669e-16
0.0005 0.000881001 0.000231425 32.5514 -4.39105e-16 -4.84034e-16
0.0005 0.000892861 0.000231425 31.3551 -3.6648e-16 -4.59757e-16
0.0005 0.000903644 0.000231425 30.1081 -2.82793e-16 -4.39162e-16
0.0005 0.000913446 0.000231425 28.806 -2.13155e-16 -4.21009e-16
0.0005 0.000922357 0.000231425 27.445 -1.64027e-16 -4.04535e-16
0.0005 0.000930458 0.000231425 26.0225 -1.30258e-16 -3.8927e-16
0.0005 0.000937823 0.000231425 24.538 -9.01829e-17 -3.75112e-16
0.0005 0.000944518 0.000231425 22.994 -4.38225e-17 -3.61452e-16
0.0005 0.000950604 0.000231425 21.3953 -8.17939e-18 -3.46645e-16
0.0005 0.000956137 0.000231425 19.7434 1.47055e-17 -3.3034e-16
0.0005 0.000961167 0.000231425 18.0435 2.96636e-17 -3.11905e-16
0.0005 0.00096574 0.000231425 16.3171 3.80394e-17 -2.90452e-16
0.0005 0.000969897 0.000231425 14.5975 4.40639e-17 -2.65943e-16
0.0005 0.000973676 0.000231425 12.9222 5.2096e-17 -2.39344e-16
0.0005 0.000977112 0.000231425 11.3247 6.12549e-17 -2.1197e-16
0.0005 0.000980235 0.000231425 9.82773 6.76765e-17 -1.85161e-16
0.0005 0.000983075 0.000231425 8.4423 7.0241e-17 -1.59921e-16
0.0005 0.000985656 0.000231425 7.16982 6.95253e-17 -1.36793e-16
0.0005 0.000988002 0.000231425 6.00607 6.74427e-17 -1.15916e-16
0.0005 0.000990136 0.000231425 4.94415 6.37013e-17 -9.72349e-17
0.0005 0.000992075 0.000231425 3.97622 5.8134e-17 -8.05786e-17
0.0005 0.000993838 0.000231425 3.09446 4.95804e-17 -6.56163e-17
0.0005 0.000995441 0.000231425 2.29146 3.94215e-17 -5.18921e-17
0.0005 0.000996898 0.000231425 1.56031 2.78538e-17 -3.87704e-17
0.0005 0.000998222 0.000231425 0.894708 1.57005e-17 -2.52483e-17
0.0005 0.000999427 0.000231425 0.288841 5.24482e-18 -9.73962e-18
0.0005 4.59758e-05 0.000321089 49.1365 -2.31494e-16 -1.91787e-15
0.0005 0.000133748 0.000321089 48.9576 -1.18111e-15 -3.95307e-15
0.0005 0.000213541 0.000321089 48.6393 -1.67618e-15 -4.17121e-15
0.0005 0.000286079 0.000321089 48.2102 -1.75621e-15 -3.75114e-15
0.0005 0.000352024 0.000321089 47.692 -1.56482e-15 -3.38402e-15
0.0005 0.000411973 0.000321089 47.1015 -1.47001e-15 -2.93547e-15
0.0005 0.000466473 0.000321089 46.4521 -1.37978e-15 -2.52715e-15
0.0005 0.000516018 0.000321089 45.7539 -1.16691e-15 -2.22688e-15
0.0005 0.000561059 0.000321089 45.015 -9.55958e-16 -2.00435e-15
0.0005 0.000602005 0.000321089 44.2396 -8.62718e-16 -1.84283e-15
0.0005 0.000639229 0.000321089 43.4271 -8.40251e-16 -1.67123e-15
0.0005 0.000673069 0.000321089 42.5785 -9.11498e-16 -1.51756e-15
0.0005 0.000703833 0.000321089 41.6987 -9.28167e-16 -1.35429e-15
0.0005 0.000731799 0.000321089 40.792 -8.41122e-16 -1.21293e-15
0.0005 0.000757224 0.000321089 39.8607 -7.8068e-16 -1.10351e-15
0.0005 0.000780337 0.000321089 38.9052 -7.45494e-16 -1.00265e-15
0.0005 0.000801349 0.000321089 37.9244 -7.09561e-16 -9.01117e-16
0.0005 0.000820451 0.000321089 36.9163 -6.34994e-16 -8.07312e-16
0.0005 0.000837816 0.000321089 35.8782 -5.28296e-16 -7.27491e-16
0.0005 0.000853602 0.000321089 34.8067 -4.31569e-16 -6.61659e-16
0.0005 0.000867954 0.000321089 33.698 -3.60852e-16 -6.05773e-16
0.0005 0.000881001 0.000321089 32.5478 -2.96396e-16 -5.54217e-16
0.0005 0.000892861 0.000321089 31.3515 -2.25022e-16 -5.10003e-16
0.0005 0.000903644 0.000321089 30.1045 -1.59564e-16 -4.74812e-16
0.0005 0.000913446 0.000321089 28.8025 -1.15474e-16 -4.47139e-16
0.0005 0.000922357 0.000321089 27.4415 -9.07705e-17 -4.23126e-16
0.0005 0.000930458 0.000321089 26.0191 -9.12985e-17 -4.00526e-16
0.0005 0.000937823 0.000321089 24.5348 -9.97825e-17 -3.78192e-16
0.0005 0.000944518 0.000321089 22.9908 -8.55479e-17 -3.56806e-16
0.0005 0.000950604 0.000321089 21.3922 -6.65189e-17 -3.36241e-16
0.0005 0.000956137 0.000321089 19.7405 -5.82967e-17 -3.15507e-16
0.0005 0.000961167 0.000321089 18.0407 -5.27261e-17 -2.93157e-16
0.0005 0.00096574 0.000321089 16.3145 -4.54301e-17 -2.68425e-16
0.0005 0.000969897 0.000321089 14.5951 -3.81951e-17 -2.41188e-16
0.0005 0.000973676 0.000321089 12.92 -3.10924e-17 -2.12509e-16
0.0005 0.000977112 0.000321089 11.3227 -2.67647e-17 -1.84059e-16
0.0005 0.000980235 0.000321089 9.82605 -2.81475e-17 -1.57237e-16
0.0005 0.000983075 0.000321089 8.44085 -3.14914e-17 -1.32953e-16
0.0005 0.000985656 0.000321089 7.16858 -3.4754e-17 -1.11625e-16
0.0005 0.000988002 0.000321089 6.00504 -3.7526e-17 -9.32777e-17
0.0005 0.000990136 0.000321089 4.9433 -4.13711e-17 -7.77074e-17
0.0005 0.000992075 0.000321089 3.97554 -4.35425e-17 -6.45749e-17
0.0005 0.000993838 0.000321089 3.09393 -4.08765e-17 -5.34068e-17
0.0005 0.000995441 0.000321089 2.29106 -3.33319e-17 -4.35678e-17
0.0005 0.000996898 0.000321089 1.56005 -2.20671e-17 -3.41522e-17
0.0005 0.000998222 0.000321089 0.894555 -1.01773e-17 -2.36876e-17
0.0005 0.000999427 0.000321089 0.288792 -3.06072e-18 -9.84063e-18
0.0005 4.59758e-05 0.000409087 49.1299 -1.40022e-16 -1.7108e-15
0.0005 0.000133748 0.000409087 48.951 -7.67972e-16 -3.84882e-15
0.0005 0.000213541 0.000409087 48.6328 -1.15666e-15 -4.2937e-15
0.0005 0.000286079 0.000409087 48.2037 -1.38263e-15 -3.99952e-15
0.0005 0.000352024 0.000409087 47.6856 -1.27209e-15 -3.62082e-15
0.0005 0.000411973 0.000409087 47.0952 -1.11494e-15 -3.20794e-15
0.0005 0.000466473 0.000409087 46.4458 -1.10305e-15 -2.8417e-15
0.0005 0.000516018 0.000409087 45.7478 -1.03713e-15 -2.55414e-15
0.0005 0.000561059 0.000409087 45.009 -9.5798e-16 -2.31268e-15
0.0005 0.000602005 0.000409087 44.2337 -9.00964e-16 -2.1052e-15
0.0005 0.000639229 0.000409087 43.4212 -8.29349e-16 -1.91283e-15
0.0005 0.000673069 0.000409087 42.5727 -6.98077e-16 -1.7421e-15
0.0005 0.000703833 0.000409087 41.6931 -5.68664e-16 -1.55964e-15
0.0005 0.000731799 0.000409087 40.7865 -5.12215e-16 -1.40498e-15
0.0005 0.000757224 0.000409087 39.8553 -4.55115e-16 -1.26525e-15
0.0005 0.000780337 0.000409087 38.8998 -3.88628e-16 -1.14013e-15
0.0005 0.000801349 0.000409087 37.9191 -3.32265e-16 -1.02618e-15
0.0005 0.000820451 0.000409087 36.9111 -2.66548e-16 -9.25197e-16
0.0005 0.000837816 0.000409087 35.8731 -2.07757e-16 -8.37108e-16
0.0005 0.000853602 0.000409087 34.8017 -1.7135e-16 -7.57069e-16
0.0005 0.000867954 0.000409087 33.693 -1.42421e-16 -6.86942e-16
0.0005 0.000881001 0.000409087 32.5428 -1.17646e-16 -6.25707e-16
0.0005 0.000892861 0.000409087 31.3466 -1.07719e-16 -5.72857e-16
0.0005 0.000903644 0.000409087 30.0997 -1.09547e-16 -5.28796e-16
0.0005 0.000913446 0.000409087 28.7978 -1.00164e-16 -4.9268e-16
0.0005 0.000922357 0.000409087 27.4369 -7.88495e-17 -4.61019e-16
0.0005 0.000930458 0.000409087 26.0146 -5.6904e-17 -4.30682e-16
0.0005 0.000937823 0.000409087 24.5304 -4.21221e-17 -3.98826e-16
0.0005 0.000944518 0.000409087 22.9865 -3.46985e-17 -3.67127e-16
0.0005 0.000950604 0.000409087 21.3882 -3.0316e-17 -3.37475e-16
0.0005 0.000956137 0.000409087 19.7366 -2.46572e-17 -3.0859e-16
0.0005 0.000961167 0.000409087 18.037 -1.80488e-17 -2.79004e-16
0.0005 0.00096574 0.000409087 16.311 -1.2036e-17 -2.48195e-16
0.0005 0.000969897 0.000409087 14.5919 -5.61797e-18 -2.1631e-16
0.0005 0.000973676 0.000409087 12.9172 -2.88417e-18 -1.84427e-16
0.0005 0.000977112 0.000409087 11.3202 -2.66399e-19 -1.54115e-16
0.0005 0.000980235 0.000409087 9.82381 4.95526e-18 -1.26676e-16
0.0005 0.000983075 0.000409087 8.43892 1.22784e-17 -1.02904e-16
0.0005 0.000985656 0.000409087 7.16694 2.08333e-17 -8.3137e-17
0.0005 0.000988002 0.000409087 6.00367 2.87582e-17 -6.73012e-17
0.0005 0.000990136 0.000409087 4.94217 3.40063e-17 -5.49469e-17
0.0005 0.000992075 0.000409087 3.97463 3.54592e-17 -4.54351e-17
0.0005 0.000993838 0.000409087 3.09323 3.29911e-17 -3.80845e-17
0.0005 0.000995441 0.000409087 2.29054 2.72227e-17 -3.20997e-17
0.0005 0.000996898 0.000409087 1.55969 1.92243e-17 -2.64468e-17
0.0005 0.000998222 0.000409087 0.894351 1.00208e-17 -1.95485e-17
0.0005 0.000999427 0.000409087 0.288726 3.23845e-18 -8.75383e-18
0.0005 4.59758e-05 0.000495453 49.1216 -1.20358e-16 -1.62885e-15
0.0005 0.000133748 0.000495453 48.9428 -5.47498e-16 -3.76471e-15
0.0005 0.000213541 0.000495453 48.6246 -7.65007e-16 -4.23974e-15
0.0005 0.000286079 0.000495453 48.1957 -9.02804e-16 -4.08453e-15
0.0005 0.000352024 0.000495453 47.6776 -9.02614e-16 -3.71773e-15
0.0005 0.000411973 0.000495453 47.0873 -9.1641e-16 -3.34463e-15
0.0005 0.000466473 0.000495453 46.4381 -1.00196e-15 -2.99505e-15
0.0005 0.000516018 0.000495453 45.7402 -9.30357e-16 -2.69882e-15
0.0005 0.000561059 0.000495453 45.0015 -7.79736e-16 -2.43617e-15
0.0005 0.000602005 0.000495453 44.2263 -6.84023e-16 -2.1663e-15
0.0005 0.000639229 0.000495453 43.414 -6.51919e-16 -1.9075e-15
0.0005 0.000673069 0.000495453 42.5656 -6.42441e-16 -1.67901e-15
0.0005 0.000703833 0.000495453 41.6861 -6.1576e-16 -1.49347e-15
0.0005 0.000731799 0.000495453 40.7796 -5.59712e-16 -1.33311e-15
0.0005 0.000757224 0.000495453 39.8485 -4.9319e-16 -1.18678e-15
0.0005 0.000780337 0.000495453 38.8931 -4.43131e-16 -1.06207e-15
0.0005 0.000801349 0.000495453 37.9125 -4.021e-16 -9.54702e-16
0.0005 0.000820451 0.000495453 36.9046 -3.4644e-16 -8.64099e-16
0.0005 0.000837816 0.000495453 35.8667 -2.51869e-16 -7.89528e-16
0.0005 0.000853602 0.000495453 34.7954 -1.71652e-16 -7.2552e-16
0.0005 0.000867954 0.000495453 33.6868 -1.37685e-16 -6.68065e-16
0.0005 0.000881001 0.000495453 32.5367 -1.20559e-16 -6.16945e-16
0.0005 0.000892861 0.000495453 31.3406 -1.11787e-16 -5.70034e-16
0.0005 0.000903644 0.000495453 30.0938 -1.17198e-16 -5.2602e-16
0.0005 0.000913446 0.000495453 28.792 -1.15057e-16 -4.84455e-16
0.0005 0.000922357 0.000495453 27.4312 -8.49049e-17 -4.47544e-16
0.0005 0.000930458 0.000495453 26.0091 -3.20806e-17 -4.14605e-16
0.0005 0.000937823 0.000495453 24.525 7.54934e-18 -3.85244e-16
0.0005 0.000944518 0.000495453 22.9813 1.65645e-17 -3.57871e-16
0.0005 0.000950604 0.000495453 21.3831 1.81863e-17 -3.31994e-16
0.0005 0.000956137 0.000495453 19.7317 2.65535e-17 -3.06376e-16
0.0005 0.000961167 0.000495453 18.0324 3.47074e-17 -2.80269e-16
0.0005 0.00096574 0.000495453 16.3067 3.87103e-17 -2.52566e-16
0.0005 0.000969897 0.000495453 14.588 3.8787e-17 -2.23439e-16
0.0005 0.000973676 0.000495453 12.9136 3.47627e-17 -1.9373e-16
0.0005 0.000977112 0.000495453 11.317 2.89193e-17 -1.64858e-16
0.0005 0.000980235 0.000495453 9.82102 2.32299e-17 -1.38246e-16
0.0005 0.000983075 0.000495453 8.43652 1.75665e-17 -1.14907e-16
0.0005 0.000985656 0.000495453 7.1649 8.58348e-18 -9.51742e-17
0.0005 0.000988002 0.000495453 6.00196 -1.57505e-18 -7.89773e-17
0.0005 0.000990136 0.000495453 4.94077 -1.02916e-17 -6.58854e-17
0.0005 0.000992075 0.000495453 3.9735 -1.61085e-17 -5.53124e-17
0.0005 0.000993838 0.000495453 3.09235 -1.79126e-17 -4.65886e-17
0.0005 0.000995441 0.000495453 2.28989 -1.60205e-17 -3.89538e-17
0.0005 0.000996898 0.000495453 1.55925 -1.07354e-17 -3.14472e-17
0.0005 0.000998222 0.000495453 0.894098 -4.27692e-18 -2.25602e-17
0.0005 0.000999427 0.000495453 0.288645 -1.09714e-18 -9.75512e-18
0.0005 4.59758e-05 0.000580215 49.1117 -1.10826e-16 -1.54517e-15
0.0005 0.000133748 0.000580215 48.9329 -3.49056e-16 -3.63433e-15
0.0005 0.000213541 0.000580215 48.6148 -5.08113e-16 -4.08563e-15
0.0005 0.000286079 0.000580215 48.186 -7.17628e-16 -4.00379e-15
0.0005 0.000352024 0.000580215 47.6681 -7.03969e-16 -3.72154e-15
0.0005 0.000411973 0.000580215 47.0779 -6.71797e-16 -3.41296e-15
0.0005 0.000466473 0.000580215 46.4288 -7.76301e-16 -3.05519e-15
0.0005 0.000516018 0.000580215 45.7311 -7.8604e-16 -2.74342e-15
0.0005 0.000561059 0.000580215 44.9925 -6.55091e-16 -2.48728e-15
0.0005 0.000602005 0.000580215 44.2174 -5.10081e-16 -2.23343e-15
0.0005 0.000639229 0.000580215 43.4053 -4.51032e-16 -1.99839e-15
0.0005 0.000673069 0.000580215 42.5571 -4.27516e-16 -1.76867e-15
0.0005 0.000703833 0.000580215 41.6777 -4.00515e-16 -1.54754e-15
0.0005 0.000731799 0.000580215 40.7713 -3.6864e-16 -1.35081e-15
0.0005 0.000757224 0.000580215 39.8403 -3.35342e-16 -1.18647e-15
0.0005 0.000780337 0.000580215 38.8851 -3.10341e-16 -1.04587e-15
0.0005 0.000801349 0.000580215 37.9046 -2.88544e-16 -9.24427e-16
0.0005 0.000820451 0.000580215 36.8969 -2.60925e-16 -8.21653e-16
0.0005 0.000837816 0.000580215 35.859 -2.20276e-16 -7.39903e-16
0.0005 0.000853602 0.000580215 34.7878 -1.61741e-16 -6.78562e-16
0.0005 0.000867954 0.000580215 33.6794 -9.98119e-17 -6.28708e-16
0.0005 0.000881001 0.000580215 32.5294 -3.78003e-17 -5.8346e-16
0.0005 0.000892861 0.000580215 31.3334 1.9533e-17 -5.41574e-16
0.0005 0.000903644 0.000580215 30.0868 6.57118e-17 -5.02627e-16
0.0005 0.000913446 0.000580215 28.785 9.10097e-17 -4.65648e-16
0.0005 0.000922357 0.000580215 27.4244 1.0187e-16 -4.30528e-16
0.0005 0.000930458 0.000580215 26.0024 1.05248e-16 -3.98762e-16
0.0005 0.000937823 0.000580215 24.5185 1.04191e-16 -3.69745e-16
0.0005 0.000944518 0.000580215 22.975 1.00615e-16 -3.42636e-16
0.0005 0.000950604 0.000580215 21.377 9.65229e-17 -3.16717e-16
0.0005 0.000956137 0.000580215 19.7259 9.14519e-17 -2.91548e-16
0.0005 0.000961167 0.000580215 18.0269 8.18918e-17 -2.66285e-16
0.0005 0.00096574 0.000580215 16.3016 6.90589e-17 -2.39636e-16
0.0005 0.000969897 0.000580215 14.5832 5.5275e-17 -2.11498e-16
0.0005 0.000973676 0.000580215 12.9093 4.16693e-17 -1.82642e-16
0.0005 0.000977112 0.000580215 11.3132 2.99827e-17 -1.54534e-16
0.0005 0.000980235 0.000580215 9.8177 2.10909e-17 -1.28577e-16
0.0005 0.000983075 0.000580215 8.43365 1.46563e-17 -1.05746e-16
0.0005 0.000985656 0.000580215 7.16247 9.88185e-18 -8.64202e-17
0.0005 0.000988002 0.000580215 5.99992 6.97201e-18 -7.05233e-17
0.0005 0.000990136 0.000580215 4.93909 7.17488e-18 -5.77735e-17
0.0005 0.000992075 0.000580215 3.97215 1.0029e-17 -4.77576e-17
0.0005 0.000993838 0.000580215 3.0913 1.38352e-17 -3.99523e-17
0.0005 0.000995441 0.000580215 2.28912 1.59812e-17 -3.3696e-17
0.0005 0.000996898 0.000580215 1.55872 1.41891e-17 -2.78896e-17
0.0005 0.000998222 0.000580215 0.893796 8.61934e-18 -2.08198e-17
0.0005 0.000999427 0.000580215 0.288547 2.91944e-18 -9.41478e-18
0.0005 4.59758e-05 0.000663404 49.1002 -1.26498e-16 -1.37673e-15
0.0005 0.000133748 0.000663404 48.9215 -2.49672e-16 -3.29619e-15
0.0005 0.000213541 0.000663404 48.6035 -2.83019e-16 -3.8022e-15
0.0005 0.000286079 0.000663404 48.1748 -4.7794e-16 -3.72304e-15
0.0005 0.000352024 0.000663404 47.657 -5.40958e-16 -3.44617e-15
0.0005 0.000411973 0.000663404 47.067 -5.25439e-16 -3.21734e-15
0.0005 0.000466473 0.000663404 46.4181 -6.00708e-16 -2.94045e-15
0.0005 0.000516018 0.000663404 45.7205 -6.34212e-16 -2.64014e-15
0.0005 0.000561059 0.000663404 44.9821 -4.94058e-16 -2.35046e-15
0.0005 0.000602005 0.000663404 44.2072 -3.45744e-16 -2.10598e-15
0.0005 0.000639229 0.000663404 43.3952 -2.68341e-16 -1.88864e-15
0.0005 0.000673069 0.000663404 42.5472 -2.04359e-16 -1.68108e-15
0.0005 0.000703833 0.000663404 41.6679 -1.8307e-16 -1.4925e-15
0.0005 0.000731799 0.000663404 40.7618 -2.05484e-16 -1.32473e-15
0.0005 0.000757224 0.000663404 39.8309 -2.22782e-16 -1.17891e-15
0.0005 0.000780337 0.000663404 38.8758 -2.24867e-16 -1.05404e-15
0.0005 0.000801349 0.000663404 37.8955 -2.32349e-16 -9.47013e-16
0.0005 0.000820451 0.000663404 36.8879 -2.50643e-16 -8.57413e-16
0.0005 0.000837816 0.000663404 35.8502 -2.51281e-16 -7.83588e-16
0.0005 0.000853602 0.000663404 34.7791 -2.25316e-16 -7.23651e-16
0.0005 0.000867954 0.000663404 33.6708 -1.68005e-16 -6.74623e-16
0.0005 0.000881001 0.000663404 32.521 -8.75723e-17 -6.35754e-16
0.0005 0.000892861 0.000663404 31.3251 -1.80488e-17 -6.0707e-16
0.0005 0.000903644 0.000663404 30.0786 3.50167e-17 -5.85686e-16
0.0005 0.000913446 0.000663404 28.777 8.36572e-17 -5.67935e-16
0.0005 0.000922357 0.000663404 27.4166 1.27888e-16 -5.51288e-16
0.0005 0.000930458 0.000663404 25.9947 1.66868e-16 -5.35162e-16
0.0005 0.000937823 0.000663404 24.511 1.89815e-16 -5.18239e-16
0.0005 0.000944518 0.000663404 22.9677 1.86236e-16 -4.99854e-16
0.0005 0.000950604 0.000663404 21.37 1.69894e-16 -4.79401e-16
0.0005 0.000956137 0.000663404 19.7192 1.48295e-16 -4.56538e-16
0.0005 0.000961167 0.000663404 18.0205 1.23715e-16 -4.29984e-16
0.0005 0.00096574 0.000663404 16.2956 1.00194e-16 -3.98811e-16
0.0005 0.000969897 0.000663404 14.5777 7.82197e-17 -3.63078e-16
0.0005 0.000973676 0.000663404 12.9043 5.82536e-17 -3.24071e-16
0.0005 0.000977112 0.000663404 11.3088 4.18183e-17 -2.84227e-16
0.0005 0.000980235 0.000663404 9.81385 3.15631e-17 -2.45912e-16
0.0005 0.000983075 0.000663404 8.43033 2.76388e-17 -2.10705e-16
0.0005 0.000985656 0.000663404 7.15965 2.75316e-17 -1.79463e-16
0.0005 0.000988002 0.000663404 5.99756 2.98116e-17 -1.52299e-16
0.0005 0.000990136 0.000663404 4.93715 3.20964e-17 -1.28957e-16
0.0005 0.000992075 0.000663404 3.97059 3.24289e-17 -1.08857e-16
0.0005 0.000993838 0.000663404 3.09009 2.78651e-17 -9.12525e-17
0.0005 0.000995441 0.000663404 2.28822 2.09677e-17 -7.50334e-17
0.0005 0.000996898 0.000663404 1.55811 1.19141e-17 -5.87391e-17
0.0005 0.000998222 0.000663404 0.893445 2.76193e-18 -3.99661e-17
0.0005 0.000999427 0.000663404 0.288434 -6.8434e-20 -1.59064e-17
0.0005 4.59758e-05 0.000745049 49.0871 -8.53458e-17 -1.25001e-15
0.0005 0.000133748 0.000745049 48.9084 -1.7448e-16 -2.99662e-15
0.0005 0.000213541 0.000745049 48.5905 -1.87708e-16 -3.45764e-15
0.0005 0.000286079 0.000745049 48.162 -3.4329e-16 -3.39582e-15
0.0005 0.000352024 0.000745049 47.6443 -4.71724e-16 -3.18422e-15
0.0005 0.000411973 0.000745049 47.0545 -5.00799e-16 -2.98187e-15
0.0005 0.000466473 0.000745049 46.4058 -4.77339e-16 -2.77442e-15
0.0005 0.000516018 0.000745049 45.7084 -4.08862e-16 -2.50649e-15
0.0005 0.000561059 0.000745049 44.9702 -2.9926e-16 -2.23932e-15
0.0005 0.000602005 0.000745049 44.1955 -2.05992e-16 -2.03679e-15
0.0005 0.000639229 0.000745049 43.3838 -1.36942e-16 -1.85544e-15
0.0005 0.000673069 0.000745049 42.5359 -1.01669e-16 -1.6796e-15
0.0005 0.000703833 0.000745049 41.6569 -9.74231e-17 -1.52508e-15
0.0005 0.000731799 0.000745049 40.7509 -1.02695e-16 -1.37804e-15
0.0005 0.000757224 0.000745049 39.8202 -1.10882e-16 -1.23932e-15
0.0005 0.000780337 0.000745049 38.8653 -1.20463e-16 -1.11278e-15
0.0005 0.000801349 0.000745049 37.8851 -1.31057e-16 -9.99492e-16
0.0005 0.000820451 0.000745049 36.8776 -1.41657e-16 -8.96564e-16
0.0005 0.000837816 0.000745049 35.8401 -1.39328e-16 -8.03405e-16
0.0005 0.000853602 0.000745049 34.7692 -1.16052e-16 -7.22134e-16
0.0005 0.000867954 0.000745049 33.661 -9.21756e-17 -6.53267e-16
0.0005 0.000881001 0.000745049 32.5113 -8.87498e-17 -5.98681e-16
0.0005 0.000892861 0.000745049 31.3156 -9.45748e-17 -5.57323e-16
0.0005 0.000903644 0.000745049 30.0692 -8.82684e-17 -5.25835e-16
0.0005 0.000913446 0.000745049 28.7678 -7.7826e-17 -5.00251e-16
0.0005 0.000922357 0.000745049 27.4076 -7.73743e-17 -4.7897e-16
0.0005 0.000930458 0.000745049 25.9859 -8.62357e-17 -4.60264e-16
0.0005 0.000937823 0.000745049 24.5024 -9.60837e-17 -4.43487e-16
0.0005 0.000944518 0.000745049 22.9594 -1.06639e-16 -4.25773e-16
0.0005 0.000950604 0.000745049 21.362 -1.19847e-16 -4.06411e-16
0.0005 0.000956137 0.000745049 19.7116 -1.38332e-16 -3.85217e-16
0.0005 0.000961167 0.000745049 18.0132 -1.60918e-16 -3.6093e-16
0.0005 0.00096574 0.000745049 16.2888 -1.84016e-16 -3.32797e-16
0.0005 0.000969897 0.000745049 14.5715 -2.00913e-16 -3.00936e-16
0.0005 0.000973676 0.000745049 12.8987 -2.16921e-16 -2.66832e-16
0.0005 0.000977112 0.000745049 11.3037 -2.34837e-16 -2.32462e-16
0.0005 0.000980235 0.000745049 9.80946 -2.48706e-16 -1.99859e-16
0.0005 0.000983075 0.000745049 8.42655 -2.54526e-16 -1.70405e-16
0.0005 0.000985656 0.000745049 7.15644 -2.50801e-16 -1.44826e-16
0.0005 0.000988002 0.000745049 5.99487 -2.37593e-16 -1.23119e-16
0.0005 0.000990136 0.000745049 4.93493 -2.15226e-16 -1.04924e-16
0.0005 0.000992075 0.000745049 3.96881 -1.86921e-16 -8.95761e-17
0.0005 0.000993838 0.000745049 3.0887 -1.53408e-16 -7.62148e-17
0.0005 0.000995441 0.000745049 2.28719 -1.19701e-16 -6.37217e-17
0.0005 0.000996898 0.000745049 1.55742 -8.59889e-17 -5.06601e-17
0.0005 0.000998222 0.000745049 0.893047 -4.99842e-17 -3.48301e-17
0.0005 0.000999427 0.000745049 0.288305 -1.7396e-17 -1.39207e-17
0.0005 4.59758e-05 0.000825179 49.0724 -9.25832e-17 -1.11652e-15
0.0005 0.000133748 0.000825179 48.8938 -1.01212e-16 -2.64951e-15
0.0005 0.000213541 0.000825179 48.576 -3.66119e-17 -3.10068e-15
0.0005 0.000286079 0.000825179 48.1476 -2.34833e-16 -3.09035e-15
0.0005 0.000352024 0.000825179 47.6302 -4.16937e-16 -2.92582e-15
0.0005 0.000411973 0.000825179 47.0406 -4.76023e-16 -2.71694e-15
0.0005 0.000466473 0.000825179 46.392 -4.29412e-16 -2.50002e-15
0.0005 0.000516018 0.000825179 45.6949 -3.15729e-16 -2.26626e-15
0.0005 0.000561059 0.000825179 44.9569 -2.16397e-16 -2.05559e-15
0.0005 0.000602005 0.000825179 44.1824 -1.40828e-16 -1.87169e-15
0.0005 0.000639229 0.000825179 43.3709 -4.13759e-17 -1.71669e-15
0.0005 0.000673069 0.000825179 42.5233 2.22566e-17 -1.57095e-15
0.0005 0.000703833 0.000825179 41.6444 3.8847e-17 -1.43205e-15
0.0005 0.000731799 0.000825179 40.7386 4.45454e-17 -1.30132e-15
0.0005 0.000757224 0.000825179 39.8082 4.17651e-17 -1.17947e-15
0.0005 0.000780337 0.000825179 38.8535 4.07936e-17 -1.06576e-15
0.0005 0.000801349 0.000825179 37.8735 4.16393e-17 -9.56023e-16
0.0005 0.000820451 0.000825179 36.8662 3.71348e-17 -8.48473e-16
0.0005 0.000837816 0.000825179 35.8288 2.59728e-17 -7.47604e-16
0.0005 0.000853602 0.000825179 34.758 7.81533e-18 -6.58881e-16
0.0005 0.000867954 0.000825179 33.65 -1.92689e-17 -5.85099e-16
0.0005 0.000881001 0.000825179 32.5005 -5.38449e-17 -5.26097e-16
0.0005 0.000892861 0.000825179 31.305 -9.31646e-17 -4.77524e-16
0.0005 0.000903644 0.000825179 30.0588 -1.21247e-16 -4.34897e-16
0.0005 0.000913446 0.000825179 28.7576 -1.29436e-16 -3.96098e-16
0.0005 0.000922357 0.000825179 27.3975 -1.34315e-16 -3.6154e-16
0.0005 0.000930458 0.000825179 25.9761 -1.39884e-16 -3.30345e-16
0.0005 0.000937823 0.000825179 24.4928 -1.36427e-16 -3.02045e-16
0.0005 0.000944518 0.000825179 22.9501 -1.33605e-16 -2.76279e-16
0.0005 0.000950604 0.000825179 21.3531 -1.46727e-16 -2.51858e-16
0.0005 0.000956137 0.000825179 19.703 -1.68836e-16 -2.27881e-16
0.0005 0.000961167 0.000825179 18.0051 -1.92249e-16 -2.0347e-16
0.0005 0.00096574 0.000825179 16.2812 -2.14338e-16 -1.78372e-16
0.0005 0.000969897 0.000825179 14.5644 -2.37793e-16 -1.52707e-16
0.0005 0.000973676 0.000825179 12.8923 -2.62281e-16 -1.27529e-16
0.0005 0.000977112 0.000825179 11.2981 -2.83951e-16 -1.03664e-16
0.0005 0.000980235 0.000825179 9.80454 -2.97458e-16 -8.20167e-17
0.0005 0.000983075 0.000825179 8.42232 -3.0137e-16 -6.3416e-17
0.0005 0.000985656 0.000825179 7.15283 -2.94134e-16 -4.81916e-17
0.0005 0.000988002 0.000825179 5.99185 -2.7597e-16 -3.63233e-17
0.0005 0.000990136 0.000825179 4.93245 -2.48999e-16 -2.74432e-17