# V  FACE_DATA 11045
#  x  y  z  V
0.0005 4.59758e-05 4.69794e-05 8.63968e-12
0.0005 0.000133748 4.69794e-05 7.85425e-12
0.0005 0.000213541 4.69794e-05 7.14023e-12
0.0005 0.000286079 4.69794e-05 6.49112e-12
0.0005 0.000352024 4.69794e-05 5.90101e-12
0.0005 0.000411973 4.69794e-05 5.36456e-12
0.0005 0.000466473 4.69794e-05 4.87687e-12
0.0005 0.000516018 4.69794e-05 4.43352e-12
0.0005 0.000561059 4.69794e-05 4.03047e-12
0.0005 0.000602005 4.69794e-05 3.66407e-12
0.0005 0.000639229 4.69794e-05 3.33097e-12
0.0005 0.000673069 4.69794e-05 3.02815e-12
0.0005 0.000703833 4.69794e-05 2.75287e-12
0.0005 0.000731799 4.69794e-05 2.50261e-12
0.0005 0.000757224 4.69794e-05 2.2751e-12
0.0005 0.000780337 4.69794e-05 2.06827e-12
0.0005 0.000801349 4.69794e-05 1.88025e-12
0.0005 0.000820451 4.69794e-05 1.70931e-12
0.0005 0.000837816 4.69794e-05 1.55392e-12
0.0005 0.000853602 4.69794e-05 1.41266e-12
0.0005 0.000867954 4.69794e-05 1.28423e-12
0.0005 0.000881001 4.69794e-05 1.16748e-12
0.0005 0.000892861 4.69794e-05 1.06135e-12
0.0005 0.000903644 4.69794e-05 9.64863e-13
0.0005 0.000913446 4.69794e-05 8.77148e-13
0.0005 0.000922357 4.69794e-05 7.97408e-13
0.0005 0.000930458 4.69794e-05 7.24916e-13
0.0005 0.000937823 4.69794e-05 6.59014e-13
0.0005 0.000944518 4.69794e-05 5.99104e-13
0.0005 0.000950604 4.69794e-05 5.4464e-13
0.0005 0.000956137 4.69794e-05 4.95127e-13
0.0005 0.000961167 4.69794e-05 4.50116e-13
0.0005 0.00096574 4.69794e-05 4.09196e-13
0.0005 0.000969897 4.69794e-05 3.71996e-13
0.0005 0.000973676 4.69794e-05 3.38179e-13
0.0005 0.000977112 4.69794e-05 3.07435e-13
0.0005 0.000980235 4.69794e-05 2.79486e-13
0.0005 0.000983075 4.69794e-05 2.54079e-13
0.0005 0.000985656 4.69794e-05 2.30981e-13
0.0005 0.000988002 4.69794e-05 2.09982e-13
0.0005 0.000990136 4.69794e-05 1.90893e-13
0.0005 0.000992075 4.69794e-05 1.73539e-13
0.0005 0.000993838 4.69794e-05 1.57763e-13
0.0005 0.000995441 4.69794e-05 1.43421e-13
0.0005 0.000996898 4.69794e-05 1.30383e-13
0.0005 0.000998222 4.69794e-05 1.1853e-13
0.0005 0.000999427 4.69794e-05 1.07754e-13
0.0005 4.59758e-05 0.000140066 8.47931e-12
0.0005 0.000133748 0.000140066 7.70846e-12
0.0005 0.000213541 0.000140066 7.00769e-12
0.0005 0.000286079 0.000140066 6.37063e-12
0.0005 0.000352024 0.000140066 5.79148e-12
0.0005 0.000411973 0.000140066 5.26498e-12
0.0005 0.000466473 0.000140066 4.78635e-12
0.0005 0.000516018 0.000140066 4.35123e-12
0.0005 0.000561059 0.000140066 3.95566e-12
0.0005 0.000602005 0.000140066 3.59605e-12
0.0005 0.000639229 0.000140066 3.26914e-12
0.0005 0.000673069 0.000140066 2.97195e-12
0.0005 0.000703833 0.000140066 2.70177e-12
0.0005 0.000731799 0.000140066 2.45615e-12
0.0005 0.000757224 0.000140066 2.23287e-12
0.0005 0.000780337 0.000140066 2.02988e-12
0.0005 0.000801349 0.000140066 1.84534e-12
0.0005 0.000820451 0.000140066 1.67759e-12
0.0005 0.000837816 0.000140066 1.52508e-12
0.0005 0.000853602 0.000140066 1.38643e-12
0.0005 0.000867954 0.000140066 1.2604e-12
0.0005 0.000881001 0.000140066 1.14581e-12
0.0005 0.000892861 0.000140066 1.04165e-12
0.0005 0.000903644 0.000140066 9.46954e-13
0.0005 0.000913446 0.000140066 8.60867e-13
0.0005 0.000922357 0.000140066 7.82606e-13
0.0005 0.000930458 0.000140066 7.1146e-13
0.0005 0.000937823 0.000140066 6.46782e-13
0.0005 0.000944518 0.000140066 5.87984e-13
0.0005 0.000950604 0.000140066 5.34531e-13
0.0005 0.000956137 0.000140066 4.85937e-13
0.0005 0.000961167 0.000140066 4.41761e-13
0.0005 0.00096574 0.000140066 4.01601e-13
0.0005 0.000969897 0.000140066 3.65092e-13
0.0005 0.000973676 0.000140066 3.31901e-13
0.0005 0.000977112 0.000140066 3.01729e-13
0.0005 0.000980235 0.000140066 2.74299e-13
0.0005 0.000983075 0.000140066 2.49362e-13
0.0005 0.000985656 0.000140066 2.26693e-13
0.0005 0.000988002 0.000140066 2.06085e-13
0.0005 0.000990136 0.000140066 1.8735e-13
0.0005 0.000992075 0.000140066 1.70318e-13
0.0005 0.000993838 0.000140066 1.54834e-13
0.0005 0.000995441 0.000140066 1.40759e-13
0.0005 0.000996898 0.000140066 1.27962e-13
0.0005 0.000998222 0.000140066 1.16329e-13
0.0005 0.000999427 0.000140066 1.05754e-13
0.0005 4.59758e-05 0.000231425 8.32192e-12
0.0005 0.000133748 0.000231425 7.56538e-12
0.0005 0.000213541 0.000231425 6.87762e-12
0.0005 0.000286079 0.000231425 6.25238e-12
0.0005 0.000352024 0.000231425 5.68398e-12
0.0005 0.000411973 0.000231425 5.16726e-12
0.0005 0.000466473 0.000231425 4.69751e-12
0.0005 0.000516018 0.000231425 4.27046e-12
0.0005 0.000561059 0.000231425 3.88224e-12
0.0005 0.000602005 0.000231425 3.52931e-12
0.0005 0.000639229 0.000231425 3.20846e-12
0.0005 0.000673069 0.000231425 2.91678e-12
0.0005 0.000703833 0.000231425 2.65162e-12
0.0005 0.000731799 0.000231425 2.41056e-12
0.0005 0.000757224 0.000231425 2.19142e-12
0.0005 0.000780337 0.000231425 1.9922e-12
0.0005 0.000801349 0.000231425 1.81109e-12
0.0005 0.000820451 0.000231425 1.64645e-12
0.0005 0.000837816 0.000231425 1.49677e-12
0.0005 0.000853602 0.000231425 1.3607e-12
0.0005 0.000867954 0.000231425 1.237e-12
0.0005 0.000881001 0.000231425 1.12455e-12
0.0005 0.000892861 0.000231425 1.02231e-12
0.0005 0.000903644 0.000231425 9.29376e-13
0.0005 0.000913446 0.000231425 8.44888e-13
0.0005 0.000922357 0.000231425 7.6808e-13
0.0005 0.000930458 0.000231425 6.98254e-13
0.0005 0.000937823 0.000231425 6.34777e-13
0.0005 0.000944518 0.000231425 5.7707e-13
0.0005 0.000950604 0.000231425 5.24609e-13
0.0005 0.000956137 0.000231425 4.76917e-13
0.0005 0.000961167 0.000231425 4.33561e-13
0.0005 0.00096574 0.000231425 3.94146e-13
0.0005 0.000969897 0.000231425 3.58315e-13
0.0005 0.000973676 0.000231425 3.25741e-13
0.0005 0.000977112 0.000231425 2.96128e-13
0.0005 0.000980235 0.000231425 2.69207e-13
0.0005 0.000983075 0.000231425 2.44734e-13
0.0005 0.000985656 0.000231425 2.22485e-13
0.0005 0.000988002 0.000231425 2.02259e-13
0.0005 0.000990136 0.000231425 1.83872e-13
0.0005 0.000992075 0.000231425 1.67157e-13
0.0005 0.000993838 0.000231425 1.5196e-13
0.0005 0.000995441 0.000231425 1.38146e-13
0.0005 0.000996898 0.000231425 1.25587e-13
0.0005 0.000998222 0.000231425 1.1417e-13
0.0005 0.000999427 0.000231425 1.03791e-13
0.0005 4.59758e-05 0.000321089 8.16745e-12
0.0005 0.000133748 0.000321089 7.42495e-12
0.0005 0.000213541 0.000321089 6.74996e-12
0.0005 0.000286079 0.000321089 6.13632e-12
0.0005 0.000352024 0.000321089 5.57848e-12
0.0005 0.000411973 0.000321089 5.07134e-12
0.0005 0.000466473 0.000321089 4.61031e-12
0.0005 0.000516018 0.000321089 4.19119e-12
0.0005 0.000561059 0.000321089 3.81017e-12
0.0005 0.000602005 0.000321089 3.4638e-12
0.0005 0.000639229 0.000321089 3.1489e-12
0.0005 0.000673069 0.000321089 2.86264e-12
0.0005 0.000703833 0.000321089 2.6024e-12
0.0005 0.000731799 0.000321089 2.36582e-12
0.0005 0.000757224 0.000321089 2.15074e-12
0.0005 0.000780337 0.000321089 1.95522e-12
0.0005 0.000801349 0.000321089 1.77747e-12
0.0005 0.000820451 0.000321089 1.61589e-12
0.0005 0.000837816 0.000321089 1.46899e-12
0.0005 0.000853602 0.000321089 1.33544e-12
0.0005 0.000867954 0.000321089 1.21404e-12
0.0005 0.000881001 0.000321089 1.10367e-12
0.0005 0.000892861 0.000321089 1.00334e-12
0.0005 0.000903644 0.000321089 9.12126e-13
0.0005 0.000913446 0.000321089 8.29205e-13
0.0005 0.000922357 0.000321089 7.53823e-13
0.0005 0.000930458 0.000321089 6.85293e-13
0.0005 0.000937823 0.000321089 6.22994e-13
0.0005 0.000944518 0.000321089 5.66358e-13
0.0005 0.000950604 0.000321089 5.14871e-13
0.0005 0.000956137 0.000321089 4.68065e-13
0.0005 0.000961167 0.000321089 4.25513e-13
0.0005 0.00096574 0.000321089 3.8683e-13
0.0005 0.000969897 0.000321089 3.51664e-13
0.0005 0.000973676 0.000321089 3.19694e-13
0.0005 0.000977112 0.000321089 2.90631e-13
0.0005 0.000980235 0.000321089 2.6421e-13
0.0005 0.000983075 0.000321089 2.40191e-13
0.0005 0.000985656 0.000321089 2.18356e-13
0.0005 0.000988002 0.000321089 1.98505e-13
0.0005 0.000990136 0.000321089 1.80459e-13
0.0005 0.000992075 0.000321089 1.64054e-13
0.0005 0.000993838 0.000321089 1.4914e-13
0.0005 0.000995441 0.000321089 1.35582e-13
0.0005 0.000996898 0.000321089 1.23256e-13
0.0005 0.000998222 0.000321089 1.12051e-13
0.0005 0.000999427 0.000321089 1.01865e-13
0.0005 4.59758e-05 0.000409087 8.01585e-12
0.0005 0.000133748 0.000409087 7.28713e-12
0.0005 0.000213541 0.000409087 6.62467e-12
0.0005 0.000286079 0.000409087 6.02242e-12
0.0005 0.000352024 0.000409087 5.47493e-12
0.0005 0.000411973 0.000409087 4.97721e-12
0.0005 0.000466473 0.000409087 4.52474e-12
0.0005 0.000516018 0.000409087 4.1134e-12
0.0005 0.000561059 0.000409087 3.73945e-12
0.0005 0.000602005 0.000409087 3.3995e-12
0.0005 0.000639229 0.000409087 3.09046e-12
0.0005 0.000673069 0.000409087 2.80951e-12
0.0005 0.000703833 0.000409087 2.5541e-12
0.0005 0.000731799 0.000409087 2.32191e-12
0.0005 0.000757224 0.000409087 2.11082e-12
0.0005 0.000780337 0.000409087 1.91893e-12
0.0005 0.000801349 0.000409087 1.74448e-12
0.0005 0.000820451 0.000409087 1.58589e-12
0.0005 0.000837816 0.000409087 1.44172e-12
0.0005 0.000853602 0.000409087 1.31065e-12
0.0005 0.000867954 0.000409087 1.1915e-12
0.0005 0.000881001 0.000409087 1.08319e-12
0.0005 0.000892861 0.000409087 9.84714e-13
0.0005 0.000903644 0.000409087 8.95195e-13
0.0005 0.000913446 0.000409087 8.13814e-13
0.0005 0.000922357 0.000409087 7.3983e-13
0.0005 0.000930458 0.000409087 6.72573e-13
0.0005 0.000937823 0.000409087 6.1143e-13
0.0005 0.000944518 0.000409087 5.55846e-13
0.0005 0.000950604 0.000409087 5.05314e-13
0.0005 0.000956137 0.000409087 4.59377e-13
0.0005 0.000961167 0.000409087 4.17615e-13
0.0005 0.00096574 0.000409087 3.7965e-13
0.0005 0.000969897 0.000409087 3.45136e-13
0.0005 0.000973676 0.000409087 3.1376e-13
0.0005 0.000977112 0.000409087 2.85237e-13
0.0005 0.000980235 0.000409087 2.59306e-13
0.0005 0.000983075 0.000409087 2.35733e-13
0.0005 0.000985656 0.000409087 2.14303e-13
0.0005 0.000988002 0.000409087 1.9482e-13
0.0005 0.000990136 0.000409087 1.7711e-13
0.0005 0.000992075 0.000409087 1.61009e-13
0.0005 0.000993838 0.000409087 1.46372e-13
0.0005 0.000995441 0.000409087 1.33065e-13
0.0005 0.000996898 0.000409087 1.20968e-13
0.0005 0.000998222 0.000409087 1.09971e-13
0.0005 0.000999427 0.000409087 9.99737e-14
0.0005 4.59758e-05 0.000495453 7.86706e-12
0.0005 0.000133748 0.000495453 7.15187e-12
0.0005 0.000213541 0.000495453 6.5017e-12
0.0005 0.000286079 0.000495453 5.91064e-12
0.0005 0.000352024 0.000495453 5.37331e-12
0.0005 0.000411973 0.000495453 4.88482e-12
0.0005 0.000466473 0.000495453 4.44075e-12
0.0005 0.000516018 0.000495453 4.03704e-12
0.0005 0.000561059 0.000495453 3.67004e-12
0.0005 0.000602005 0.000495453 3.3364e-12
0.0005 0.000639229 0.000495453 3.03309e-12
0.0005 0.000673069 0.000495453 2.75736e-12
0.0005 0.000703833 0.000495453 2.50669e-12
0.0005 0.000731799 0.000495453 2.27881e-12
0.0005 0.000757224 0.000495453 2.07164e-12
0.0005 0.000780337 0.000495453 1.88331e-12
0.0005 0.000801349 0.000495453 1.7121e-12
0.0005 0.000820451 0.000495453 1.55646e-12
0.0005 0.000837816 0.000495453 1.41496e-12
0.0005 0.000853602 0.000495453 1.28633e-12
0.0005 0.000867954 0.000495453 1.16939e-12
0.0005 0.000881001 0.000495453 1.06308e-12
0.0005 0.000892861 0.000495453 9.66436e-13
0.0005 0.000903644 0.000495453 8.78579e-13
0.0005 0.000913446 0.000495453 7.98708e-13
0.0005 0.000922357 0.000495453 7.26098e-13
0.0005 0.000930458 0.000495453 6.60089e-13
0.0005 0.000937823 0.000495453 6.00081e-13
0.0005 0.000944518 0.000495453 5.45528e-13
0.0005 0.000950604 0.000495453 4.95935e-13
0.0005 0.000956137 0.000495453 4.5085e-13
0.0005 0.000961167 0.000495453 4.09863e-13
0.0005 0.00096574 0.000495453 3.72603e-13
0.0005 0.000969897 0.000495453 3.3873e-13
0.0005 0.000973676 0.000495453 3.07936e-13
0.0005 0.000977112 0.000495453 2.79942e-13
0.0005 0.000980235 0.000495453 2.54493e-13
0.0005 0.000983075 0.000495453 2.31357e-13
0.0005 0.000985656 0.000495453 2.10325e-13
0.0005 0.000988002 0.000495453 1.91204e-13
0.0005 0.000990136 0.000495453 1.73822e-13
0.0005 0.000992075 0.000495453 1.5802e-13
0.0005 0.000993838 0.000495453 1.43655e-13
0.0005 0.000995441 0.000495453 1.30595e-13
0.0005 0.000996898 0.000495453 1.18723e-13
0.0005 0.000998222 0.000495453 1.0793e-13
0.0005 0.000999427 0.000495453 9.8118e-14
0.0005 4.59758e-05 0.000580215 7.72103e-12
0.0005 0.000133748 0.000580215 7.01912e-12
0.0005 0.000213541 0.000580215 6.38102e-12
0.0005 0.000286079 0.000580215 5.80093e-12
0.0005 0.000352024 0.000580215 5.27357e-12
0.0005 0.000411973 0.000580215 4.79415e-12
0.0005 0.000466473 0.000580215 4.35832e-12
0.0005 0.000516018 0.000580215 3.96211e-12
0.0005 0.000561059 0.000580215 3.60192e-12
0.0005 0.000602005 0.000580215 3.27447e-12
0.0005 0.000639229 0.000580215 2.97679e-12
0.0005 0.000673069 0.000580215 2.70617e-12
0.0005 0.000703833 0.000580215 2.46016e-12
0.0005 0.000731799 0.000580215 2.23651e-12
0.0005 0.000757224 0.000580215 2.03319e-12
0.0005 0.000780337 0.000580215 1.84835e-12
0.0005 0.000801349 0.000580215 1.68032e-12
0.0005 0.000820451 0.000580215 1.52756e-12
0.0005 0.000837816 0.000580215 1.3887e-12
0.0005 0.000853602 0.000580215 1.26245e-12
0.0005 0.000867954 0.000580215 1.14768e-12
0.0005 0.000881001 0.000580215 1.04335e-12
0.0005 0.000892861 0.000580215 9.48498e-13
0.0005 0.000903644 0.000580215 8.62271e-13
0.0005 0.000913446 0.000580215 7.83882e-13
0.0005 0.000922357 0.000580215 7.1262e-13
0.0005 0.000930458 0.000580215 6.47837e-13
0.0005 0.000937823 0.000580215 5.88942e-13
0.0005 0.000944518 0.000580215 5.35402e-13
0.0005 0.000950604 0.000580215 4.86729e-13
0.0005 0.000956137 0.000580215 4.42481e-13
0.0005 0.000961167 0.000580215 4.02256e-13
0.0005 0.00096574 0.000580215 3.65687e-13
0.0005 0.000969897 0.000580215 3.32443e-13
0.0005 0.000973676 0.000580215 3.02221e-13
0.0005 0.000977112 0.000580215 2.74746e-13
0.0005 0.000980235 0.000580215 2.49769e-13
0.0005 0.000983075 0.000580215 2.27063e-13
0.0005 0.000985656 0.000580215 2.06421e-13
0.0005 0.000988002 0.000580215 1.87655e-13
0.0005 0.000990136 0.000580215 1.70596e-13
0.0005 0.000992075 0.000580215 1.55087e-13
0.0005 0.000993838 0.000580215 1.40988e-13
0.0005 0.000995441 0.000580215 1.28171e-13
0.0005 0.000996898 0.000580215 1.16519e-13
0.0005 0.000998222 0.000580215 1.05926e-13
0.0005 0.000999427 0.000580215 9.62968e-14
0.0005 4.59758e-05 0.000663404 7.57772e-12
0.0005 0.000133748 0.000663404 6.88883e-12
0.0005 0.000213541 0.000663404 6.26257e-12
0.0005 0.000286079 0.000663404 5.69325e-12
0.0005 0.000352024 0.000663404 5.17568e-12
0.0005 0.000411973 0.000663404 4.70517e-12
0.0005 0.000466473 0.000663404 4.27742e-12
0.0005 0.000516018 0.000663404 3.88857e-12
0.0005 0.000561059 0.000663404 3.53506e-12
0.0005 0.000602005 0.000663404 3.21369e-12
0.0005 0.000639229 0.000663404 2.92154e-12
0.0005 0.000673069 0.000663404 2.65594e-12
0.0005 0.000703833 0.000663404 2.41449e-12
0.0005 0.000731799 0.000663404 2.19499e-12
0.0005 0.000757224 0.000663404 1.99545e-12
0.0005 0.000780337 0.000663404 1.81404e-12
0.0005 0.000801349 0.000663404 1.64913e-12
0.0005 0.000820451 0.000663404 1.49921e-12
0.0005 0.000837816 0.000663404 1.36292e-12
0.0005 0.000853602 0.000663404 1.23902e-12
0.0005 0.000867954 0.000663404 1.12638e-12
0.0005 0.000881001 0.000663404 1.02398e-12
0.0005 0.000892861 0.000663404 9.30892e-13
0.0005 0.000903644 0.000663404 8.46265e-13
0.0005 0.000913446 0.000663404 7.69332e-13
0.0005 0.000922357 0.000663404 6.99393e-13
0.0005 0.000930458 0.000663404 6.35812e-13
0.0005 0.000937823 0.000663404 5.78011e-13
0.0005 0.000944518 0.000663404 5.25464e-13
0.0005 0.000950604 0.000663404 4.77695e-13
0.0005 0.000956137 0.000663404 4.34268e-13
0.0005 0.000961167 0.000663404 3.94789e-13
0.0005 0.00096574 0.000663404 3.58899e-13
0.0005 0.000969897 0.000663404 3.26272e-13
0.0005 0.000973676 0.000663404 2.96611e-13
0.0005 0.000977112 0.000663404 2.69646e-13
0.0005 0.000980235 0.000663404 2.45133e-13
0.0005 0.000983075 0.000663404 2.22848e-13
0.0005 0.000985656 0.000663404 2.02589e-13
0.0005 0.000988002 0.000663404 1.84172e-13
0.0005 0.000990136 0.000663404 1.67429e-13
0.0005 0.000992075 0.000663404 1.52208e-13
0.0005 0.000993838 0.000663404 1.38371e-13
0.0005 0.000995441 0.000663404 1.25792e-13
0.0005 0.000996898 0.000663404 1.14356e-13
0.0005 0.000998222 0.000663404 1.0396e-13
0.0005 0.000999427 0.000663404 9.45094e-14
0.0005 4.59758e-05 0.000745049 7.43706e-12
0.0005 0.000133748 0.000745049 6.76096e-12
0.0005 0.000213541 0.000745049 6.14633e-12
0.0005 0.000286079 0.000745049 5.58757e-12
0.0005 0.000352024 0.000745049 5.07961e-12
0.0005 0.000411973 0.000745049 4.61783e-12
0.0005 0.000466473 0.000745049 4.19803e-12
0.0005 0.000516018 0.000745049 3.81639e-12
0.0005 0.000561059 0.000745049 3.46944e-12
0.0005 0.000602005 0.000745049 3.15404e-12
0.0005 0.000639229 0.000745049 2.86731e-12
0.0005 0.000673069 0.000745049 2.60664e-12
0.0005 0.000703833 0.000745049 2.36968e-12
0.0005 0.000731799 0.000745049 2.15425e-12
0.0005 0.000757224 0.000745049 1.95841e-12
0.0005 0.000780337 0.000745049 1.78037e-12
0.0005 0.000801349 0.000745049 1.61852e-12
0.0005 0.000820451 0.000745049 1.47138e-12
0.0005 0.000837816 0.000745049 1.33762e-12
0.0005 0.000853602 0.000745049 1.21602e-12
0.0005 0.000867954 0.000745049 1.10547e-12
0.0005 0.000881001 0.000745049 1.00497e-12
0.0005 0.000892861 0.000745049 9.13613e-13
0.0005 0.000903644 0.000745049 8.30557e-13
0.0005 0.000913446 0.000745049 7.55052e-13
0.0005 0.000922357 0.000745049 6.86411e-13
0.0005 0.000930458 0.000745049 6.2401e-13
0.0005 0.000937823 0.000745049 5.67282e-13
0.0005 0.000944518 0.000745049 5.15711e-13
0.0005 0.000950604 0.000745049 4.68828e-13
0.0005 0.000956137 0.000745049 4.26207e-13
0.0005 0.000961167 0.000745049 3.87461e-13
0.0005 0.00096574 0.000745049 3.52237e-13
0.0005 0.000969897 0.000745049 3.20216e-13
0.0005 0.000973676 0.000745049 2.91105e-13
0.0005 0.000977112 0.000745049 2.64641e-13
0.0005 0.000980235 0.000745049 2.40583e-13
0.0005 0.000983075 0.000745049 2.18712e-13
0.0005 0.000985656 0.000745049 1.98829e-13
0.0005 0.000988002 0.000745049 1.80753e-13
0.0005 0.000990136 0.000745049 1.64321e-13
0.0005 0.000992075 0.000745049 1.49383e-13
0.0005 0.000993838 0.000745049 1.35803e-13
0.0005 0.000995441 0.000745049 1.23457e-13
0.0005 0.000996898 0.000745049 1.12234e-13
0.0005 0.000998222 0.000745049 1.02031e-13
0.0005 0.000999427 0.000745049 9.27551e-14
0.0005 4.59758e-05 0.000825179 7.29901e-12
0.0005 0.000133748 0.000825179 6.63547e-12
0.0005 0.000213541 0.000825179 6.03224e-12
0.0005 0.000286079 0.000825179 5.48386e-12
0.0005 0.000352024 0.000825179 4.98533e-12
0.0005 0.000411973 0.000825179 4.53211e-12
0.0005 0.000466473 0.000825179 4.1201e-12
0.0005 0.000516018 0.000825179 3.74555e-12
0.0005 0.000561059 0.000825179 3.40504e-12
0.0005 0.000602005 0.000825179 3.09549e-12
0.0005 0.000639229 0.000825179 2.81409e-12
0.0005 0.000673069 0.000825179 2.55826e-12
0.0005 0.000703833 0.000825179 2.32569e-12
0.0005 0.000731799 0.000825179 2.11426e-12
0.0005 0.000757224 0.000825179 1.92206e-12
0.0005 0.000780337 0.000825179 1.74733e-12
0.0005 0.000801349 0.000825179 1.58848e-12
0.0005 0.000820451 0.000825179 1.44407e-12
0.0005 0.000837816 0.000825179 1.31279e-12
0.0005 0.000853602 0.000825179 1.19345e-12
0.0005 0.000867954 0.000825179 1.08495e-12
0.0005 0.000881001 0.000825179 9.8632e-13
0.0005 0.000892861 0.000825179 8.96655e-13
0.0005 0.000903644 0.000825179 8.15141e-13
0.0005 0.000913446 0.000825179 7.41037e-13
0.0005 0.000922357 0.000825179 6.7367e-13
0.0005 0.000930458 0.000825179 6.12427e-13
0.0005 0.000937823 0.000825179 5.56752e-13
0.0005 0.000944518 0.000825179 5.06138e-13
0.0005 0.000950604 0.000825179 4.60126e-13
0.0005 0.000956137 0.000825179 4.18296e-13
0.0005 0.000961167 0.000825179 3.80269e-13
0.0005 0.00096574 0.000825179 3.45699e-13
0.0005 0.000969897 0.000825179 3.14272e-13
0.0005 0.000973676 0.000825179 2.85702e-13
0.0005 0.000977112 0.000825179 2.59729e-13
0.0005 0.000980235 0.000825179 2.36117e-13
0.0005 0.000983075 0.000825179 2.14652e-13
0.0005 0.000985656 0.000825179 1.95138e-13
0.0005 0.000988002 0.000825179 1.77398e-13
0.0005 0.000990136 0.000825179 1.61271e-13
0.0005 0.000992075 0.000825179 1.4661e-13
0.0005 0.000993838 0.000825179 1.33282e-13
0.0005 0.000995441 0.000825179 1.21165e-13
0.0005 0.000996898 0.000825179 1.1015e-13
0.0005 0.000998222 0.000825179 1.00137e-13
0.0005 0.000999427 0.000825179 9.10334e-14
0.0005 4.59758e-05 0.000903821 7.16353e-12
0.0005 0.000133748 0.000903821 6.5123e-12
0.0005 0.000213541 0.000903821 5.92027e-12
0.0005 0.000286079 0.000903821 5.38207e-12
0.0005 0.000352024 0.000903821 4.89279e-12
0.0005 0.000411973 0.000903821 4.44799e-12
0.0005 0.000466473 0.000903821 4.04363e-12
0.0005 0.000516018 0.000903821 3.67602e-12
0.0005 0.000561059 0.000903821 3.34184e-12
0.0005 0.000602005 0.000903821 3.03804e-12
0.0005 0.000639229 0.000903821 2.76185e-12
0.0005 0.000673069 0.000903821 2.51077e-12
0.0005 0.000703833 0.000903821 2.28252e-12
0.0005 0.000731799 0.000903821 2.07502e-12
0.0005 0.000757224 0.000903821 1.88638e-12
0.0005 0.000780337 0.000903821 1.71489e-12
0.0005 0.000801349 0.000903821 1.55899e-12
0.0005 0.000820451 0.000903821 1.41727e-12
0.0005 0.000837816 0.000903821 1.28842e-12
0.0005 0.000853602 0.000903821 1.17129e-12
0.0005 0.000867954 0.000903821 1.06481e-12
0.0005 0.000881001 0.000903821 9.68012e-13
0.0005 0.000892861 0.000903821 8.80011e-13
0.0005 0.000903644 0.000903821 8.0001e-13
0.0005 0.000913446 0.000903821 7.27282e-13
0.0005 0.000922357 0.000903821 6.61165e-13
0.0005 0.000930458 0.000903821 6.01059e-13
0.0005 0.000937823 0.000903821 5.46418e-13
0.0005 0.000944518 0.000903821 4.96743e-13
0.0005 0.000950604 0.000903821 4.51585e-13
0.0005 0.000956137 0.000903821 4.10532e-13
0.0005 0.000961167 0.000903821 3.73211e-13
0.0005 0.00096574 0.000903821 3.39282e-13
0.0005 0.000969897 0.000903821 3.08439e-13
0.0005 0.000973676 0.000903821 2.80399e-13
0.0005 0.000977112 0.000903821 2.54908e-13
0.0005 0.000980235 0.000903821 2.31734e-13
0.0005 0.000983075 0.000903821 2.10668e-13
0.0005 0.000985656 0.000903821 1.91516e-13
0.0005 0.000988002 0.000903821 1.74106e-13
0.0005 0.000990136 0.000903821 1.58278e-13
0.0005 0.000992075 0.000903821 1.43889e-13
0.0005 0.000993838 0.000903821 1.30808e-13
0.0005 0.000995441 0.000903821 1.18916e-13
0.0005 0.000996898 0.000903821 1.08106e-13
0.0005 0.000998222 0.000903821 9.8278e-14
0.0005 0.000999427 0.000903821 8.93437e-14
0.0005 4.59758e-05 0.000981003 7.03056e-12
0.0005 0.000133748 0.000981003 6.39142e-12
0.0005 0.000213541 0.000981003 5.81038e-12
0.0005 0.000286079 0.000981003 5.28217e-12
0.0005 0.000352024 0.000981003 4.80197e-12
0.0005 0.000411973 0.000981003 4.36543e-12
0.0005 0.000466473 0.000981003 3.96857e-12
0.0005 0.000516018 0.000981003 3.60779e-12
0.0005 0.000561059 0.000981003 3.27981e-12
0.0005 0.000602005 0.000981003 2.98165e-12
0.0005 0.000639229 0.000981003 2.71059e-12
0.0005 0.000673069 0.000981003 2.46417e-12
0.0005 0.000703833 0.000981003 2.24015e-12
0.0005 0.000731799 0.000981003 2.0365e-12
0.0005 0.000757224 0.000981003 1.85137e-12
0.0005 0.000780337 0.000981003 1.68306e-12
0.0005 0.000801349 0.000981003 1.53006e-12
0.0005 0.000820451 0.000981003 1.39096e-12
0.0005 0.000837816 0.000981003 1.26451e-12
0.0005 0.000853602 0.000981003 1.14955e-12
0.0005 0.000867954 0.000981003 1.04505e-12
0.0005 0.000881001 0.000981003 9.50044e-13
0.0005 0.000892861 0.000981003 8.63677e-13
0.0005 0.000903644 0.000981003 7.8516e-13
0.0005 0.000913446 0.000981003 7.13782e-13
0.0005 0.000922357 0.000981003 6.48893e-13
0.0005 0.000930458 0.000981003 5.89903e-13
0.0005 0.000937823 0.000981003 5.36275e-13
0.0005 0.000944518 0.000981003 4.87523e-13
0.0005 0.000950604 0.000981003 4.43203e-13
0.0005 0.000956137 0.000981003 4.02911e-13
0.0005 0.000961167 0.000981003 3.66283e-13
0.0005 0.00096574 0.000981003 3.32985e-13
0.0005 0.000969897 0.000981003 3.02713e-13
0.0005 0.000973676 0.000981003 2.75194e-13
0.0005 0.000977112 0.000981003 2.50176e-13
0.0005 0.000980235 0.000981003 2.27433e-13
0.0005 0.000983075 0.000981003 2.06757e-13
0.0005 0.000985656 0.000981003 1.87961e-13
0.0005 0.000988002 0.000981003 1.70874e-13
0.0005 0.000990136 0.000981003 1.5534e-13
0.0005 0.000992075 0.000981003 1.41218e-13
0.0005 0.000993838 0.000981003 1.2838e-13
0.0005 0.000995441 0.000981003 1.16709e-13
0.0005 0.000996898 0.000981003 1.06099e-13
0.0005 0.000998222 0.000981003 9.64538e-14
0.0005 0.000999427 0.000981003 8.76853e-14
0.0005 4.59758e-05 0.00105675 6.90006e-12
0.0005 0.000133748 0.00105675 6.27279e-12
0.0005 0.000213541 0.00105675 5.70253e-12
0.0005 0.000286079 0.00105675 5.18412e-12
0.0005 0.000352024 0.00105675 4.71284e-12
0.0005 0.000411973 0.00105675 4.2844e-12
0.0005 0.000466473 0.00105675 3.89491e-12
0.0005 0.000516018 0.00105675 3.54082e-12
0.0005 0.000561059 0.00105675 3.21893e-12
0.0005 0.000602005 0.00105675 2.9263e-12
0.0005 0.000639229 0.00105675 2.66027e-12
0.0005 0.000673069 0.00105675 2.41843e-12
0.0005 0.000703833 0.00105675 2.19857e-12
0.0005 0.000731799 0.00105675 1.9987e-12
0.0005 0.000757224 0.00105675 1.817e-12
0.0005 0.000780337 0.00105675 1.65182e-12
0.0005 0.000801349 0.00105675 1.50166e-12
0.0005 0.000820451 0.00105675 1.36514e-12
0.0005 0.000837816 0.00105675 1.24104e-12
0.0005 0.000853602 0.00105675 1.12822e-12
0.0005 0.000867954 0.00105675 1.02565e-12
0.0005 0.000881001 0.00105675 9.3241e-13
0.0005 0.000892861 0.00105675 8.47645e-13
0.0005 0.000903644 0.00105675 7.70587e-13
0.0005 0.000913446 0.00105675 7.00533e-13
0.0005 0.000922357 0.00105675 6.36848e-13
0.0005 0.000930458 0.00105675 5.78953e-13
0.0005 0.000937823 0.00105675 5.26321e-13
0.0005 0.000944518 0.00105675 4.78474e-13
0.0005 0.000950604 0.00105675 4.34976e-13
0.0005 0.000956137 0.00105675 3.95433e-13
0.0005 0.000961167 0.00105675 3.59484e-13
0.0005 0.00096574 0.00105675 3.26804e-13
0.0005 0.000969897 0.00105675 2.97094e-13
0.0005 0.000973676 0.00105675 2.70086e-13
0.0005 0.000977112 0.00105675 2.45533e-13
0.0005 0.000980235 0.00105675 2.23211e-13
0.0005 0.000983075 0.00105675 2.0292e-13
0.0005 0.000985656 0.00105675 1.84472e-13
0.0005 0.000988002 0.00105675 1.67702e-13
0.0005 0.000990136 0.00105675 1.52456e-13
0.0005 0.000992075 0.00105675 1.38597e-13
0.0005 0.000993838 0.00105675 1.25997e-13
0.0005 0.000995441 0.00105675 1.14543e-13
0.0005 0.000996898 0.00105675 1.0413e-13
0.0005 0.000998222 0.00105675 9.46634e-14
0.0005 0.000999427 0.00105675 8.60577e-14
0.0005 4.59758e-05 0.0011311 6.77199e-12
0.0005 0.000133748 0.0011311 6.15635e-12
0.0005 0.000213541 0.0011311 5.59668e-12
0.0005 0.000286079 0.0011311 5.08789e-12
0.0005 0.000352024 0.0011311 4.62536e-12
0.0005 0.000411973 0.0011311 4.20487e-12
0.0005 0.000466473 0.0011311 3.82261e-12
0.0005 0.000516018 0.0011311 3.4751e-12
0.0005 0.000561059 0.0011311 3.15918e-12
0.0005 0.000602005 0.0011311 2.87198e-12
0.0005 0.000639229 0.0011311 2.61089e-12
0.0005 0.000673069 0.0011311 2.37354e-12
0.0005 0.000703833 0.0011311 2.15776e-12
0.0005 0.000731799 0.0011311 1.9616e-12
0.0005 0.000757224 0.0011311 1.78328e-12
0.0005 0.000780337 0.0011311 1.62116e-12
0.0005 0.000801349 0.0011311 1.47378e-12
0.0005 0.000820451 0.0011311 1.3398e-12
0.0005 0.000837816 0.0011311 1.218e-12
0.0005 0.000853602 0.0011311 1.10727e-12
0.0005 0.000867954 0.0011311 1.00661e-12
0.0005 0.000881001 0.0011311 9.15103e-13
0.0005 0.000892861 0.0011311 8.31911e-13
0.0005 0.000903644 0.0011311 7.56283e-13
0.0005 0.000913446 0.0011311 6.8753e-13
0.0005 0.000922357 0.0011311 6.25027e-13
0.0005 0.000930458 0.0011311 5.68207e-13
0.0005 0.000937823 0.0011311 5.16552e-13
0.0005 0.000944518 0.0011311 4.69592e-13
0.0005 0.000950604 0.0011311 4.26902e-13
0.0005 0.000956137 0.0011311 3.88093e-13
0.0005 0.000961167 0.0011311 3.52812e-13
0.0005 0.00096574 0.0011311 3.20738e-13
0.0005 0.000969897 0.0011311 2.9158e-13
0.0005 0.000973676 0.0011311 2.65073e-13
0.0005 0.000977112 0.0011311 2.40975e-13
0.0005 0.000980235 0.0011311 2.19068e-13
0.0005 0.000983075 0.0011311 1.99153e-13
0.0005 0.000985656 0.0011311 1.81048e-13
0.0005 0.000988002 0.0011311 1.64589e-13
0.0005 0.000990136 0.0011311 1.49627e-13
0.0005 0.000992075 0.0011311 1.36024e-13
0.0005 0.000993838 0.0011311 1.23658e-13
0.0005 0.000995441 0.0011311 1.12417e-13
0.0005 0.000996898 0.0011311 1.02197e-13
0.0005 0.000998222 0.0011311 9.29063e-14
0.0005 0.000999427 0.0011311 8.44603e-14
0.0005 4.59758e-05 0.00120406 6.64629e-12
0.0005 0.000133748 0.00120406 6.04208e-12
0.0005 0.000213541 0.00120406 5.4928e-12
0.0005 0.000286079 0.00120406 4.99345e-12
0.0005 0.000352024 0.00120406 4.5395e-12
0.0005 0.000411973 0.00120406 4.12682e-12
0.0005 0.000466473 0.00120406 3.75166e-12
0.0005 0.000516018 0.00120406 3.4106e-12
0.0005 0.000561059 0.00120406 3.10054e-12
0.0005 0.000602005 0.00120406 2.81867e-12
0.0005 0.000639229 0.00120406 2.56243e-12
0.0005 0.000673069 0.00120406 2.32948e-12
0.0005 0.000703833 0.00120406 2.11771e-12
0.0005 0.000731799 0.00120406 1.92519e-12
0.0005 0.000757224 0.00120406 1.75018e-12
0.0005 0.000780337 0.00120406 1.59107e-12
0.0005 0.000801349 0.00120406 1.44643e-12
0.0005 0.000820451 0.00120406 1.31493e-12
0.0005 0.000837816 0.00120406 1.19539e-12
0.0005 0.000853602 0.00120406 1.08672e-12
0.0005 0.000867954 0.00120406 9.87928e-13
0.0005 0.000881001 0.00120406 8.98117e-13
0.0005 0.000892861 0.00120406 8.1647e-13
0.0005 0.000903644 0.00120406 7.42245e-13
0.0005 0.000913446 0.00120406 6.74768e-13
0.0005 0.000922357 0.00120406 6.13426e-13
0.0005 0.000930458 0.00120406 5.5766e-13
0.0005 0.000937823 0.00120406 5.06963e-13
0.0005 0.000944518 0.00120406 4.60876e-13
0.0005 0.000950604 0.00120406 4.18978e-13
0.0005 0.000956137 0.00120406 3.80889e-13
0.0005 0.000961167 0.00120406 3.46263e-13
0.0005 0.00096574 0.00120406 3.14784e-13
0.0005 0.000969897 0.00120406 2.86168e-13
0.0005 0.000973676 0.00120406 2.60152e-13
0.0005 0.000977112 0.00120406 2.36502e-13
0.0005 0.000980235 0.00120406 2.15002e-13
0.0005 0.000983075 0.00120406 1.95456e-13
0.0005 0.000985656 0.00120406 1.77688e-13
0.0005 0.000988002 0.00120406 1.61534e-13
0.0005 0.000990136 0.00120406 1.46849e-13
0.0005 0.000992075 0.00120406 1.33499e-13
0.0005 0.000993838 0.00120406 1.21363e-13
0.0005 0.000995441 0.00120406 1.1033e-13
0.0005 0.000996898 0.00120406 1.003e-13