8 	0.449800494007594 	1.04083408558608e-17 	0.193910629164755 	-0.00421718274371343 	-6.2616356390161e-17
8 	0.474114843779107 	1.38777878078145e-17 	0.203406021940562 	-0.00448277557256692 	-5.41936433282893e-17
8 	0.499319391073293 	1.73472347597681e-17 	0.213497495057164 	-0.00472585449743577 	-3.07686385229479e-22
8 	0.525446707722053 	1.73472347597681e-17 	0.22422873682778 	-0.0049395144596916 	-1.86509160684728e-21
8 	0.552530555779473 	2.08166817117217e-17 	0.235643994356574 	-0.00511587202688434 	3.04112439466247e-21
8 	0.580605930890188 	1.38777878078145e-17 	0.247787386779595 	-0.00524580798685448 	7.38284484308472e-21
8 	0.609709107227805 	3.46944695195361e-18 	0.260702280575375 	-0.00531932054852853 	7.79921149623775e-21
8 	0.639877684059386 	0 	0.274480317871949 	-0.00532769775006865 	-1.11736881332213e-22
8 	0.67115063399385 	6.93889390390723e-18 	0.289393430873836 	-0.0052621141843748 	-6.43669963143703e-21
8 	0.703568352974193 	1.38777878078145e-17 	0.305807562224581 	-0.00511088544476437 	2.44288191284438e-17
8 	0.737172712075406 	2.08166817117217e-17 	0.323900233559616 	-0.0048597002328065 	2.15686223106262e-17
8 	0.772007111172108 	2.77555756156289e-17 	0.343624008344459 	-0.0044948458980131 	-2.53703267335664e-17
8 	0.808116534542015 	2.42861286636753e-17 	0.364800652584004 	-0.00400870248511623 	-2.24098817070922e-17
8 	0.845547608473645 	2.25514051876985e-17 	0.387213754259082 	-0.00340097477971168 	2.45458917404047e-20
8 	0.88434866094888 	2.08166817117217e-17 	0.410662971356626 	-0.00267598469351115 	1.68478891684783e-20
8 	0.924569783473378 	2.08166817117217e-17 	0.434974618717769 	-0.00184012412200421 	-1.19396529093643e-20
8 	0.966262895130215 	2.60208521396521e-17 	0.459983693525624 	-0.000901486676065631 	1.18326022640336e-20
8 	1.00948180893461 	2.94902990916057e-17 	0.485508376444654 	0.000128667847839006 	-1.29224597577524e-20
8 	1.05428230057009 	2.77555756156289e-17 	0.511333270793069 	0.00123400679937841 	1.70576789813025e-20
8 	1.10072217958909 	2.08166817117217e-17 	0.53720913285885 	0.00239212298027682 	-1.51608955636818e-20
8 	1.1488613631635 	1.99493199737333e-17 	0.562868633951969 	0.00357513578493131 	1.6955551661693e-20
8 	1.19876195247359 	2.25514051876985e-17 	0.588051697167193 	0.00475175696563885 	-3.43350817193415e-20
8 	1.25048831182624 	2.86229373536173e-17 	0.61253236361438 	0.00589055014982129 	1.36900507095594e-21
8 	1.30410715059639 	3.68628738645072e-17 	0.636138689620347 	0.0069628772730494 	2.37816563657985e-23
8 	1.35968760808855 	3.68628738645072e-17 	0.658763614503486 	0.00794566343527097 	-3.8782750687735e-20
8 	1.41730134141771 	3.46944695195361e-17 	0.680355078871432 	0.00882496992487935 	2.75326195908872e-20
8 	1.4770226165126 	3.81639164714898e-17 	0.700952938526153 	0.00959084162713523 	1.6194848970894e-21
8 	1.5389284023465 	3.81639164714898e-17 	0.720633410669709 	0.0102410635185048 	8.76808410947211e-21
8 	1.60309846850441 	3.81639164714898e-17 	0.739482782043852 	0.0107774669201431 	2.18339486078374e-21
8 	1.66961548619803 	4.16333634234434e-17 	0.757586523408999 	0.0112036380446509 	2.14395761001029e-20
8 	1.73856513284325 	4.16333634234434e-17 	0.775020546631071 	0.0115241113755838 	2.28304033371874e-20
8 	1.81003620031769 	3.81639164714898e-17 	0.791846102246406 	0.0117447308907279 	7.38852615795776e-21
8 	1.88412070701905 	3.12250225675825e-17 	0.80810599829999 	0.0118705984108981 	4.18540970146881e-20
8 	1.96091401384792 	2.77555756156289e-17 	0.823809590666445 	0.0118985637330338 	1.20283459072827e-20
8 	2.04004996790234 	2.08166817117217e-17 	0.838820767601896 	0.0118496203816618 	4.19384972678577e-21
8 	2.11873460271874 	1.38777878078145e-17 	0.852717072160809 	0.0117315575590064 	0
8 	2.19463865000284 	1.38777878078145e-17 	0.865207601108037 	0.0115497075670248 	0
8 	2.26786037121375 	1.38777878078145e-17 	0.876333290761231 	0.011319637418916 	0
8 	2.33849455540975 	1.38777878078145e-17 	0.886176119299237 	0.011053694780168 	0
8 	2.40663264195736 	1.38777878078145e-17 	0.894814312830173 	0.0107615996459982 	0
8 	2.47236283890404 	1.38777878078145e-17 	0.902377783369074 	0.0104581838998017 	0
8 	2.5357702371677 	1.38777878078145e-17 	0.909093810438748 	0.0101607111213118 	0
8 	2.59693692069107 	1.38777878078145e-17 	0.915163049500039 	0.00987787624144206 	2.62305020307962e-16
8 	2.65594207270333 	1.38777878078145e-17 	0.920666822135115 	0.00961354829384499 	7.53388958327272e-16
8 	2.71286207822658 	1.38777878078145e-17 	0.925632241860302 	0.00936367198878506 	-7.73511535057409e-16
8 	2.76777062295999 	1.38777878078145e-17 	0.930082170051326 	0.00912462017396704 	-2.65697644570779e-16
8 	2.82073878866949 	1.38777878078145e-17 	0.934041657801998 	0.0088943351864326 	0
8 	2.87183514520654 	1.38777878078145e-17 	0.937535766554264 	0.0086714212688584 	0
8 	2.92112583927514 	6.93889390390723e-18 	0.940588129229131 	0.00845489813246812 	0
8 	2.96867468006189 	0 	0.94322007802965 	0.00824408112340947 	0
