# Probe 0 (0.0005 0.0001 0.001)
# Probe 1 (0.0005 0.0001 0.009)
# Probe 2 (0.0005 0.0009 0.009)
# Probe 3 (0.0005 0.0009 0.001)
# Probe 4 (0.0005 0.0005 0.005)
#       Probe             0             1             2             3             4
#        Time
            1       10.0031            10       22.0736       813.317       10.0005
            2       10.1392            10       35.8349       1978.47       10.0097
            3       10.4057            10       118.214       5423.35       10.0535
            4       10.7052       10.0001       448.204       10943.7       10.1005
            5       10.9801       10.0005       1302.76       19216.6       10.1526
            6       11.0266       10.0013       2588.27       29959.1       10.2385
            7       11.1289        10.003       4805.99       42732.1       10.3698
            8       11.2591       10.0061       8563.08         57135        10.512
            9       11.5218        10.013       17222.3       79091.4       10.6963
           10       11.8457       10.0262       28903.8        101573       10.9181
           11       12.2585       10.0491       43344.2        124261       11.4525
           12       12.6589        10.083       60170.4        146881       12.3849
           13        12.852        10.122       78988.6        169208       13.9495
           14        13.063       10.1517       99311.4        190951       16.6448
           15       13.4926       10.1675        120687        211867       21.7186
           16       14.0217       10.1898        142630        231690       30.4978
           17       14.5975       10.2358        164717        250249        52.189
           18       15.3747       10.3227        187428        267380       118.233
           19       16.0682       10.4549        209220        283033       234.434
           20       16.6547       10.6226        229916        297240       422.475
           21       17.7848       10.8168        249392        310060       710.082
           22       19.6145       11.0342        267591        321601       1114.97
           23       22.7554       11.2746        284495        331939       1631.09
           24       27.8976       11.5385        300122        341153       2250.31
           25       36.9736       11.8268        314512        349329       2999.61
           26       54.7696       12.1406        327718        356556       3933.01
           27       73.7466       12.4814        339804        362916       5057.14
           28       101.353       12.8506        350836        368488       6365.87
           29       137.085         13.25        360885        373348       7844.73
           30       179.484       13.6816        370021        377571          9473
           31       229.639       14.1478        378315        381228         11228
           32       293.937       14.6513        385830        384388         13091
           33       377.545        15.195        392628        387110       15050.4
           34       466.851       15.7823        398762        389454       17100.9
           35       561.871       16.4167        404284        391474       19241.3
           36       665.883       17.1021        409242        393223       21470.2
           37       781.521        17.843        413683        394756       23787.6
           38       911.021       18.6443        417649        396127       26193.7
           39        1056.8       19.5115        421180        397390       28684.7
           40       1221.71       20.4505        424312        398600       31245.1
           41       1437.13       21.4713        427104        399842       33998.4
           42       1684.95       22.5795        429553        401135       36654.8
           43       1971.55       23.7839        431691        402554       39158.4
           44       2302.87       25.0943        433547        404167       41515.9
           45       2693.06       26.5217        435149        406038       43745.9
           46       3151.82       28.0788        436520        408229       45880.3
           47       3698.42       29.7796        437682        410790       47942.1
           48       4362.04       31.6401        438656        413758       49923.2
           49       5174.78       33.6789        439460        417159       51806.7
           50       6182.42       35.9168        440112        420995       53585.3
           51       7416.38        38.378        440625        425241       55243.1
           52       8885.55       41.0904        441013        429843       56772.4
           53       10550.1       44.0862        441288        434695       58172.5
           54       12380.6       47.4029        441461        439633       59436.5
           55       14332.5       51.0833        441542        444454       60548.1
           56       16338.8       55.1772        441545        448931       61422.7
           57       18307.2       59.7463        441458        452858       62097.3
           58       20152.1       64.8586        441304        456091       62690.1
           59       21821.7       70.5937        441098        458564       63256.5
           60       23286.4       77.0445        440851        460254       63839.8
           61         24534         84.32        440570        461197         64440
           62       25571.9       92.5485        440264        461479       65042.4
           63       26422.7       101.881        439938        461158       65633.4
           64       27113.2       112.494        439597        460337       66205.3
           65       27672.7       124.599        439247        459131         66752
           66         28129       138.444        438893        457605       67266.8
           67       28472.6       154.329        438539        455872       67737.4
           68       28770.5       172.603        438191        453954       68175.9
           69       29032.8       193.678        437852        451933       68582.6
           70       29266.8       218.039        437528        449861       68957.1
           71       29477.4       246.247        437220        447771       69298.7
           72       29667.7       278.953        436934        445683       69607.6
           73       29839.6       316.891        436673        443590       69884.6
           74       29994.1       360.816        436439        441503         70131
           75       30131.8       411.145        436237        439440       70348.1
           76       30252.9       467.653        436069        437411       70537.3
           77       30357.9       530.442        435937        435419       70700.1
           78       30446.7       600.528        435844        433465       70837.8
           79       30519.7       679.577        435791        431548       70951.6
           80         30577       769.654        435779        429665       71042.4
           81       30618.8        873.08        435811        427812       71111.5
           82       30645.4       992.424        435885        425988       71159.9
           83         30657       1130.53        436001        424195       71188.6
           84       30653.9       1290.59        436161        422434       71198.7
           85       30636.5       1476.16        436361        420703       71191.3
           86       30605.1       1691.13        436601        419002       71167.2
           87       30560.1       1939.61        436878        417328       71127.5
           88       30501.7       2225.55        437190        415680       71073.1
           89       30430.5        2551.9        437533        414058       71004.7
           90       30346.9       2919.37        437903        412461       70923.2
           91         30252       3322.36        438296        410889       70829.2
           92       30146.4       3744.76        438706        409342       70723.6
           93       30032.6       4175.92        439130        407825       70607.2
           94         29910       4615.55        439561        406337       70480.5
           95         29778       5063.63        439993        404879       70344.1
           96       29637.9       5519.98        440420        403449       70198.4
           97       29491.9       5984.27        440837        402046         70044
           98       29341.3       6456.02        441237        400669       69881.4
           99       29187.2       6934.61        441613        399319       69710.9
          100       29030.3       7419.18        441961        397996       69533.2
          101       28871.3       7908.69        442274        396701       69348.5
          102         28711       8401.88        442548        395433       69157.3
          103       28554.2       8897.27        442777        394194         68960
          104       28399.3        9393.2        442958        392982       68756.8
          105       28245.4       9887.89        443086        391800       68548.1
          106       28092.6       10379.4        443158        390646       68334.2
          107       27940.8       10865.8        443170        389522       68115.6
          108       27790.1         11345        443119        388426       67892.5
          109         27640         11815        443001        387360       67665.3
          110       27490.7       12273.7        442814        386323       67434.3
          111         27343       12719.4        442553        385315       67199.5
          112       27197.7       13150.3        442217        384335       66960.9
          113       27055.1       13564.9        441800        383383       66718.4
          114       26915.5       13962.1        441302        382460       66472.2
          115       26779.1       14341.1        440719        381564       66222.4
          116       26646.1       14701.2        440052        380695       65969.5
          117       26516.4       15040.5        439301        379853       65713.8
          118       26389.7       15359.3        438465        379033       65456.8
          119       26266.4         15665        437549        378237       65198.4
          120       26146.6       15959.8        436558        377466       64938.6
          121       26030.1       16244.4        435496        376722       64677.6
          122       25916.6       16519.1        434371        376004       64415.4
          123       25806.2       16784.5        433190        375311       64152.3
          124       25698.9       17041.1        431959        374643       63888.2
          125         25595       17289.4        430685        373998       63623.5
          126       25494.4       17529.9        429375        373377       63358.2
          127       25397.2       17763.2        428037        372777       63092.6
          128       25303.3       17989.7        426679        372199       62826.8
          129       25212.6       18209.9        425308        371643       62560.5
          130       25124.9       18424.3        423932        371106       62293.8
          131       25040.3       18633.5        422556        370589       62026.7
          132       24958.3       18837.8        421185        370091       61759.3
          133       24878.8       19037.8        419824        369611         61492
          134       24801.5       19234.1        418475        369149         61225
          135       24726.3         19427        417143        368705       60958.7
          136         24653         19617        415828        368277       60693.1
          137       24581.4       19804.7        414533        367865       60428.5
          138       24511.6       19990.5        413258        367469       60165.1
          139       24443.4       20174.9        412005        367089         59903
          140       24376.7       20358.2        410774        366723       59642.3
          141       24311.4         20541        409565        366371       59383.2
          142       24247.4       20723.6        408377        366034         59126
          143       24184.6       20906.5        407213        365709       58870.9
          144       24122.8         21090        406072        365398       58618.2
          145       24061.8       21274.5        404956        365099         58368
          146       24001.7       21460.4        403864        364813       58120.4
          147       23942.3       21647.8        402798        364538       57875.4
          148       23883.6       21837.2        401756        364275       57632.9
          149       23825.6       22028.6        400739        364023       57393.1
          150       23768.2       22222.4        399746        363781       57155.8
          151       23711.5       22418.4        398777        363550       56921.1
          152       23655.4         22617        397832        363329       56689.1
          153       23599.8       22818.2        396911        363118       56460.2
          154       23544.8         23022        396011        362916       56236.1
          155       23490.2       23228.4        395135        362723       56016.7
          156       23436.1       23437.1        394279        362538       55801.2
          157       23382.5       23648.1        393445        362363       55589.5
          158       23329.3       23860.8        392631        362195       55381.2
          159       23276.5       24074.9        391838        362036       55176.2
          160       23224.2         24290        391064        361884       54974.3
          161       23172.3       24505.9        390309        361740       54775.5
          162       23120.9       24722.4        389573        361603       54579.7
          163       23069.9       24939.4        388854        361473       54387.1
          164       23019.4       25156.6        388154        361349       54198.1
          165       22969.3       25373.9        387470        361233       54012.8
          166       22919.6       25590.9        386803        361122         53831
          167       22870.4       25807.7        386153        361018       53652.6
          168       22821.6       26023.8        385518        360920       53477.6
          169       22773.2       26239.1        384899        360827       53305.7
          170       22725.3       26453.4        384296        360740       53136.8
          171       22677.8       26666.6        383707        360659       52970.9
          172       22630.9       26878.3        383132        360583         52808
          173       22584.4       27088.6        382572        360511       52647.1
          174       22538.4       27297.1        382025        360445       52488.3
          175       22492.9       27503.8        381491        360384       52332.3
          176       22447.9       27708.5        380970        360327       52179.2
          177       22403.3         27911        380462        360275       52028.9
          178       22359.3       28111.3        379966        360227       51881.5
          179       22315.8       28309.2        379482        360184       51736.9
          180       22272.8       28504.6        379009        360144       51595.2
          181       22230.4       28697.5        378547        360109         51456
          182       22188.5       28887.7        378097        360077       51319.2
          183       22147.1       29075.3        377657        360050       51184.6
          184       22106.2       29260.1        377227        360026       51052.4
          185       22065.9         29442        376807        360005       50922.7
          186       22026.2       29621.2        376398        359988       50795.5
          187       21987.1       29797.4        375997        359975       50670.9
          188       21948.5       29970.8        375607        359964       50548.8
          189       21910.5       30141.3        375225        359957       50429.2
          190         21873       30308.8        374852        359953         50312
          191       21836.2       30473.4        374488        359952       50197.2
          192       21799.9       30635.1        374132        359954       50084.5
          193       21764.2       30793.9        373785        359959         49974
          194       21729.1       30949.7        373446        359966       49865.7
          195       21694.6       31102.7        373114        359976       49759.6
          196       21660.7       31252.9        372790        359988       49655.8
          197       21627.4       31400.2        372474        360003       49554.1
          198       21594.6       31544.7        372165        360020       49454.6
          199       21562.5       31686.5        371864        360039       49357.4
          200         21531       31825.5        371569        360061       49262.2
          201         21500       31961.8        371281        360084       49169.2
          202       21469.6       32095.4        371000        360109       49078.2
          203       21439.8       32226.5        370726        360136       48989.3
          204       21410.6         32355        370458        360165       48902.3
          205         21382       32480.9        370196        360196       48817.4
          206         21354       32604.4        369941        360228       48734.4
          207       21326.6       32725.4        369691        360261       48653.2
          208       21299.7         32844        369448        360296       48573.9
          209       21273.4       32960.3        369210        360332       48496.5
          210       21247.7       33074.4        368979        360370       48420.8
          211       21222.5       33186.2        368752        360408         48347
          212         21198       33295.8        368532        360448         48275
          213         21174       33403.2        368316        360488       48204.7
          214       21150.5       33508.6        368106        360530       48136.2
          215       21127.6       33611.9        367901        360572       48069.4
          216       21105.3       33713.3        367701        360615       48004.3
          217       21083.5       33812.7        367506        360659       47940.9
          218       21062.3       33910.2        367316        360704       47879.1
          219       21041.6       34005.8        367130        360749       47818.9
          220       21021.4       34099.6        366949        360794       47760.4
          221       21001.8       34191.7        366773        360840       47703.4
          222       20982.7         34282        366601        360887       47647.9
          223       20964.2       34370.7        366433        360934         47594
          224       20946.1       34457.7        366270        360981       47541.6
          225       20928.6       34543.1        366110        361028       47490.7
          226       20914.5       34627.4        365959        361076       47446.3
          227       20900.6       34710.1        365811        361124       47402.8
          228       20886.8       34791.3        365666        361172       47360.1
          229       20873.2         34871        365524        361220       47318.3
          230       20859.9       34949.3        365386        361268       47277.5
          231       20846.7       35026.1        365251        361316       47237.7
          232       20833.8       35101.5        365119        361364       47198.8
          233       20821.2       35175.5        364991        361411         47161
          234       20808.9       35248.2        364865        361459       47124.2
          235       20796.8       35319.6        364744        361506       47088.4
          236       20785.1       35389.6        364625        361553       47053.6
          237       20773.6       35458.4        364509        361599       47019.8
          238       20762.5         35526        364397        361645         46987
          239       20751.7       35592.4        364287        361691       46955.2
          240       20741.2       35657.5        364181        361737       46924.4
          241       20731.1       35721.5        364077        361782       46894.6
          242       20721.3       35784.3        363976        361827       46865.7
          243       20711.8         35846        363879        361871       46837.8
          244       20702.7       35906.6        363783        361915       46810.9
          245       20693.9       35966.1        363691        361958       46784.9
          246       20685.5       36024.5        363601        362001       46759.8
          247       20677.4       36081.9        363514        362044       46735.7
          248       20669.6       36138.3        363429        362086       46712.5
          249       20662.2       36193.6        363347        362127       46690.2
          250       20655.1       36247.9        363267        362168       46668.8
          251       20648.3       36301.2        363190        362209       46648.2
          252       20641.9       36353.5        363115        362249       46628.6
          253       20635.8       36404.9        363042        362288       46609.8
          254         20630       36455.3        362971        362327       46591.8
          255       20624.5       36504.8        362903        362366       46574.6
          256       20619.4       36553.4        362837        362404       46558.3
          257       20614.5       36601.1        362773        362441       46542.7
          258         20610       36647.8        362710        362478         46528
          259       20605.7       36693.7        362650        362515         46514
          260       20601.8       36738.7        362592        362551       46500.7
          261       20598.1       36782.8        362536        362586       46488.2
          262       20594.7       36826.1        362482        362621       46476.4
          263       20591.6       36868.5        362429        362655       46465.4
          264       20588.7       36910.1        362379        362689         46455
          265       20586.1       36950.8        362330        362722       46445.3
          266       20583.7       36990.8        362283        362755       46436.2
          267       20581.6       37029.9        362237        362787       46427.8
          268       20579.7       37068.2        362194        362818       46419.9
          269       20578.1       37105.8        362151        362849       46412.7
          270       20576.6       37142.5        362111        362880         46406
          271       20575.4       37178.5        362072        362910       46399.8
          272       20574.4       37213.7        362034        362939       46394.2
          273       20573.6       37248.2        361998        362968       46389.2
          274         20573       37281.9        361964        362996       46384.6
          275       20572.6       37314.8        361931        363023       46380.7
          276       20572.4       37347.1        361899        363050       46377.2
          277       20572.3       37378.6        361868        363077       46374.2
          278       20572.5       37409.3        361839        363103       46371.8
          279       20572.8       37439.4        361812        363128       46369.8
          280       20573.3       37468.7        361785        363153       46368.3
          281       20573.9       37497.4        361760        363177       46367.3
          282       20574.7       37525.3        361736        363201       46366.7
          283       20575.7       37552.6        361713        363224       46366.5
          284       20576.8       37579.1        361691        363247       46366.8
          285         20578         37605        361671        363269       46367.5
          286       20579.4       37630.2        361652        363291       46368.6
          287       20580.9       37654.8        361633        363313         46370
          288       20582.6       37678.7        361616        363334       46371.8
          289       20584.3       37701.9        361600        363354         46374
          290       20586.2       37724.5        361585        363374       46376.6
          291       20588.2       37746.4        361570        363393       46379.4
          292       20590.3       37767.7        361557        363413       46382.6
          293       20592.5       37788.4        361545        363431       46386.1
          294       20594.8       37808.5        361534        363449       46389.9
          295       20597.1       37827.9        361523        363467         46394
          296       20599.6       37846.7        361514        363485       46398.3
          297       20602.2       37864.9        361505        363502         46403
          298       20604.8       37882.5        361498        363518       46407.8
          299       20607.5       37899.5        361491        363535       46412.9
          300       20610.2       37915.9        361485        363550       46418.3
          301       20613.1       37931.7        361480        363566       46423.8
          302         20616       37946.9        361475        363581       46429.6
          303       20618.9       37961.5        361471        363596       46435.6
          304       20621.9       37975.6        361468        363610       46441.7
          305       20624.9       37989.1        361466        363624       46448.1
          306         20628         38002        361465        363638       46454.6
          307       20631.1       38014.4        361464        363651       46461.3
          308       20634.3       38026.2        361464        363665       46468.1
          309       20637.5       38037.4        361465        363677       46475.1
          310       20640.7       38048.1        361466        363690       46482.2
          311       20643.9       38058.3        361468        363702       46489.3
          312       20647.2       38067.9        361470        363714       46496.6
          313       20650.5         38077        361474        363725         46504
          314       20653.8       38085.6        361477        363737       46511.4
          315       20657.1       38093.6        361482        363748       46518.9
          316       20660.4       38101.1        361487        363758       46526.6
          317       20663.8       38108.1        361492        363769       46534.3
          318       20667.1       38114.6        361498        363779       46542.1
          319       20670.4       38120.6        361505        363789         46550
          320       20673.8         38126        361512        363799       46557.9
          321       20677.1         38131        361520        363808       46565.9
          322       20680.4       38135.5        361528        363818         46574
          323       20683.8       38139.5        361537        363827       46582.2
          324       20687.1         38143        361546        363836       46590.4
          325       20690.4         38146        361556        363844       46598.6
          326       20693.7       38148.6        361566        363853       46606.9
          327       20696.9       38150.6        361577        363861       46615.2
          328       20700.2       38152.2        361588        363869       46623.6
          329       20703.4       38153.4        361599        363877         46632
          330       20706.6         38154        361611        363884       46640.4
          331       20709.8       38154.3        361623        363892       46648.8
          332         20713         38154        361636        363899       46657.2
          333       20716.2       38153.3        361649        363906       46665.6
          334       20719.3       38152.2        361663        363913         46674
          335       20722.4       38150.6        361676        363920       46682.4
          336       20725.4       38148.6        361691        363927       46690.8
          337       20728.5       38146.2        361705        363934       46699.2
          338       20731.5       38143.3        361720        363940       46707.6
          339       20734.5       38140.1        361736        363946       46715.9
          340       20737.4       38136.3        361751        363952       46724.2
          341       20740.3       38132.2        361767        363958       46732.5
          342       20743.2       38127.7        361783        363964       46740.8
          343         20746       38122.7        361800        363970         46749
          344       20748.9       38117.4        361817        363976       46757.1
          345       20751.6       38111.6        361834        363982       46765.3
          346       20754.4       38105.5        361852        363987       46773.3
          347       20757.1       38098.9        361869        363992       46781.4
          348       20759.7         38092        361887        363998       46789.3
          349       20762.4       38084.7        361906        364003       46797.2
          350       20764.9         38077        361924        364008       46805.1
          351       20767.5       38068.9        361943        364013       46812.9
          352         20770       38060.5        361962        364018       46820.6
          353       20772.5       38051.7        361982        364023       46828.3
          354       20774.9       38042.5        362001        364028       46835.9