# Probe 0 (0.0005 0.0001 0.001)
# Probe 1 (0.0005 0.0001 0.009)
# Probe 2 (0.0005 0.0009 0.009)
# Probe 3 (0.0005 0.0009 0.001)
# Probe 4 (0.0005 0.0005 0.005)
#       Probe             0             1             2             3             4
#        Time
            1   3.37068e-13   6.10034e-13   4.59869e-13    3.6339e-13   8.51113e-13
            2  -1.48652e-14  -5.51072e-13  -1.68964e-13  -9.93512e-14  -8.08102e-14
            3   7.26366e-14   3.89613e-13   -5.9562e-14   1.85966e-13   1.03513e-13
            4   5.61347e-14   -2.5346e-13   6.24871e-14  -6.16547e-14  -5.31438e-14
            5  -1.67308e-14   6.92329e-15   7.67031e-14   3.91118e-14  -1.81887e-14
            6   4.01805e-14   2.19952e-13  -1.00106e-14   6.44006e-14   6.14186e-14
            7   3.75881e-14  -8.58806e-14   7.58525e-14  -1.38974e-14   2.07683e-14
            8   1.06601e-15   1.31222e-13   5.34437e-14   4.56835e-14    8.7335e-14
            9   2.25651e-14   7.40801e-14   1.20195e-13  -4.74379e-15   2.81327e-14
           10  -1.71237e-14  -1.87837e-13  -1.39656e-13  -3.00621e-14  -9.04244e-14
           11   5.21385e-14   3.82814e-14  -6.61672e-14   8.43976e-14   1.97656e-14
           12   1.14876e-14    -2.818e-14   5.05233e-14  -7.70951e-15   2.96813e-14
           13  -2.76172e-14   9.77572e-14   5.84747e-14  -1.95279e-14   3.99829e-14
           14   4.17167e-14     1.145e-13   1.13258e-13   3.72146e-14   4.58324e-14
           15   3.42949e-14   -6.8659e-14  -3.05336e-14   3.18132e-14   1.22467e-15
           16  -3.14433e-15    -5.898e-14  -9.31566e-14   7.93823e-15  -3.85942e-14
           17  -1.31502e-14  -2.73939e-14   -1.8138e-14  -2.09609e-14  -2.61731e-14
           18   7.00138e-14   2.48911e-13   2.59373e-13   6.30086e-14    1.8207e-13
           19   1.71243e-14   3.37228e-14   1.79547e-14   2.91065e-14   9.99918e-15
           20  -1.80795e-14  -2.64517e-13  -2.50558e-13  -1.48627e-14  -1.39662e-13
           21   3.18092e-14   9.66933e-14   8.64539e-14   1.59792e-14    4.4481e-14
           22   1.35781e-14   1.26589e-13   1.29833e-13   2.29256e-14   8.10776e-14
           23    4.8397e-14   8.42909e-14    9.7367e-14   4.96935e-14   9.44605e-14
           24   4.90471e-14   4.65818e-14    3.0789e-14   4.73538e-14   4.44653e-14
           25   6.07157e-15    -8.269e-14  -7.81073e-14   2.81531e-15   -7.1321e-14
           26   2.30948e-14  -1.88262e-14  -1.60435e-14      2.74e-14    1.9026e-14
           27    1.4785e-14  -1.51712e-15  -3.37884e-15   1.27065e-14   1.75481e-14
           28   1.77673e-14   3.58937e-14    3.4103e-14   1.79863e-14   2.86739e-14
           29   6.85656e-14   1.48861e-13   1.51856e-13   7.08066e-14   1.06547e-13
           30   4.65836e-14   8.26614e-14   8.48861e-14   4.05252e-14   5.87851e-14
           31   2.26691e-14  -3.21426e-15  -4.96678e-15   2.97589e-14   1.04572e-14
           32   2.08456e-14  -3.22252e-14  -3.65303e-14   1.59259e-14  -1.85132e-14
           33   1.56267e-14  -3.75665e-14  -3.30539e-14   1.45434e-14   -1.4249e-14
           34   3.08242e-14   3.81613e-14    3.4335e-14   3.65522e-14   4.86462e-14
           35   4.29361e-14   8.14134e-14   8.02502e-14   3.80447e-14   6.87823e-14
           36   4.12911e-15   1.77099e-14   2.72139e-14   6.69896e-15   7.13081e-15
           37   2.58211e-14   4.65913e-14   4.12509e-14   2.59739e-14   2.48761e-14
           38   8.08208e-14   1.04226e-13   1.01705e-13   7.68994e-14   1.26461e-13
           39   1.06322e-14  -1.17509e-14  -7.92428e-15   1.60139e-14  -1.92758e-14
           40    6.6776e-15  -4.33902e-14  -4.74941e-14   4.11303e-15  -6.12245e-14
           41   1.54445e-14  -1.81806e-14  -1.16759e-14   1.47278e-14   1.98724e-14
           42   6.90241e-14   1.61967e-13   1.55561e-13   7.18324e-14   1.68678e-13
           43   1.45933e-14   2.12356e-14   2.36911e-14   1.29674e-14  -2.39024e-14
           44   1.15825e-14  -2.39967e-14  -1.78651e-14   9.25628e-15  -3.93307e-14
           45    6.0838e-14   4.93478e-14   4.33954e-14   6.37858e-14   1.11004e-13
           46   2.83805e-14  -1.27384e-14  -1.08937e-14    2.7482e-14   1.73962e-14
           47   3.65652e-14   1.04271e-13   9.98605e-14    4.0124e-14   4.38399e-14
           48   4.27199e-15  -1.98232e-16   9.00208e-15  -4.64444e-15  -3.21008e-14
           49   6.56533e-14   6.27016e-14   5.46806e-14   7.51134e-14   1.17309e-13
           50  -1.57897e-14  -1.23332e-13  -1.22968e-13   -1.9051e-14  -9.36202e-14
           51     6.984e-14   1.76049e-13   1.78904e-13   7.02401e-14   1.36245e-13
           52   4.84238e-14   1.40202e-13   1.40038e-13   4.67567e-14   9.20905e-14
           53    1.6679e-14  -2.43123e-14  -2.12287e-14    1.9693e-14  -9.36738e-15
           54   2.99924e-14   -1.8546e-14  -2.40706e-14   3.02611e-14  -4.31944e-16
           55   3.30306e-14   4.71122e-15   4.67458e-15   3.00724e-14   1.48616e-14
           56   1.18221e-14  -3.85969e-15   1.17622e-15   1.51032e-14   5.31462e-15
           57  -2.81168e-15  -1.13691e-15   -4.8706e-15  -5.02903e-15   5.35705e-15
           58   2.12284e-14   2.55942e-14    2.6349e-14   1.96132e-14   2.45433e-14
           59   6.92136e-14   1.09759e-13   1.09389e-13   7.36954e-14   9.47758e-14
           60   8.04349e-15   5.05211e-14   5.27094e-14   5.70163e-15    2.4642e-14
           61   4.23781e-14   7.15221e-14    7.0948e-14   4.39638e-14   7.10297e-14
           62   6.31687e-15  -9.88144e-14  -9.77354e-14   9.30296e-16  -5.62531e-14
           63   4.64741e-14   2.75491e-14   2.54407e-14   5.02207e-14   3.05578e-14
           64   1.32729e-14    -6.792e-15  -6.90937e-15   1.31444e-14  -5.10053e-15
           65   2.69835e-14   3.69188e-14   3.91682e-14   2.82157e-14   4.41124e-14
           66   6.75829e-14   1.46085e-13   1.44677e-13   6.65472e-14   1.29249e-13
           67   3.44278e-14   8.97675e-14   9.03569e-14    3.1711e-14    6.2702e-14
           68   2.79164e-14  -8.15454e-15  -8.12567e-15   3.13063e-14  -4.48774e-14
           69   5.04665e-15  -1.53237e-13  -1.46226e-13   6.30288e-15  -6.20785e-14
           70   9.62123e-14   2.72315e-13    2.6083e-13   9.41397e-14   2.54492e-13
           71  -2.19828e-15  -2.11869e-15   3.25959e-15  -6.52867e-15  -8.79314e-14
           72  -1.22327e-14  -5.18733e-14  -4.86684e-14  -7.10622e-16  -3.92671e-14
           73    3.9034e-14  -2.82209e-14  -3.09008e-14   2.89101e-14   5.87865e-14
           74   6.12938e-14   6.96481e-14   6.43235e-14   6.30796e-14   7.59638e-14
           75   8.66917e-14   1.49541e-13   1.56207e-13   9.86158e-14   1.35085e-13
           76   2.40076e-14   4.23892e-14   4.08257e-14   1.50253e-14   2.42879e-14
           77   4.65093e-14   5.31554e-14   4.92366e-14   4.43051e-14   1.00984e-14
           78   5.53129e-14   1.80779e-14   2.98672e-14    5.8008e-14   2.99557e-14
           79   1.65286e-13   2.57079e-13   2.45212e-13   1.64203e-13   2.80093e-13
           80   9.31996e-14  -2.19513e-14  -1.75002e-14   9.22911e-14   4.01585e-15
           81    3.3341e-14  -1.23569e-14  -1.12169e-14   4.16954e-14  -8.29567e-15
           82  -6.84876e-14  -1.47621e-13  -1.51839e-13  -8.40612e-14  -1.52077e-13
           83   1.07766e-13   3.17274e-13   3.22684e-13    1.2281e-13   2.68201e-13
           84   3.29469e-14  -5.30716e-14  -5.22336e-14   2.49696e-14  -1.46178e-14
           85   8.23637e-14   2.97521e-14   2.74682e-14   9.97859e-14   6.60793e-14
           86    5.2894e-14   9.18925e-14   8.72084e-14   3.65159e-14   7.93103e-14
           87   1.30795e-13   2.49655e-13   2.54253e-13    1.2413e-13    1.8907e-13
           88   1.56918e-13   1.97544e-13   2.05601e-13   1.67828e-13   1.70851e-13
           89  -3.59293e-14   -3.9344e-13  -3.98165e-13  -3.17703e-14  -2.46412e-13
           90   7.05321e-14   3.89019e-13   3.72635e-13     7.234e-14   2.80641e-13
           91   8.82655e-16   4.07044e-14   6.97038e-14  -1.90141e-14  -2.83373e-16
           92   5.54546e-14  -1.37249e-13  -1.51194e-13   7.15512e-14  -8.26139e-14
           93   1.45835e-13   1.63303e-13   1.51716e-13   1.54302e-13   2.22916e-13
           94   2.13491e-13   3.82431e-13   3.98569e-13   1.92312e-13   3.74808e-13
           95    1.2226e-13    1.2773e-13   1.22334e-13   1.31652e-13   3.89305e-14
           96    4.7965e-14  -7.59322e-14  -6.92704e-14   5.72435e-14  -8.39311e-14
           97   1.69159e-13   1.28274e-13   1.23596e-13   1.56348e-13   2.79487e-13
           98   1.67446e-13    2.6825e-13   2.51998e-13   1.71237e-13   1.75874e-13
           99     1.395e-13   2.64955e-13   2.88177e-13    1.5246e-13   1.49629e-13
          100   1.16122e-13   -5.5313e-14  -5.31133e-14   1.00824e-13   5.77366e-14
          101   7.18328e-14   -9.9718e-14  -1.23698e-13   8.00581e-14   -1.5743e-14
          102   1.27909e-13   1.10491e-13   1.33798e-13   1.30364e-13   1.19447e-13
          103   1.35251e-13   2.53294e-13   2.33056e-13   1.28293e-13   1.65229e-13
          104   2.29723e-13   3.56971e-13   3.75617e-13   2.44946e-13   3.16339e-13
          105   7.17836e-14    6.6026e-14   5.94756e-14   5.67301e-14   1.01223e-13
          106   2.17543e-13   3.05684e-13   2.92581e-13   2.26843e-13    2.8498e-13
          107   1.57966e-13   1.24493e-13   1.50012e-13   1.48372e-13   1.18809e-13
          108   2.10774e-13   1.69855e-13   1.49156e-13    2.2409e-13   1.93391e-13
          109   1.19704e-13   4.16922e-14   5.44558e-14   1.20287e-13   5.56514e-14
          110   1.95782e-13   2.17262e-13   2.08218e-13    1.9263e-13   1.82186e-13
          111   2.18971e-13   2.92417e-13    2.9481e-13   2.12275e-13   3.17075e-13
          112   1.04618e-13  -4.86452e-14  -3.84617e-14   1.11267e-13   3.62031e-14
          113   6.46644e-14   9.75812e-14   7.49786e-14   7.46925e-14  -5.69874e-14
          114   5.81289e-14  -7.93536e-15   1.92302e-14   4.41861e-14   2.02549e-14
          115   1.54111e-13   2.36856e-13   2.17074e-13   1.61511e-13   3.46171e-13
          116   1.66549e-13   2.84012e-13   2.89863e-13   1.74911e-13   2.59648e-13
          117    2.6512e-13   4.54233e-13     4.611e-13   2.69104e-13   3.76872e-13
          118   8.13875e-14  -9.13138e-15  -1.33444e-14    6.6225e-14  -1.14119e-13
          119   1.80282e-14  -4.88512e-13  -4.92549e-13   1.98586e-14  -3.59854e-13
          120   1.28135e-13    4.4905e-14   5.15293e-14   1.47943e-13    2.9115e-13
          121   3.02443e-13   1.12334e-12   1.11367e-12   2.82834e-13   8.23721e-13
          122   2.63266e-13   2.42066e-13   2.54993e-13   2.68073e-13   9.65924e-14
          123   2.83378e-13  -1.89192e-13  -1.91326e-13   2.96001e-13   5.97599e-14
          124   8.39036e-14  -5.01543e-14  -5.97658e-14    8.4996e-14   7.78861e-14
          125    1.5912e-13   5.28438e-13   5.34397e-13   1.48764e-13   3.41234e-13
          126   2.29987e-13   4.27649e-13    4.3548e-13   2.26204e-13   3.03574e-13
          127   3.28979e-13   3.24665e-13   3.14656e-13   3.45473e-13   3.09287e-13
          128   9.41957e-14  -6.58483e-13  -6.43937e-13   9.02519e-14  -3.27006e-13
          129   2.92516e-13   9.40574e-13   9.19012e-13   2.94621e-13   7.44143e-13
          130   1.94628e-13   4.28348e-13    4.3947e-13   1.92448e-13   2.48503e-13
          131  -1.11405e-13  -1.35679e-12  -1.33564e-12  -1.00757e-13  -8.76891e-13
          132   2.04573e-13   1.16937e-12   1.11739e-12    1.8954e-13   8.67687e-13
          133   1.01666e-13   5.89161e-13   6.45089e-13   9.05269e-14      3.54e-13
          134     2.247e-13  -3.08407e-13  -3.29072e-13   2.62168e-13  -8.06129e-14
          135   9.30105e-14  -4.39166e-13  -4.66361e-13   7.12911e-14  -2.77548e-13
          136    1.4517e-13   3.16349e-13   3.60519e-13   1.48486e-13   3.04496e-13
          137   1.16177e-13   5.73418e-13   5.33712e-13   1.25282e-13   4.45104e-13
          138   5.44548e-14   2.85793e-13   3.08417e-13   4.11236e-14   8.45203e-14
          139   2.29854e-14  -4.10408e-13  -3.94801e-13   4.20727e-14  -3.11014e-13
          140   1.40986e-13   -1.6949e-13   -2.1019e-13   1.33917e-13   9.39486e-14
          141   2.62612e-13   8.12298e-13   8.39419e-13   2.56294e-13   6.20042e-13
          142   1.77764e-13   6.00829e-13   6.02884e-13   1.94322e-13   3.46352e-13
          143  -2.37414e-14  -9.75222e-13  -9.82597e-13  -2.83415e-14  -5.71406e-13
          144  -3.46527e-17  -6.24041e-13  -6.20564e-13  -5.52851e-15  -3.06903e-13
          145   2.23239e-13   1.45183e-12   1.43071e-12   2.30594e-13   9.38319e-13
          146   1.01795e-13   5.61409e-13    6.0073e-13   9.17706e-14   2.87494e-13
          147  -9.05684e-14  -1.26772e-12    -1.297e-12  -7.50063e-14  -7.52149e-13
          148    1.2506e-13   3.24021e-13   3.29849e-13   1.26636e-13   3.35137e-13
          149   2.31207e-13   7.61586e-13     7.603e-13   2.08621e-13    4.9868e-13
          150   2.48986e-13   4.34061e-13     4.417e-13   2.68538e-13   3.31182e-13
          151   1.22709e-13   -2.6518e-13  -2.56628e-13   1.25763e-13  -1.73693e-13
          152   8.19843e-14  -9.92814e-14  -1.20866e-13   7.38197e-14   4.50099e-14
          153   7.20491e-14  -1.16818e-13  -1.08619e-13   6.60882e-14   1.49291e-14
          154   2.76089e-13   6.75283e-13   6.67869e-13   3.04019e-13   4.88223e-13
          155   1.77105e-13   4.98111e-13   5.10052e-13   1.49527e-13   3.18159e-13
          156   7.43186e-14  -2.15773e-13  -2.11525e-13   7.73184e-14  -1.92287e-13
          157   5.67107e-14  -3.69629e-13  -3.65511e-13   6.54915e-14  -1.20139e-13
          158   6.38397e-14   -3.5667e-14  -6.95743e-14   5.03561e-14   6.89177e-14
          159   2.13164e-13   6.04862e-13   6.49783e-13   2.34937e-13   4.30858e-13
          160   2.88577e-13   6.91575e-13   6.60874e-13   2.83021e-13   4.75562e-13
          161   2.26318e-13   6.41102e-14   7.69825e-14   2.09323e-13   1.47661e-13
          162   2.43456e-13   -7.3948e-15  -6.92281e-15   2.59401e-13   1.57411e-13
          163   2.87311e-13   2.81705e-13   2.61788e-13   2.81989e-13   2.90619e-13
          164   1.86832e-13   1.92784e-13   2.32302e-13   1.93329e-13   2.07606e-13
          165   3.32843e-13   4.64664e-13   4.21008e-13   3.49859e-13   3.99021e-13
          166   1.10797e-13  -1.64428e-13  -1.24172e-13   8.16181e-14  -1.27294e-13
          167   5.99659e-14   -1.7309e-13  -1.90316e-13   7.47975e-14  -1.49535e-13
          168   2.53193e-13   4.21456e-13   3.92009e-13   2.68463e-13   5.29823e-13
          169   2.14325e-13    4.2927e-13   4.74123e-13   1.94683e-13   4.31642e-13
          170    6.5847e-14   1.18572e-13   1.02151e-13   8.35604e-14  -2.13828e-13
          171   5.20698e-14  -1.58691e-13  -1.75075e-13   3.05188e-14  -1.79458e-13
          172  -3.30824e-14  -1.82351e-13    -1.524e-13  -1.49051e-14   2.57451e-13
          173   2.52362e-13   8.41602e-13   8.06269e-13   2.66454e-13   7.07535e-13
          174   3.76416e-13   7.68322e-13   8.00141e-13   3.63992e-13   4.63809e-13
          175   4.27055e-13   3.33406e-13   3.30185e-13   4.29153e-13   2.90011e-13
          176   3.70676e-13    1.8518e-14   1.26424e-14   3.62204e-13   1.11518e-13
          177   2.35751e-13  -3.43673e-13  -3.33386e-13   2.47471e-13   3.75971e-14
          178   1.62212e-13  -1.72286e-13  -2.06284e-13   1.71744e-13   4.90431e-14
          179   3.86915e-13   1.26628e-12   1.28908e-12     3.776e-13   7.78188e-13
          180   2.71847e-13   4.20602e-13   4.35803e-13   2.63391e-13   2.45079e-13
          181   5.10986e-14  -5.26739e-13  -5.41155e-13   8.17552e-14  -1.70085e-13
          182   2.66441e-13   3.83483e-13   3.70078e-13   2.49701e-13    3.8398e-13
          183   2.04738e-13   2.89317e-13   3.15593e-13   1.75938e-13   2.25003e-13
          184   3.16414e-13   5.04106e-13   4.94074e-13   3.60992e-13   3.92756e-13
          185   2.52773e-13    4.2181e-13   4.09631e-13   2.36058e-13   3.22301e-13
          186   2.98309e-13    2.0858e-13   2.24122e-13   2.80747e-13   2.47901e-13
          187   3.51044e-13  -5.13213e-14  -3.68261e-14    3.6404e-13   2.17502e-13
          188   1.00786e-13  -2.77065e-14   -6.0568e-14   9.59707e-14  -4.95304e-14
          189   2.61216e-13   3.15699e-13   3.36749e-13   2.73086e-13     3.217e-13
          190   1.89761e-13   4.93278e-13   4.85515e-13   1.73517e-13   3.88983e-13
          191  -1.00383e-14  -7.83063e-15  -1.14722e-14  -5.60326e-15  -1.50842e-13
          192   3.15926e-13   2.61236e-13    2.7355e-13   3.32828e-13   4.22226e-13
          193   2.87539e-13   4.75032e-13   4.40772e-13   2.67412e-13   4.60682e-13
          194   1.31372e-13  -2.45295e-13  -1.98444e-13   1.28031e-13   -3.0247e-13
          195   1.50882e-13    1.0036e-13   7.65371e-14    1.8562e-13   1.96197e-13
          196   4.01821e-14   2.03056e-13   1.88168e-13   3.48867e-15   1.98819e-13
          197   2.13938e-13   5.53494e-13   5.86113e-13   2.14818e-13   4.47062e-13
          198   5.39874e-14  -4.58312e-13  -4.66849e-13   6.45987e-14  -4.25201e-13
          199   6.81356e-14  -2.25142e-13  -2.38271e-13   8.71217e-14  -7.33647e-14
          200   2.47336e-13   7.93055e-13   8.11954e-13   2.24007e-13   7.91986e-13
          201   3.09174e-13   7.66734e-13   7.63164e-13   3.05281e-13   6.30669e-13
          202   9.82213e-14  -3.37648e-13  -3.43535e-13   1.24914e-13   -5.1838e-13
          203   1.49399e-13   -1.0768e-13  -1.07145e-13   1.42046e-13   6.95148e-14
          204   3.62827e-13   7.62586e-13   7.57886e-13   3.41849e-13   7.86996e-13
          205   6.10539e-14  -1.96999e-13  -1.84972e-13   9.56516e-14  -1.79564e-13
          206  -1.38277e-13  -3.86454e-13    -4.034e-13  -1.37357e-13  -4.31024e-13
          207  -1.58131e-14   1.62347e-13   1.76951e-13  -4.91238e-14   2.15562e-13
          208   1.59272e-13    3.7273e-13   3.75572e-13   1.79297e-13   4.21798e-13
          209   1.47442e-13   2.06464e-13   1.71803e-13   1.61787e-13   2.89582e-14
          210   5.68418e-14  -9.46215e-14  -2.11877e-14   4.88325e-14  -8.00299e-14
          211  -9.66865e-14  -1.86434e-13  -2.48433e-13  -1.01471e-13  -6.34353e-14
          212   1.60785e-14  -2.78121e-14  -2.25694e-14   4.44639e-15   5.51002e-14
          213   1.53312e-13   4.71576e-13   5.04747e-13   1.80219e-13   2.77027e-13
          214    3.0138e-13   6.78387e-13   6.36536e-13   3.02325e-13   4.01776e-13
          215   1.79385e-13  -2.69967e-13   -2.2209e-13   1.60564e-13   1.38652e-14
          216   1.65884e-13  -2.82172e-13  -3.08233e-13   1.70047e-13   -8.0693e-15
          217   2.61987e-13   5.44019e-13   5.25433e-13    2.7263e-13   4.15434e-13
          218   1.77074e-13   4.05287e-13   4.43068e-13   1.75599e-13   2.92897e-13
          219   2.85216e-13   2.69418e-13   2.67898e-13   2.95542e-13   2.24477e-13
          220   7.76765e-15  -4.87331e-13  -5.07246e-13  -2.16943e-14  -3.49051e-13
          221  -7.58908e-14  -3.42424e-13  -3.40771e-13  -5.75885e-14  -1.80159e-13
          222   2.10322e-14   5.58571e-13   5.57835e-13   3.73378e-14    4.4672e-13
          223   4.30575e-14   3.63033e-13   3.79048e-13   2.44575e-14    2.1768e-13
          224   1.46108e-13   6.58934e-15   2.17863e-14   1.58093e-13   5.35192e-15
          225   8.95004e-14  -4.54463e-14  -7.69095e-14   9.19258e-14   3.60642e-14
          226   7.43828e-14  -6.64223e-15  -1.10157e-14    6.1453e-14   1.82366e-14
          227   1.23295e-13   1.45388e-13   1.95976e-13   1.47563e-13   1.73108e-13
          228   1.84993e-13    6.0731e-13   5.26106e-13   1.72985e-13   3.34041e-13
          229   2.00454e-13   6.86917e-14   1.43563e-13   1.95548e-13   1.26708e-13
          230   4.36448e-13   5.57546e-13   5.37369e-13   4.57248e-13   6.43895e-13
          231  -1.79917e-14  -3.15465e-13  -3.42273e-13  -4.85611e-14  -3.74342e-13
          232   7.99066e-14  -1.07513e-13  -9.20139e-14   1.19921e-13  -3.69967e-14
          233   2.82935e-14  -4.07667e-14  -2.24485e-14   5.26142e-15   1.15605e-13
          234    1.2131e-13   3.56645e-13   3.38731e-13   1.20043e-13    4.0047e-13
          235   3.08894e-13   6.51095e-13   6.50171e-13   3.25821e-13   4.19783e-13
          236   3.25502e-13    1.9032e-13   2.24229e-13   3.09301e-13    1.8778e-13
          237   1.68134e-13   -7.5628e-14  -1.11187e-13   1.72407e-13  -4.01738e-14
          238   1.02071e-13  -5.66672e-14  -3.53469e-14   1.15005e-13   1.60515e-13
          239   3.39277e-15  -8.59206e-14  -1.00872e-13  -1.62085e-14  -2.36928e-14
          240   6.38144e-14   1.94222e-13   1.80665e-13   6.75926e-14  -4.46014e-14
          241   2.28119e-13   7.66597e-13   8.12846e-13   2.54892e-13   7.05515e-13
          242   4.49337e-14   -9.1658e-14  -1.25803e-13   1.95905e-14  -1.46774e-13
          243   2.76873e-14  -2.13471e-13  -2.01933e-13   4.84055e-14  -1.51574e-13
          244    1.0328e-13   7.83489e-14   7.07153e-14   9.17316e-14   2.15181e-13
          245   1.72756e-13   1.12286e-13   1.25184e-13   1.59662e-13   1.84228e-13
          246   2.10173e-13   3.16821e-13   3.19438e-13   2.43469e-13   2.83172e-13
          247   1.91885e-13   3.17156e-13   2.96521e-13   1.72108e-13   2.31861e-13
          248  -3.22227e-14   -6.2096e-13  -5.79266e-13  -4.11492e-14  -5.10732e-13
          249   1.55227e-13   3.21194e-13    2.7386e-13   1.81958e-13   2.37222e-13
          250   9.31716e-16   2.38397e-13   2.64397e-13   -2.3444e-14   2.21014e-13
          251   4.14159e-14   1.33346e-13   1.19265e-13   4.50825e-14   9.61929e-14
          252   9.39424e-14   1.27979e-13   1.48579e-13   1.08208e-13   9.41209e-14
          253   1.28947e-13   2.27104e-13   2.14682e-13   1.21352e-13   2.17127e-13
          254   4.93328e-14  -2.69623e-13   -2.7272e-13   5.24719e-14  -1.98411e-13
          255   6.05643e-14  -2.92153e-14  -5.19035e-14   8.13819e-14  -2.72311e-14
          256   9.93675e-14    1.5459e-14   1.01134e-13   6.57927e-14   1.80675e-13
          257   1.79182e-13   4.37628e-13   3.47611e-13   1.95951e-13   3.90734e-13
          258   8.33799e-14   3.51415e-13   3.89579e-13   8.39496e-14     1.644e-13
          259  -5.86567e-14  -2.39732e-13  -2.03259e-13  -5.06547e-14  -1.69278e-13
          260   2.53944e-13   4.37937e-13   3.54664e-13   2.52372e-13   3.95158e-13
          261   4.38229e-13   5.72996e-13    6.3567e-13   4.12062e-13   5.48122e-13
          262   3.04741e-13   2.81668e-13   2.84499e-13   3.37824e-13   2.73386e-13
          263  -5.65901e-14  -4.18818e-13  -4.54145e-13  -5.18537e-14  -3.47011e-13
          264   3.30915e-13   2.37885e-13   2.51419e-13   2.84937e-13   3.18847e-13
          265   2.68909e-13   6.59159e-13   6.53969e-13   2.98479e-13   5.40377e-13
          266   7.26017e-15   2.27965e-14   4.75559e-14    1.0791e-14  -7.00148e-14
          267   1.87364e-13   -1.6093e-14   -6.7029e-14   1.96048e-13    1.0924e-14
          268   2.83609e-13   1.21496e-13    1.8375e-13   2.56097e-13   3.11537e-13
          269   1.28659e-13  -6.59789e-14  -1.08514e-13   1.28172e-13   1.59883e-15
          270   1.38223e-13   2.18424e-13   2.17347e-13   1.82494e-13   1.70319e-13
          271   1.11794e-13    3.4709e-13   3.98639e-13   7.32647e-14   3.40473e-13
          272   2.42139e-13   5.15257e-13   4.75315e-13   2.38799e-13   3.49583e-13
          273   1.08867e-13   5.25551e-14   4.33097e-14   1.39296e-13  -4.31214e-14
          274   1.92538e-13    3.5821e-15   4.25094e-14   1.78597e-13   1.15078e-13
          275   2.49434e-13   3.31918e-13   2.88804e-13    2.3203e-13   3.58346e-13
          276   2.33808e-13   1.42407e-13   1.97436e-13   2.41573e-13    2.6207e-13
          277   1.51439e-13   1.56757e-13   1.10007e-13   1.75662e-13   1.34509e-13
          278   2.03094e-13   2.86206e-13   2.72067e-13   1.87924e-13   1.70345e-13
          279   3.21287e-13    3.8213e-13   4.51725e-13   3.02689e-13   3.57322e-13
          280   5.73938e-14  -7.20489e-14  -8.59566e-14   7.76583e-14  -1.17151e-14
          281   1.86449e-13  -1.93253e-14  -8.02795e-14   1.84954e-13   4.76179e-14
          282   2.32665e-13   2.25627e-13   2.71033e-13   2.27316e-13    2.4818e-13
          283   2.97418e-13   5.48701e-13   5.72466e-13   3.09006e-13   5.45304e-13
          284   2.99252e-13   6.15085e-13   5.58636e-13   2.92484e-13   4.58314e-13
          285   1.30033e-13  -2.98335e-13  -2.26246e-13   1.28944e-13   -1.8032e-13
          286    3.1154e-13   2.42211e-13   1.97351e-13   3.19783e-13   3.20836e-13
          287   3.79942e-13   7.54876e-13   7.29502e-13   3.58765e-13    6.2043e-13
          288   3.11701e-14  -2.27537e-13  -1.55524e-13   4.87457e-14  -2.11071e-13
          289  -1.52805e-14  -1.31854e-13  -1.97338e-13   7.53871e-15  -2.05741e-13
          290   5.30139e-14  -3.03157e-14   1.23688e-14   6.82574e-15   8.57813e-14
          291    1.8123e-13   2.09887e-13   1.93018e-13   1.93572e-13   3.62313e-13
          292   2.42931e-13   5.42897e-13   5.15279e-13   2.80609e-13   4.64131e-13
          293   3.37304e-13   5.98856e-13   6.57024e-13   3.04134e-13   4.33258e-13
          294    1.7869e-13   5.23621e-14    5.7419e-15   1.71236e-13  -1.84054e-13
          295  -6.75193e-14   -7.7178e-13  -7.04074e-13  -5.53205e-14  -2.88591e-13
          296   1.33709e-13   3.97332e-13   3.15145e-13    1.3147e-13   5.59157e-13
          297   4.52643e-14   1.61884e-13    1.9302e-13   5.45314e-14  -1.57811e-13
          298   1.75374e-13   4.71401e-13   4.93281e-13   1.88762e-13   1.86053e-13
          299   1.41615e-13   1.22423e-13   9.48716e-14   1.07882e-13    2.0141e-13
          300   1.15385e-13  -1.41737e-13  -1.18942e-13   1.26462e-13   1.07678e-13
          301   9.98058e-14  -1.06744e-13  -1.27911e-13   1.16384e-13   8.70187e-14
          302  -8.63231e-14  -3.39624e-13  -3.23388e-13  -9.65834e-14  -1.98476e-13
          303   4.54296e-14   4.50103e-13    4.2153e-13   5.68626e-14   4.63246e-14
          304   2.19488e-13   6.37969e-13   6.79278e-13   1.98067e-13   4.89285e-13
          305   7.04413e-14  -4.67935e-13  -4.85095e-13   7.29558e-14   -1.8588e-13
          306   2.13598e-14   -1.4924e-13  -1.51524e-13   6.48906e-14  -2.44602e-14
          307   1.48504e-13   6.11656e-13   6.21662e-13   9.28408e-14   4.08358e-13
          308    2.4861e-13   6.65901e-13   6.78485e-13   2.51175e-13   4.53353e-13
          309   3.13611e-13   4.19854e-13   3.70652e-13   3.51233e-13   2.28675e-13
          310   2.06146e-13  -1.31927e-13  -6.58482e-14   1.99651e-13   8.90073e-14
          311    8.6903e-14  -4.91903e-13  -5.33584e-13   5.78405e-14  -2.67815e-13
          312   2.16862e-13   1.48136e-13   1.36281e-13   2.32716e-13   2.67687e-13
          313   2.09577e-13   5.16393e-13   5.65514e-13   2.00279e-13   4.29364e-13
          314   1.65573e-13   5.03913e-13   4.78443e-13   1.77648e-13   2.80368e-13
          315   1.18121e-13   2.09101e-13   1.92696e-13   1.15934e-13   6.70621e-14
          316   2.83306e-13  -1.28679e-13  -6.08973e-14   2.80096e-13   2.36189e-13
          317   1.67253e-13   5.13248e-16  -1.07246e-13   1.70001e-13   1.32244e-13
          318   2.61456e-13   6.77663e-13   7.39879e-13   2.76311e-13   4.03875e-13
          319   2.16108e-13   4.66723e-13   5.09755e-13   1.98627e-13   2.77655e-13
          320   1.51886e-13  -1.42139e-13   -2.2655e-13   1.53047e-13  -9.48942e-14
          321  -3.51395e-14  -6.83326e-13  -6.29689e-13   -2.7889e-14  -2.76929e-13
          322   2.96927e-13   9.94612e-13   9.73042e-13   3.01826e-13   7.55149e-13
          323   2.47973e-13    4.8395e-13    5.0271e-13    2.4615e-13   3.73444e-13
          324    3.8039e-13   5.32739e-13   5.03273e-13   3.91903e-13   4.05402e-13
          325   2.73588e-13  -1.73319e-13  -1.25929e-13   2.55777e-13   1.02884e-15
          326    2.1879e-13   -2.1213e-13  -2.32993e-13   2.27689e-13  -2.16278e-15
          327   2.46088e-13   5.52251e-13   4.92447e-13   2.52792e-13   4.41311e-13
          328   3.09132e-13   5.61926e-13   6.53184e-13   2.95603e-13   5.19278e-13
          329   2.70296e-13   2.58084e-13   2.44944e-13   2.85804e-13   2.49865e-13
          330   1.72063e-13   -4.3065e-14   -7.6129e-14   1.79251e-13   2.36678e-14
          331   3.13882e-14  -1.20018e-13  -1.22451e-13   1.82558e-14  -7.22783e-14
          332   1.51828e-13   9.88687e-14   1.25663e-13   1.43769e-13    9.8205e-14
          333   2.40492e-13   4.18767e-13    3.9586e-13   2.57857e-13   3.28552e-13
          334   2.64277e-13   6.04547e-13   6.13831e-13   2.54971e-13   5.29694e-13
          335   2.51692e-13   6.54982e-14   1.22156e-13   2.47588e-13   2.54818e-13
          336   1.43782e-13  -3.29231e-13  -4.08088e-13   1.47052e-13  -2.66195e-13
          337   3.05238e-13   7.28211e-13   7.45456e-13   3.11057e-13   4.52425e-13
          338   2.40979e-13   5.50567e-13   5.97196e-13   2.34789e-13   4.42732e-13
          339   3.43174e-13   3.13595e-13   2.77246e-13   3.44033e-13   3.64365e-13
          340   3.64355e-13   2.31426e-13   2.36786e-13   3.70054e-13   3.45283e-13
          341   2.09963e-13  -5.48095e-14  -4.43122e-14   2.16568e-13   3.32424e-14
          342   1.20855e-13  -1.21845e-13  -1.21921e-13   1.26352e-13   1.89518e-14
          343   2.63139e-13   5.23641e-13   4.62956e-13    2.4659e-13    3.7297e-13
          344   1.73791e-13   1.99015e-13   2.96513e-13   1.60413e-13   2.09294e-13
          345   1.88132e-13   3.24167e-13   2.69124e-13    2.2445e-13   2.29542e-13
          346    2.2075e-13   2.73793e-13   2.93144e-13   2.03015e-13   2.53256e-13
          347   2.15415e-13   1.30459e-13   1.41729e-13   2.04277e-13   1.77405e-13
          348   3.35011e-13   3.09987e-13     2.751e-13   3.55599e-13   3.58881e-13
          349   3.48514e-13   4.60784e-13   4.83291e-13   3.37527e-13   4.25309e-13
          350   2.48826e-13    1.9016e-13    2.1402e-13   2.58499e-13   1.55001e-13
          351    1.7066e-13   1.49707e-13   1.02799e-13   1.77925e-13   6.34898e-14
          352   2.36559e-13   9.13541e-14   1.47144e-13    2.1985e-13   2.22776e-13
          353   2.25641e-13   1.88792e-13   1.60695e-13      2.29e-13   3.05816e-13
          354   3.84648e-13   7.92163e-13   7.46688e-13   3.98882e-13    6.6633e-13