/*--------------------------------*- C++ -*----------------------------------*\
  =========                 |
  \\      /  F ield         | OpenFOAM: The Open Source CFD Toolbox
   \\    /   O peration     | Website:  https://openfoam.org
    \\  /    A nd           | Version:  7
     \\/     M anipulation  |
\*---------------------------------------------------------------------------*/
FoamFile
{
    version     2.0;
    format      ascii;
    class       volScalarField;
    location    "2428";
    object      k;
}
// * * * * * * * * * * * * * * * * * * * * * * * * * * * * * * * * * * * * * //

dimensions      [0 2 -2 0 0 0 0];

internalField   nonuniform List<scalar> 
11045
(
6.85573
7.20602
7.80583
8.57029
9.43067
10.3339
11.2406
12.1232
12.9631
13.7488
14.4736
15.1308
15.7111
16.2088
16.6218
16.9495
17.1912
17.3449
17.4073
17.3731
17.2351
16.9839
16.6086
16.0965
15.4347
14.6113
13.6182
12.4546
11.1312
9.67338
8.11321
6.51848
4.98697
3.62162
2.49772
1.64092
1.03027
0.618877
0.354697
0.192492
0.0975547
0.0451179
0.0183201
0.00609584
0.00144979
0.000180642
5.41816e-06
6.85504
7.20531
7.80507
8.56946
9.42977
10.3329
11.2396
12.1221
12.9619
13.7476
14.4724
15.1296
15.7098
16.2075
16.6205
16.9482
17.1898
17.3436
17.406
17.3718
17.2337
16.9826
16.6073
16.0952
15.4335
14.6101
13.617
12.4534
11.1302
9.67237
8.1123
6.51769
4.98632
3.62112
2.49735
1.64067
1.03011
0.61878
0.354641
0.192462
0.0975392
0.0451107
0.0183172
0.00609487
0.00144956
0.000180614
5.4173e-06
6.85373
7.20393
7.8036
8.56786
9.42803
10.331
11.2376
12.12
12.9597
13.7453
14.47
15.1271
15.7072
16.2049
16.6179
16.9456
17.1872
17.3409
17.4033
17.3691
17.2311
16.98
16.6046
16.0926
15.4309
14.6076
13.6145
12.4511
11.1279
9.67029
8.11041
6.51605
4.98497
3.62007
2.49659
1.64015
1.02978
0.618578
0.354524
0.192398
0.0975071
0.0450958
0.0183112
0.00609286
0.00144908
0.000180554
5.41551e-06
6.85181
7.20192
7.80143
8.56551
9.42548
10.3283
11.2346
12.1168
12.9564
13.7418
14.4664
15.1234
15.7035
16.2011
16.614
16.9416
17.1832
17.337
17.3994
17.3652
17.2271
16.976
16.6007
16.0887
15.427
14.6038
13.6108
12.4475
11.1245
9.66715
8.10757
6.51358
4.98293
3.61849
2.49545
1.63937
1.02928
0.618274
0.354349
0.192303
0.0974586
0.0450734
0.018302
0.00608982
0.00144836
0.000180464
5.41282e-06
6.84931
7.1993
7.79861
8.56243
9.42213
10.3246
11.2307
12.1127
12.952
13.7373
14.4617
15.1186
15.6985
16.196
16.6089
16.9365
17.178
17.3317
17.3941
17.3599
17.2219
16.9708
16.5955
16.0835
15.4219
14.5988
13.6059
12.4428
11.1201
9.66299
8.1038
6.5103
4.98022
3.61639
2.49392
1.63834
1.02862
0.61787
0.354116
0.192176
0.0973941
0.0450436
0.0182899
0.00608579
0.0014474
0.000180345
5.40923e-06
6.84624
7.19608
7.79514
8.55865
9.41801
10.3202
11.2259
12.1076
12.9467
13.7317
14.4559
15.1126
15.6924
16.1898
16.6025
16.9301
17.1716
17.3252
17.3876
17.3534
17.2153
16.9642
16.589
16.0771
15.4156
14.5925
13.5999
12.4369
11.1145
9.65781
8.09912
6.50622
4.97685
3.61378
2.49203
1.63705
1.02779
0.617368
0.353826
0.192018
0.0973141
0.0450065
0.0182749
0.00608079
0.00144621
0.000180196
5.40478e-06
6.84263
7.19228
7.79104
8.55418
9.41312
10.3149
11.2203
12.1016
12.9403
13.725
14.449
15.1054
15.6851
16.1823
16.595
16.9224
17.1639
17.3175
17.3798
17.3456
17.2075
16.9565
16.5813
16.0694
15.408
14.5851
13.5926
12.4299
11.1078
9.65164
8.09353
6.50136
4.97284
3.61067
2.48978
1.63552
1.02681
0.616769
0.353481
0.19183
0.0972186
0.0449624
0.0182569
0.00607482
0.00144479
0.000180019
5.39948e-06
6.83848
7.18793
7.78632
8.54902
9.40749
10.3088
11.2137
12.0946
12.9329
13.7173
14.441
15.0972
15.6766
16.1737
16.5862
16.9135
17.1549
17.3085
17.3708
17.3365
17.1985
16.9474
16.5723
16.0605
15.3992
14.5764
13.5842
12.4218
11.1001
9.64448
8.08705
6.49572
4.96819
3.60706
2.48716
1.63374
1.02567
0.616075
0.35308
0.191612
0.097108
0.0449112
0.0182362
0.0060679
0.00144315
0.000179814
5.39333e-06
6.83383
7.18303
7.78101
8.54319
9.40111
10.3018
11.2062
12.0866
12.9245
13.7085
14.4319
15.0878
15.667
16.1638
16.5762
16.9035
17.1448
17.2982
17.3605
17.3263
17.1882
16.9372
16.5621
16.0504
15.3892
14.5666
13.5746
12.4125
11.0914
9.63634
8.07967
6.4893
4.96289
3.60296
2.48419
1.63171
1.02437
0.615286
0.352625
0.191364
0.0969822
0.044853
0.0182125
0.00606003
0.00144127
0.000179581
5.38634e-06
6.82868
7.17759
7.7751
8.53671
9.394
10.2941
11.1979
12.0777
12.9152
13.6987
14.4216
15.0772
15.6562
16.1528
16.5651
16.8922
17.1334
17.2868
17.349
17.3147
17.1767
16.9257
16.5506
16.039
15.3779
14.5555
13.5638
12.4022
11.0815
9.62721
8.07141
6.48211
4.95696
3.59836
2.48085
1.62945
1.02291
0.614402
0.352115
0.191086
0.0968413
0.0447877
0.018186
0.00605122
0.00143918
0.00017932
5.3785e-06
6.82304
7.17164
7.76862
8.52957
9.38616
10.2856
11.1887
12.0679
12.9048
13.6878
14.4103
15.0656
15.6442
16.1406
16.5527
16.8796
17.1207
17.2741
17.3362
17.3019
17.1639
16.9129
16.5379
16.0264
15.3655
14.5433
13.5519
12.3907
11.0707
9.6171
8.06225
6.47414
4.95039
3.59327
2.47716
1.62694
1.0213
0.613423
0.35155
0.190779
0.0966852
0.0447155
0.0181567
0.00604145
0.00143686
0.000179031
5.36983e-06
6.81695
7.16519
7.76157
8.52179
9.37759
10.2762
11.1786
12.0571
12.8934
13.6759
14.3979
15.0527
15.631
16.1272
16.539
16.8658
17.1068
17.2601
17.3222
17.2879
17.1499
16.8989
16.524
16.0126
15.3518
14.5299
13.5388
12.3781
11.0587
9.60598
8.05218
6.46539
4.94316
3.58767
2.47311
1.62418
1.01954
0.612348
0.35093
0.190441
0.0965138
0.0446362
0.0181245
0.00603074
0.00143431
0.000178713
5.3603e-06
6.81041
7.15825
7.75397
8.51337
9.36829
10.266
11.1676
12.0454
12.8809
13.6628
14.3843
15.0387
15.6167
16.1126
16.5242
16.8508
17.0917
17.2449
17.3069
17.2726
17.1346
16.8837
16.5088
15.9975
15.3369
14.5152
13.5245
12.3643
11.0456
9.59386
8.04121
6.45584
4.93529
3.58157
2.46869
1.62118
1.01761
0.611176
0.350254
0.190073
0.096327
0.0445498
0.0180894
0.00601906
0.00143153
0.000178367
5.34992e-06
6.80346
7.15085
7.74583
8.50432
9.35828
10.2551
11.1557
12.0327
12.8675
13.6487
14.3696
15.0235
15.6011
16.0967
16.5081
16.8345
17.0752
17.2283
17.2903
17.256
17.118
16.8671
16.4923
15.9811
15.3207
14.4993
13.509
12.3494
11.0315
9.58071
8.02931
6.4455
4.92676
3.57497
2.4639
1.61792
1.01552
0.609907
0.349522
0.189675
0.0961247
0.0444561
0.0180513
0.0060064
0.00142852
0.000177992
5.33867e-06
6.79611
7.14301
7.73717
8.49467
9.34756
10.2433
11.1429
12.019
12.8529
13.6335
14.3538
15.0071
15.5843
16.0795
16.4907
16.8169
17.0575
17.2105
17.2724
17.238
17.1
16.8492
16.4745
15.9635
15.3033
14.4822
13.4923
12.3333
11.0162
9.56653
8.01648
6.43434
4.91756
3.56784
2.45874
1.61441
1.01327
0.60854
0.348733
0.189245
0.0959068
0.0443553
0.0180104
0.00599277
0.00142528
0.000177588
5.32656e-06
6.78839
7.13475
7.728
8.48441
9.33613
10.2307
11.1292
12.0043
12.8374
13.6171
14.3367
14.9895
15.5662
16.0611
16.472
16.798
17.0385
17.1913
17.2532
17.2188
17.0808
16.83
16.4554
15.9445
15.2846
14.4638
13.4744
12.316
10.9998
9.55131
8.0027
6.42236
4.90769
3.5602
2.4532
1.61065
1.01086
0.607073
0.347887
0.188785
0.0956729
0.0442471
0.0179664
0.00597815
0.0014218
0.000177155
5.31356e-06
6.78033
7.1261
7.71836
8.47356
9.324
10.2173
11.1147
11.9886
12.8208
13.5996
14.3185
14.9707
15.5469
16.0414
16.452
16.7778
17.0181
17.1708
17.2326
17.1982
17.0602
16.8094
16.4349
15.9242
15.2645
14.4441
13.4552
12.2975
10.9823
9.53502
7.98797
6.40956
4.89713
3.55203
2.44728
1.60663
1.00828
0.605505
0.346983
0.188292
0.0954231
0.0441315
0.0179195
0.00596252
0.00141808
0.000176692
5.29967e-06
6.77198
7.11709
7.70827
8.46215
9.31119
10.2031
11.0992
11.972
12.803
13.581
14.2991
14.9506
15.5263
16.0204
16.4306
16.7562
16.9963
17.149
17.2107
17.1762
17.0382
16.7875
16.4131
15.9026
15.2431
14.4231
13.4347
12.2778
10.9636
9.51766
7.97226
6.3959
4.88588
3.54332
2.44098
1.60235
1.00554
0.603836
0.34602
0.187768
0.0951571
0.0440084
0.0178695
0.00594589
0.00141413
0.000176199
5.28489e-06
6.76336
7.10776
7.69775
8.45019
9.29771
10.1881
11.0828
11.9543
12.7843
13.5612
14.2784
14.9292
15.5044
15.998
16.408
16.7333
16.9732
17.1257
17.1874
17.1528
17.0148
16.7642
16.3899
15.8796
15.2204
14.4007
13.4129
12.2568
10.9437
9.4992
7.95556
6.3814
4.87393
3.53407
2.43428
1.5978
1.00262
0.602064
0.344998
0.187212
0.0948748
0.0438777
0.0178164
0.00592823
0.00140993
0.000175676
5.2692e-06
6.75454
7.09814
7.68684
8.43771
9.28357
10.1724
11.0655
11.9356
12.7644
13.5403
14.2565
14.9066
15.4811
15.9743
16.3839
16.709
16.9487
17.1011
17.1626
17.128
16.9901
16.7395
16.3653
15.8551
15.1963
14.377
13.3899
12.2346
10.9226
9.47964
7.93787
6.36603
4.86127
3.52428
2.42719
1.59299
0.999536
0.600189
0.343917
0.186623
0.094576
0.0437394
0.0177603
0.00590954
0.00140548
0.000175122
5.25259e-06
6.74555
7.0883
7.67558
8.42474
9.2688
10.1558
11.0473
11.916
12.7434
13.5181
14.2334
14.8826
15.4565
15.9492
16.3584
16.6832
16.9227
17.075
17.1364
17.1018
16.9639
16.7134
16.3393
15.8293
15.1708
14.352
13.3655
12.2111
10.9003
9.45896
7.91918
6.34979
4.8479
3.51394
2.41971
1.58791
0.996279
0.598209
0.342775
0.186002
0.0942606
0.0435935
0.017701
0.00588982
0.00140079
0.000174537
5.23505e-06
6.73645
7.07827
7.664
8.41131
9.25341
10.1385
11.0283
11.8953
12.7213
13.4948
14.209
14.8573
15.4306
15.9228
16.3316
16.6561
16.8954
17.0474
17.1088
17.0742
16.9362
16.6858
16.3118
15.8021
15.1439
14.3256
13.3397
12.1863
10.8768
9.43715
7.89946
6.33267
4.8338
3.50304
2.41183
1.58255
0.99285
0.596125
0.341573
0.185347
0.0939284
0.0434398
0.0176386
0.00586905
0.00139585
0.000173922
5.21659e-06
6.72732
7.06811
7.65217
8.39746
9.23744
10.1205
11.0083
11.8736
12.6981
13.4703
14.1833
14.8307
15.4032
15.8949
16.3033
16.6275
16.8665
17.0185
17.0797
17.045
16.9071
16.6567
16.283
15.7734
15.1155
14.2977
13.3126
12.1602
10.8521
9.41421
7.87872
6.31466
4.81898
3.49159
2.40354
1.57693
0.989246
0.593935
0.34031
0.18466
0.0935796
0.0432783
0.017573
0.00584723
0.00139066
0.000173275
5.1972e-06
6.7182
7.05789
7.64013
8.38323
9.22092
10.1018
10.9875
11.851
12.6738
13.4446
14.1563
14.8028
15.3745
15.8656
16.2736
16.5974
16.8363
16.988
17.0492
17.0145
16.8765
16.6262
16.2526
15.7433
15.0858
14.2685
13.2842
12.1328
10.8261
9.39011
7.85694
6.29576
4.80343
3.47957
2.39485
1.57103
0.985469
0.59164
0.338987
0.183939
0.0932139
0.0431091
0.0175043
0.00582436
0.00138522
0.000172598
5.17688e-06
6.70919
7.04768
7.62794
8.36867
9.20388
10.0823
10.9658
11.8273
12.6484
13.4176
14.1281
14.7735
15.3444
15.8349
16.2424
16.5659
16.8045
16.9561
17.0172
16.9824
16.8445
16.5942
16.2208
15.7118
15.0546
14.2379
13.2543
12.104
10.7989
9.36486
7.83412
6.27597
4.78715
3.46699
2.38576
1.56486
0.981517
0.589239
0.337602
0.183186
0.0928314
0.0429321
0.0174324
0.00580044
0.00137954
0.000171889
5.15562e-06
6.70036
7.03754
7.61567
8.35384
9.18637
10.0622
10.9434
11.8027
12.6219
13.3895
14.0985
14.7428
15.3129
15.8027
16.2098
16.533
16.7713
16.9227
16.9836
16.9488
16.8109
16.5608
16.1875
15.6787
15.0219
14.2058
13.2231
12.074
10.7704
9.33845
7.81027
6.25527
4.77013
3.45385
2.37626
1.55842
0.977391
0.586732
0.336157
0.182399
0.0924322
0.0427474
0.0173573
0.00577547
0.0013736
0.000171149
5.13342e-06
6.69179
7.02756
7.60338
8.33878
9.16844
10.0415
10.9201
11.7771
12.5944
13.3602
14.0677
14.7108
15.28
15.7692
16.1757
16.4985
16.7365
16.8878
16.9486
16.9137
16.7758
16.5258
16.1527
15.6442
14.9878
14.1723
13.1905
12.0426
10.7407
9.31088
7.78536
6.23368
4.75238
3.44015
2.36636
1.55171
0.973091
0.58412
0.334651
0.181579
0.0920162
0.0425549
0.0172792
0.00574946
0.00136741
0.000170378
5.1103e-06
6.68358
7.01784
7.59116
8.32358
9.15013
10.0202
10.896
11.7506
12.5657
13.3297
14.0356
14.6774
15.2457
15.7341
16.1401
16.4626
16.7003
16.8513
16.9121
16.8771
16.7393
16.4893
16.1164
15.6082
14.9523
14.1374
13.1565
12.0099
10.7097
9.28214
7.75941
6.21118
4.73389
3.42588
2.35606
1.54472
0.968619
0.581404
0.333085
0.180727
0.0915836
0.0423547
0.0171979
0.0057224
0.00136098
0.000169576
5.08626e-06
6.67583
7.00844
7.57908
8.30829
9.13151
9.99838
10.8713
11.7233
12.5361
13.2981
14.0022
14.6427
15.2099
15.6977
16.1031
16.4251
16.6626
16.8134
16.874
16.8391
16.7012
16.4514
16.0786
15.5707
14.9153
14.1011
13.1211
11.9758
10.6774
9.25224
7.73242
6.18779
4.71468
3.41106
2.34536
1.53747
0.963976
0.578584
0.331459
0.179842
0.0911345
0.0421469
0.0171135
0.00569432
0.0013543
0.000168744
5.0613e-06
6.66865
6.99949
7.56723
8.29299
9.11263
9.97606
10.8458
11.695
12.5054
13.2652
13.9676
14.6066
15.1728
15.6597
16.0646
16.3862
16.6234
16.774
16.8345
16.7995
16.6617
16.4119
16.0393
15.5318
14.8768
14.0633
13.0843
11.9404
10.6439
9.22119
7.7044
6.16351
4.69474
3.39569
2.33426
1.52995
0.959163
0.575661
0.329774
0.178925
0.0906691
0.0419315
0.017026
0.00566522
0.00134737
0.000167882
5.03543e-06
6.66213
6.99108
7.55571
8.27776
9.09357
9.95332
10.8197
11.6659
12.4737
13.2313
13.9317
14.5692
15.1343
15.6204
16.0247
16.3458
16.5827
16.7331
16.7935
16.7584
16.6206
16.3709
15.9986
15.4914
14.8369
14.0241
13.0461
11.9037
10.6091
9.18898
7.67534
6.13834
4.67408
3.37977
2.32277
1.52217
0.954183
0.572636
0.328031
0.177976
0.0901877
0.0417087
0.0169355
0.00563511
0.00134021
0.000166989
5.00867e-06
6.6564
6.98331
7.5446
8.26269
9.07439
9.9302
10.793
11.636
12.441
13.1963
13.8946
14.5305
15.0944
15.5796
15.9833
16.304
16.5405
16.6907
16.7509
16.7158
16.578
16.3285
15.9564
15.4495
14.7955
13.9835
13.0066
11.8656
10.5731
9.15563
7.64525
6.11229
4.65271
3.3633
2.3109
1.51412
0.949038
0.569512
0.32623
0.176996
0.0896903
0.0414786
0.0168421
0.005604
0.00133282
0.000166068
4.98103e-06
6.65158
6.9763
7.53403
8.24787
9.05517
9.90679
10.7657
11.6054
12.4075
13.1602
13.8563
14.4905
15.0531
15.5374
15.9404
16.2607
16.4969
16.6468
16.7069
16.6717
16.534
16.2846
15.9127
15.4061
14.7527
13.9415
12.9657
11.8263
10.5359
9.12114
7.61415
6.08538
4.63064
3.34631
2.29865
1.50583
0.94373
0.56629
0.324373
0.175985
0.0891774
0.0412412
0.0167457
0.00557193
0.00132519
0.000165117
4.95252e-06
6.64778
6.97017
7.52408
8.23339
9.036
9.88313
10.738
11.5741
12.373
13.123
13.8168
14.4492
15.0105
15.4939
15.8962
16.2159
16.4518
16.6015
16.6614
16.6262
16.4885
16.2392
15.8675
15.3614
14.7085
13.8981
12.9234
11.7857
10.4974
9.08553
7.58205
6.0576
4.60787
3.32878
2.28602
1.49728
0.938263
0.562971
0.32246
0.174945
0.0886493
0.0409968
0.0166464
0.0055389
0.00131733
0.000164139
4.92316e-06
6.64513
6.96503
7.51488
8.21935
9.01696
9.85932
10.7099
11.5421
12.3378
13.0849
13.7762
14.4067
14.9665
15.4489
15.8505
16.1697
16.4052
16.5547
16.6145
16.5792
16.4415
16.1923
15.8209
15.3151
14.6629
13.8533
12.8798
11.7437
10.4578
9.04881
7.54896
6.02899
4.58443
3.31074
2.27302
1.48849
0.93264
0.559559
0.320493
0.173874
0.0881062
0.0407455
0.0165443
0.00550494
0.00130926
0.000163132
4.89298e-06
6.64376
6.96101
7.50653
8.20585
8.99814
9.83542
10.6813
11.5095
12.3017
13.0458
13.7345
14.3629
14.9212
15.4026
15.8034
16.1221
16.3572
16.5064
16.5661
16.5307
16.3931
16.144
15.7728
15.2675
14.6158
13.8071
12.8349
11.7005
10.4169
9.011
7.51489
5.99954
4.56031
3.2922
2.25967
1.47945
0.926866
0.556054
0.318474
0.172775
0.0875486
0.0404875
0.0164396
0.00547007
0.00130096
0.000162099
4.86198e-06
6.64379
6.95823
7.49916
8.19301
8.97964
9.81152
10.6525
11.4764
12.2649
13.0058
13.6918
14.318
14.8747
15.3549
15.7549
16.073
16.3077
16.4567
16.5162
16.4808
16.3432
16.0943
15.7234
15.2185
14.5674
13.7596
12.7887
11.6561
10.3749
8.97211
7.47987
5.96928
4.53554
3.27316
2.24597
1.47019
0.920943
0.55246
0.316403
0.171649
0.0869768
0.0402229
0.0163321
0.00543431
0.00129246
0.000161039
4.83021e-06
6.64534
6.95681
7.49287
8.18093
8.96156
9.78771
10.6235
11.4428
12.2274
12.9649
13.648
14.2719
14.8269
15.3058
15.705
16.0226
16.2569
16.4056
16.4649
16.4295
16.2919
16.0432
15.6725
15.168
14.5176
13.7107
12.7412
11.6104
10.3317
8.93216
7.4439
5.93822
4.51013
3.25364
2.23192
1.46069
0.914876
0.548779
0.314282
0.170494
0.0863912
0.039952
0.0162221
0.0053977
0.00128375
0.000159954
4.79766e-06
6.64855
6.95688
7.4878
8.16973
8.94401
9.76409
10.5944
11.4089
12.1892
12.9232
13.6033
14.2247
14.7778
15.2555
15.6538
15.9707
16.2046
16.3531
16.4123
16.3767
16.2392
15.9907
15.6203
15.1162
14.4665
13.6606
12.6923
11.5635
10.2873
8.89114
7.40698
5.90634
4.48406
3.23363
2.21753
1.45097
0.908663
0.54501
0.312111
0.169313
0.0857917
0.0396746
0.0161094
0.00536021
0.00127483
0.000158843
4.76434e-06
6.65353
6.95855
7.48406
8.15952
8.9271
9.74077
10.5652
11.3746
12.1505
12.8808
13.5578
14.1765
14.7276
15.2039
15.6013
15.9176
16.151
16.2992
16.3582
16.3226
16.1851
15.9367
15.5666
15.063
14.4139
13.609
12.6421
11.5152
10.2417
8.84883
7.36891
5.87349
4.45722
3.21303
2.20273
1.44097
0.902278
0.541138
0.30988
0.168099
0.0851758
0.0393896
0.0159937
0.0053217
0.00126567
0.000157702
4.73011e-06
6.66039
6.96194
7.48176
8.15043
8.91095
9.71786
10.5362
11.3401
12.1114
12.8378
13.5114
14.1272
14.6763
15.1511
15.5475
15.8631
16.0961
16.244
16.3028
16.2671
16.1297
15.8814
15.5116
15.0084
14.36
13.5561
12.5907
11.4657
10.1949
8.80541
7.32984
5.8398
4.42971
3.19194
2.18758
1.43074
0.895747
0.537177
0.307598
0.166858
0.084546
0.0390982
0.0158753
0.00528231
0.00125631
0.000156535
4.69511e-06
6.66926
6.96717
7.48103
8.14256
8.89567
9.69546
10.5073
11.3056
12.072
12.7942
13.4642
14.0771
14.6239
15.0972
15.4925
15.8075
16.04
16.1875
16.2461
16.2104
16.073
15.8248
15.4553
14.9526
14.3049
13.502
12.538
11.4151
10.147
8.76103
7.28992
5.8054
4.40163
3.17042
2.17213
1.42031
0.889092
0.533141
0.305274
0.165593
0.0839044
0.0388013
0.0157547
0.0052422
0.00124677
0.000155346
4.65945e-06
6.68022
6.97434
7.48197
8.13604
8.88137
9.67371
10.4788
11.271
12.0323
12.7501
13.4164
14.0261
14.5706
15.0422
15.4365
15.7506
15.9827
16.1298
16.1883
16.1524
16.015
15.7671
15.3978
14.8956
14.2486
13.4467
12.4843
11.3635
10.0982
8.71573
7.2492
5.77032
4.37302
3.14851
2.15641
1.40971
0.882322
0.529037
0.30291
0.164307
0.083252
0.0384994
0.0156321
0.0052014
0.00123706
0.000154137
4.62319e-06
6.69338
6.98356
7.48469
8.13097
8.86818
9.65269
10.4506
11.2366
11.9924
12.7056
13.368
13.9744
14.5164
14.9863
15.3793
15.6927
15.9242
16.071
16.1292
16.0933
15.9559
15.7081
15.3391
14.8374
14.1911
13.3904
12.4295
11.3108
10.0484
8.66957
7.20772
5.73461
4.34391
3.12623
2.14043
1.39893
0.875445
0.524869
0.30051
0.163002
0.0825895
0.0381929
0.0155076
0.00515997
0.00122721
0.00015291
4.58637e-06
6.70881
6.9949
7.48929
8.12746
8.85619
9.63254
10.423
11.2024
11.9525
12.6608
13.3191
13.9219
14.4613
14.9294
15.3212
15.6337
15.8647
16.0111
16.0691
16.0331
15.8957
15.648
15.2794
14.7781
14.1326
13.3329
12.3736
11.2571
9.99766
8.62258
7.16551
5.69829
4.31432
3.10359
2.12421
1.38799
0.868469
0.52064
0.298075
0.161677
0.0819175
0.0378819
0.0153814
0.00511796
0.00121722
0.000151665
4.54902e-06
6.7266
7.00846
7.49587
8.12562
8.84552
9.61335
10.396
11.1685
11.9126
12.6159
13.2698
13.8689
14.4055
14.8717
15.2622
15.5738
15.8041
15.9502
16.0079
15.9718
15.8345
15.5869
15.2186
14.7178
14.0731
13.2745
12.3168
11.2025
9.94608
8.57481
7.1226
5.66139
4.28428
3.08063
2.10775
1.37691
0.861399
0.516356
0.295608
0.160335
0.0812368
0.037567
0.0152535
0.00507539
0.0012071
0.000150403
4.51119e-06
6.7468
7.0243
7.5045
8.12553
8.83628
9.59524
10.3698
11.135
11.8729
12.5708
13.2202
13.8153
14.349
14.8131
15.2022
15.5129
15.7426
15.8882
15.9457
15.9095
15.7722
15.5248
15.1567
14.6565
14.0125
13.2151
12.259
11.1471
9.89367
8.52628
7.07905
5.62395
4.25382
3.05736
2.09109
1.36568
0.854244
0.512021
0.293112
0.158978
0.080548
0.0372483
0.015124
0.00503233
0.00119685
0.000149127
4.47292e-06
6.76947
7.04249
7.51526
8.1273
8.82857
9.57832
10.3444
11.1021
11.8335
12.5258
13.1703
13.7614
14.2919
14.7539
15.1415
15.4512
15.6802
15.8254
15.8826
15.8462
15.7089
15.4616
15.0939
14.5942
13.951
13.1548
12.2004
11.0907
9.84048
8.47703
7.03487
5.586
4.22296
3.0338
2.07423
1.35433
0.847009
0.507638
0.290589
0.157605
0.0798518
0.0369262
0.0149932
0.0049888
0.0011865
0.000147837
4.43423e-06
6.79464
7.06307
7.52822
8.13099
8.82247
9.56269
10.3199
11.0698
11.7944
12.4808
13.1204
13.7071
14.2344
14.694
15.0801
15.3887
15.617
15.7617
15.8186
15.782
15.6447
15.3976
15.0302
14.531
13.8886
13.0936
12.1409
11.0336
9.78654
8.42711
6.99011
5.54757
4.19173
3.00997
2.05719
1.34286
0.839701
0.503212
0.288041
0.15622
0.0791488
0.0366009
0.0148611
0.00494484
0.00117605
0.000146535
4.39516e-06
6.82233
7.08607
7.54343
8.1367
8.81809
9.54844
10.2965
11.0383
11.7558
12.4361
13.0704
13.6525
14.1764
14.6336
15.018
15.3255
15.5529
15.6971
15.7537
15.717
15.5797
15.3327
14.9656
14.4669
13.8254
13.0315
12.0805
10.9757
9.73189
8.37655
6.94479
5.50868
4.16016
2.9859
2.03998
1.33128
0.832327
0.498746
0.28547
0.154822
0.0784396
0.0362728
0.0147279
0.0049005
0.0011655
0.000145221
4.35575e-06
6.85255
7.11153
7.56093
8.14448
8.8155
9.53568
10.2743
11.0076
11.7177
12.3917
13.0205
13.5979
14.1181
14.5727
14.9553
15.2615
15.4882
15.6318
15.688
15.6511
15.5138
15.267
14.9002
14.402
13.7613
12.9687
12.0195
10.9171
9.67657
8.32539
6.89895
5.46938
4.12826
2.96159
2.02262
1.31961
0.824893
0.494245
0.28288
0.153413
0.0777249
0.0359421
0.0145936
0.00485581
0.00115487
0.000143896
4.31603e-06
6.88531
7.13945
7.58077
8.15438
8.81478
9.5245
10.2534
10.9779
11.6803
12.3476
12.9708
13.5432
14.0596
14.5114
14.892
15.197
15.4227
15.5657
15.6216
15.5845
15.4471
15.2004
14.8339
14.3364
13.6965
12.9051
11.9577
10.8578
9.62062
8.27367
6.85263
5.42968
4.09607
2.93709
2.00513
1.30785
0.817405
0.489711
0.280271
0.151994
0.0770052
0.0356091
0.0144584
0.00481082
0.00114417
0.000142563
4.27604e-06
6.92057
7.16983
7.60296
8.16647
8.81602
9.51498
10.2338
10.9492
11.6437
12.3041
12.9213
13.4885
14.0009
14.4498
14.8283
15.1318
15.3566
15.499
15.5545
15.5172
15.3797
15.1332
14.767
14.2699
13.6309
12.8408
11.8952
10.7978
9.56408
8.22141
6.80586
5.38962
4.06361
2.91239
1.9875
1.29601
0.809869
0.48515
0.277646
0.150567
0.0762812
0.0352742
0.0143223
0.00476555
0.00113341
0.000141222
4.2358e-06
6.95831
7.20266
7.62751
8.18078
8.81926
9.50722
10.2157
10.9217
11.6079
12.2612
12.8722
13.4341
13.9421
14.3878
14.7642
15.0662
15.29
15.4317
15.4867
15.4492
15.3117
15.0652
14.6993
14.2028
13.5647
12.7758
11.8321
10.7373
9.50698
8.16866
6.75867
5.34923
4.03091
2.88752
1.96977
1.2841
0.802292
0.480565
0.275008
0.149132
0.0755535
0.0349375
0.0141856
0.00472005
0.00112258
0.000139873
4.19536e-06
6.99848
7.2379
7.65443
8.19734
8.82457
9.50128
10.1991
10.8954
11.573
12.2188
12.8234
13.3799
13.8834
14.3257
14.6997
15.0001
15.2228
15.3638
15.4183
15.3805
15.243
14.9966
14.631
14.1351
13.4978
12.7102
11.7683
10.6762
9.44937
8.11546
6.7111
5.30854
3.99798
2.8625
1.95194
1.27213
0.79468
0.475958
0.272357
0.147691
0.0748226
0.0345993
0.0140483
0.00467436
0.00111172
0.000138519
4.15475e-06
7.04103
7.27552
7.68369
8.21617
8.83201
9.49726
10.1841
10.8705
11.5392
12.1773
12.7753
13.3261
13.8247
14.2635
14.635
14.9337
15.1552
15.2954
15.3494
15.3114
15.1737
14.9274
14.5621
14.0667
13.4303
12.6441
11.7041
10.6145
9.39129
8.06184
6.66318
5.26758
3.96486
2.83736
1.93403
1.26011
0.787038
0.471335
0.269698
0.146245
0.0740891
0.0342599
0.0139104
0.0046285
0.00110081
0.00013716
4.11399e-06
7.08588
7.31546
7.71529
8.23727
8.84161
9.49521
10.171
10.8471
11.5067
12.1367
12.7278
13.2727
13.7663
14.2013
14.5701
14.8669
15.0872
15.2265
15.28
15.2416
15.1039
14.8577
14.4927
13.9978
13.3623
12.5774
11.6393
10.5524
9.33277
8.00784
6.61495
5.22637
3.93157
2.8121
1.91605
1.24805
0.779372
0.466698
0.267031
0.144795
0.0733536
0.0339196
0.0137723
0.00458251
0.00108987
0.000135798
4.07312e-06
7.13295
7.35767
7.74918
8.26066
8.8534
9.4952
10.1596
10.8252
11.4754
12.0972
12.6811
13.2199
13.7082
14.1392
14.5051
14.8
15.0189
15.1573
15.2102
15.1715
15.0336
14.7874
14.4227
13.9284
13.2938
12.5102
11.574
10.4899
9.27386
7.95349
6.56643
5.18495
3.89812
2.78674
1.89802
1.23596
0.771688
0.462051
0.264358
0.143342
0.0726166
0.0335787
0.0136338
0.00453644
0.00107891
0.000134432
4.03217e-06
7.18215
7.40206
7.78532
8.28632
8.86742
9.49728
10.1501
10.805
11.4455
12.0588
12.6353
13.1678
13.6506
14.0773
14.4402
14.7329
14.9504
15.0878
15.1401
15.1009
14.9628
14.7167
14.3523
13.8586
13.2248
12.4426
11.5083
10.4269
9.21459
7.89883
6.51765
5.14333
3.86455
2.76131
1.87994
1.22385
0.763992
0.457398
0.261681
0.141887
0.0718786
0.0332373
0.0134951
0.0044903
0.00106794
0.000133065
3.99116e-06
7.23338
7.44855
7.82365
8.31424
8.88367
9.50151
10.1426
10.7866
11.4172
12.0217
12.5906
13.1164
13.5934
14.0157
14.3754
14.6658
14.8817
15.018
15.0696
15.03
14.8917
14.6456
14.2815
13.7883
13.1554
12.3745
11.4423
10.3636
9.15499
7.84389
6.46865
5.10156
3.83088
2.73582
1.86183
1.21172
0.756288
0.45274
0.259003
0.140431
0.0711401
0.0328956
0.0133564
0.00444414
0.00105696
0.000131697
3.95012e-06
7.28653
7.49705
7.86412
8.34437
8.90216
9.50791
10.1372
10.77
11.3904
11.9859
12.5469
13.0659
13.5369
13.9545
14.3107
14.5987
14.8128
14.948
14.9988
14.9588
14.8203
14.5742
14.2103
13.7176
13.0856
12.3061
11.3758
10.3
9.09509
7.7887
6.41946
5.05965
3.79712
2.71028
1.84369
1.19958
0.748581
0.448081
0.256324
0.138975
0.0704016
0.0325539
0.0132176
0.00439797
0.00104598
0.000130329
3.90909e-06
7.34148
7.54747
7.90665
8.37669
8.9229
9.51651
10.1338
10.7552
11.3653
11.9515
12.5043
13.0163
13.4811
13.8938
14.2463
14.5316
14.744
14.8779
14.9278
14.8873
14.7485
14.5024
14.1387
13.6466
13.0155
12.2373
11.3091
10.236
9.03494
7.73329
6.3701
5.01762
3.76329
2.68471
1.82555
1.18744
0.740875
0.443424
0.253646
0.137519
0.0696634
0.0322124
0.013079
0.00435182
0.00103501
0.000128961
3.86807e-06
7.39811
7.59968
7.95115
8.41114
8.94586
9.52734
10.1325
10.7425
11.3419
11.9186
12.463
12.9677
13.4261
13.8336
14.1822
14.4647
14.6751
14.8076
14.8567
14.8155
14.6765
14.4303
14.0669
13.5752
12.945
12.1683
11.2421
10.1718
8.97456
7.6777
6.32059
4.9755
3.72941
2.65912
1.80741
1.17531
0.733175
0.438772
0.250972
0.136066
0.0689261
0.0318713
0.0129404
0.00430573
0.00102404
0.000127595
3.82711e-06
7.45629
7.65359
7.99755
8.44768
8.97102
9.54041
10.1334
10.7317
11.3203
11.8873
12.423
12.92
13.372
13.774
14.1184
14.398
14.6062
14.7373
14.7854
14.7436
14.6042
14.358
13.9948
13.5036
12.8743
12.099
11.1748
10.1074
8.91397
7.62193
6.27097
4.93331
3.69551
2.63353
1.78928
1.16319
0.725485
0.434125
0.248301
0.134614
0.0681899
0.0315308
0.0128021
0.00425971
0.0010131
0.000126232
3.7862e-06
7.51589
7.70907
8.04574
8.48623
8.99837
9.55572
10.1366
10.723
11.3006
11.8575
12.3844
12.8736
13.3189
13.7151
14.0552
14.3315
14.5375
14.6671
14.714
14.6716
14.5318
14.2855
13.9224
13.4318
12.8034
12.0294
11.1073
10.0428
8.85322
7.56604
6.22125
4.89106
3.66159
2.60795
1.77116
1.15108
0.717808
0.429488
0.245635
0.133165
0.0674553
0.0311909
0.0126641
0.00421378
0.00100218
0.000124871
3.74539e-06
7.57676
7.76599
8.09563
8.52674
9.02785
9.57327
10.1419
10.7165
11.2829
11.8296
12.3473
12.8285
13.2668
13.6571
13.9925
14.2654
14.469
14.5968
14.6427
14.5995
14.4593
14.2129
13.8499
13.3598
12.7322
11.9596
11.0396
9.97799
8.79232
7.51003
6.17146
4.84879
3.62767
2.5824
1.75307
1.139
0.710148
0.424863
0.242977
0.131721
0.0667226
0.0308519
0.0125265
0.00416798
0.000991283
0.000123514
3.70467e-06
7.63878
7.82423
8.14711
8.56912
9.05943
9.59304
10.1495
10.7121
11.2672
11.8035
12.3118
12.7847
13.2159
13.5999
13.9304
14.1997
14.4007
14.5267
14.5713
14.5273
14.3866
14.14
13.7773
13.2876
12.6609
11.8897
10.9717
9.91305
8.7313
7.45393
6.12162
4.8065
3.59377
2.55687
1.73502
1.12695
0.702509
0.42025
0.240326
0.13028
0.065992
0.030514
0.0123892
0.00412231
0.000980422
0.00012216
3.66408e-06
7.70181
7.88367
8.20008
8.61329
9.09307
9.61503
10.1594
10.71
11.2536
11.7792
12.278
12.7424
13.1662
13.5437
13.8691
14.1346
14.3327
14.4568
14.5
14.4551
14.3139
14.0671
13.7045
13.2152
12.5894
11.8196
10.9037
9.84798
8.67018
7.39776
6.07174
4.76422
3.5599
2.53139
1.717
1.11493
0.694894
0.415652
0.237684
0.128844
0.065264
0.0301772
0.0122525
0.0040768
0.000969599
0.000120812
3.62363e-06
7.7657
7.94418
8.25442
8.65916
9.12868
9.6392
10.1715
10.7101
11.2421
11.757
12.2459
12.7016
13.1178
13.4886
13.8086
14.0699
14.2651
14.3871
14.4288
14.383
14.2412
13.9942
13.6316
13.1428
12.5178
11.7494
10.8356
9.78282
8.60899
7.34155
6.02186
4.72196
3.52607
2.50595
1.69904
1.10295
0.687305
0.411071
0.235052
0.127414
0.0645387
0.0298417
0.0121162
0.00403147
0.000958816
0.000119468
3.58334e-06
7.83032
8.00562
8.31002
8.70665
9.16623
9.66552
10.1859
10.7124
11.2328
11.7367
12.2156
12.6623
13.0707
13.4346
13.7489
14.0059
14.1979
14.3176
14.3578
14.3109
14.1685
13.9212
13.5586
13.0702
12.4461
11.6791
10.7674
9.71758
8.54775
7.28532
5.97198
4.67973
3.4923
2.48058
1.68113
1.09101
0.679745
0.406508
0.23243
0.12599
0.0638165
0.0295076
0.0119805
0.00398632
0.000948079
0.00011813
3.54321e-06
7.89554
8.06787
8.36677
8.75565
9.20563
9.69394
10.2026
10.7171
11.2256
11.7184
12.1871
12.6247
13.0249
13.3818
13.6902
13.9426
14.1312
14.2485
14.287
14.2389
14.0958
13.8482
13.4856
12.9976
12.3744
11.6088
10.6991
9.6523
8.48648
7.22908
5.92212
4.63755
3.45859
2.45528
1.66328
1.07912
0.672216
0.401966
0.22982
0.124572
0.0630974
0.0291749
0.0118455
0.00394138
0.000937389
0.000116798
3.50326e-06
7.96122
8.1308
8.42455
8.80608
9.2468
9.72441
10.2214
10.724
11.2207
11.7023
12.1606
12.5887
12.9805
13.3302
13.6324
13.88
14.065
14.1797
14.2164
14.1671
14.0232
13.7752
13.4126
12.925
12.3026
11.5384
10.6308
9.58698
8.4252
7.17285
5.8723
4.59544
3.42496
2.43006
1.6455
1.06727
0.664721
0.397444
0.227223
0.12316
0.0623819
0.0288439
0.011711
0.00389665
0.000926751
0.000115473
3.46351e-06
8.02723
8.19429
8.48324
8.85782
9.28967
9.75689
10.2425
10.7332
11.2181
11.6883
12.136
12.5545
12.9377
13.28
13.5757
13.8182
13.9995
14.1114
14.1461
14.0955
13.9507
13.7022
13.3397
12.8524
12.2308
11.4679
10.5625
9.52165
8.36392
7.11664
5.82254
4.55339
3.39142
2.40492
1.62779
1.05548
0.657262
0.392944
0.224638
0.121756
0.0616699
0.0285146
0.0115773
0.00385215
0.000916168
0.000114154
3.42396e-06
8.09345
8.25821
8.54273
8.91077
9.33416
9.79131
10.2657
10.7446
11.2177
11.6764
12.1134
12.5221
12.8966
13.2312
13.5202
13.7574
13.9345
14.0435
14.0761
14.024
13.8784
13.6294
13.2667
12.7798
12.1589
11.3975
10.4941
9.45632
8.30266
7.06048
5.77283
4.51144
3.35798
2.37988
1.61016
1.04375
0.64984
0.388468
0.222068
0.12036
0.0609618
0.028187
0.0114443
0.00380789
0.000905641
0.000112843
3.38461e-06
8.15976
8.32245
8.6029
8.96484
9.38017
9.82759
10.2911
10.7583
11.2196
11.6668
12.0929