/*--------------------------------*- C++ -*----------------------------------*\
  =========                 |
  \\      /  F ield         | OpenFOAM: The Open Source CFD Toolbox
   \\    /   O peration     | Website:  https://openfoam.org
    \\  /    A nd           | Version:  7
     \\/     M anipulation  |
\*---------------------------------------------------------------------------*/
FoamFile
{
    version     2.0;
    format      ascii;
    class       volScalarField;
    location    "2428";
    object      nut;
}
// * * * * * * * * * * * * * * * * * * * * * * * * * * * * * * * * * * * * * //

dimensions      [0 2 -1 0 0 0 0];

internalField   nonuniform List<scalar> 
11045
(
0.000327257
0.000321358
0.000311555
0.000299399
0.000285854
0.00027144
0.000256457
0.000241122
0.000225601
0.000209063
0.000191286
0.00017475
0.000159616
0.000145517
0.000132151
0.000119375
0.000107161
9.55343e-05
8.45373e-05
7.4212e-05
6.45923e-05
5.57024e-05
4.75569e-05
4.01611e-05
3.35109e-05
2.75906e-05
2.23854e-05
1.78655e-05
1.39896e-05
1.06861e-05
7.71496e-06
5.26899e-06
3.38746e-06
2.03448e-06
1.13608e-06
5.88886e-07
2.8333e-07
1.26388e-07
5.20151e-08
1.95278e-08
6.55038e-09
1.89532e-09
4.45713e-10
7.66424e-11
7.84512e-12
3.03936e-13
1.48458e-15
0.000327238
0.000321339
0.000311536
0.000299382
0.000285838
0.000271424
0.000256442
0.000241109
0.000225589
0.000209051
0.000191275
0.00017474
0.000159607
0.000145508
0.000132143
0.000119368
0.000107155
9.55283e-05
8.45319e-05
7.42072e-05
6.45881e-05
5.56987e-05
4.75537e-05
4.01584e-05
3.35086e-05
2.75887e-05
2.23837e-05
1.78641e-05
1.39885e-05
1.06852e-05
7.71422e-06
5.26844e-06
3.38707e-06
2.03422e-06
1.13592e-06
5.88801e-07
2.83288e-07
1.26368e-07
5.2007e-08
1.95248e-08
6.54935e-09
1.89502e-09
4.45642e-10
7.66302e-11
7.84387e-12
3.03887e-13
1.48434e-15
0.000327201
0.000321302
0.000311501
0.000299348
0.000285805
0.000271393
0.000256413
0.000241082
0.000225564
0.000209028
0.000191254
0.00017472
0.000159589
0.000145492
0.000132128
0.000119354
0.000107142
9.5517e-05
8.45218e-05
7.41982e-05
6.45801e-05
5.56917e-05
4.75476e-05
4.01531e-05
3.3504e-05
2.75848e-05
2.23805e-05
1.78614e-05
1.39863e-05
1.06834e-05
7.71273e-06
5.26731e-06
3.38626e-06
2.0337e-06
1.13561e-06
5.88626e-07
2.832e-07
1.26328e-07
5.19901e-08
1.95184e-08
6.54719e-09
1.8944e-09
4.45495e-10
7.66049e-11
7.84129e-12
3.03787e-13
1.48385e-15
0.000327146
0.000321249
0.000311449
0.000299298
0.000285758
0.000271349
0.000256371
0.000241043
0.000225527
0.000208995
0.000191223
0.000174692
0.000159563
0.000145468
0.000132106
0.000119334
0.000107124
9.55005e-05
8.4507e-05
7.4185e-05
6.45684e-05
5.56814e-05
4.75386e-05
4.01452e-05
3.34973e-05
2.75791e-05
2.23757e-05
1.78574e-05
1.3983e-05
1.06808e-05
7.71049e-06
5.26562e-06
3.38506e-06
2.0329e-06
1.13513e-06
5.88362e-07
2.83068e-07
1.26267e-07
5.19647e-08
1.95087e-08
6.54395e-09
1.89346e-09
4.45274e-10
7.65668e-11
7.83738e-12
3.03636e-13
1.48311e-15
0.000327075
0.000321179
0.000311382
0.000299234
0.000285697
0.000271291
0.000256317
0.000240991
0.000225479
0.000208951
0.000191183
0.000174655
0.000159529
0.000145436
0.000132077
0.000119308
0.0001071
9.54788e-05
8.44875e-05
7.41676e-05
6.45529e-05
5.56678e-05
4.75266e-05
4.01349e-05
3.34884e-05
2.75715e-05
2.23693e-05
1.78521e-05
1.39787e-05
1.06772e-05
7.70752e-06
5.26336e-06
3.38345e-06
2.03184e-06
1.13449e-06
5.88011e-07
2.82892e-07
1.26187e-07
5.19309e-08
1.94959e-08
6.53963e-09
1.89221e-09
4.44979e-10
7.65161e-11
7.83219e-12
3.03435e-13
1.48213e-15
0.000326988
0.000321093
0.000311299
0.000299155
0.000285621
0.000271219
0.000256249
0.000240928
0.00022542
0.000208898
0.000191134
0.00017461
0.000159487
0.000145398
0.000132041
0.000119275
0.00010707
9.5452e-05
8.44633e-05
7.4146e-05
6.45338e-05
5.56508e-05
4.75118e-05
4.0122e-05
3.34773e-05
2.7562e-05
2.23613e-05
1.78455e-05
1.39733e-05
1.06729e-05
7.70382e-06
5.26056e-06
3.38146e-06
2.03053e-06
1.1337e-06
5.87575e-07
2.82673e-07
1.26086e-07
5.1889e-08
1.94801e-08
6.53427e-09
1.89065e-09
4.44613e-10
7.64532e-11
7.82575e-12
3.03185e-13
1.48091e-15
0.000326885
0.000320993
0.000311202
0.000299061
0.000285532
0.000271135
0.00025617
0.000240854
0.000225351
0.000208834
0.000191076
0.000174557
0.000159437
0.000145352
0.000131999
0.000119236
0.000107035
9.54201e-05
8.44346e-05
7.41203e-05
6.45109e-05
5.56307e-05
4.74942e-05
4.01067e-05
3.34641e-05
2.75508e-05
2.23519e-05
1.78376e-05
1.39668e-05
1.06677e-05
7.69941e-06
5.25722e-06
3.37908e-06
2.02896e-06
1.13275e-06
5.87056e-07
2.82412e-07
1.25967e-07
5.1839e-08
1.94611e-08
6.52788e-09
1.8888e-09
4.44177e-10
7.63781e-11
7.81807e-12
3.02888e-13
1.47946e-15
0.000326768
0.000320877
0.00031109
0.000298953
0.00028543
0.000271038
0.000256078
0.000240767
0.00022527
0.000208762
0.00019101
0.000174495
0.00015938
0.000145299
0.00013195
0.000119192
0.000106994
9.53831e-05
8.44013e-05
7.40905e-05
6.44845e-05
5.56073e-05
4.74737e-05
4.00889e-05
3.34488e-05
2.75377e-05
2.23409e-05
1.78285e-05
1.39593e-05
1.06616e-05
7.6943e-06
5.25335e-06
3.37633e-06
2.02715e-06
1.13166e-06
5.86454e-07
2.8211e-07
1.25828e-07
5.1781e-08
1.94391e-08
6.52048e-09
1.88665e-09
4.43671e-10
7.62912e-11
7.80917e-12
3.02543e-13
1.47777e-15
0.000326636
0.000320748
0.000310964
0.000298832
0.000285314
0.000270928
0.000255974
0.00024067
0.000225179
0.00020868
0.000190934
0.000174425
0.000159315
0.000145239
0.000131895
0.000119141
0.000106948
9.53411e-05
8.43635e-05
7.40567e-05
6.44544e-05
5.55808e-05
4.74504e-05
4.00687e-05
3.34314e-05
2.75229e-05
2.23284e-05
1.78181e-05
1.39508e-05
1.06547e-05
7.68848e-06
5.24895e-06
3.37319e-06
2.02508e-06
1.13041e-06
5.85768e-07
2.81767e-07
1.25671e-07
5.17151e-08
1.94142e-08
6.51206e-09
1.88421e-09
4.43096e-10
7.61922e-11
7.79904e-12
3.02151e-13
1.47586e-15
0.00032649
0.000320604
0.000310824
0.000298698
0.000285186
0.000270806
0.000255859
0.000240561
0.000225077
0.000208588
0.00019085
0.000174347
0.000159243
0.000145171
0.000131832
0.000119084
0.000106896
9.52939e-05
8.43211e-05
7.40187e-05
6.44206e-05
5.55509e-05
4.74243e-05
4.0046e-05
3.34119e-05
2.75063e-05
2.23144e-05
1.78065e-05
1.39413e-05
1.0647e-05
7.68196e-06
5.24401e-06
3.36968e-06
2.02277e-06
1.12901e-06
5.85001e-07
2.81382e-07
1.25494e-07
5.16413e-08
1.93862e-08
6.50262e-09
1.88147e-09
4.42452e-10
7.60814e-11
7.7877e-12
3.01711e-13
1.47371e-15
0.00032633
0.000320447
0.000310672
0.00029855
0.000285044
0.000270671
0.000255731
0.000240441
0.000224964
0.000208487
0.000190758
0.000174261
0.000159162
0.000145097
0.000131764
0.00011902
0.000106838
9.52417e-05
8.4274e-05
7.39766e-05
6.43832e-05
5.55179e-05
4.73953e-05
4.00208e-05
3.33902e-05
2.74878e-05
2.22988e-05
1.77936e-05
1.39307e-05
1.06384e-05
7.67473e-06
5.23853e-06
3.36578e-06
2.0202e-06
1.12747e-06
5.8415e-07
2.80955e-07
1.25299e-07
5.15595e-08
1.93552e-08
6.49217e-09
1.87844e-09
4.41739e-10
7.59587e-11
7.77513e-12
3.01224e-13
1.47133e-15
0.000326157
0.000320277
0.000310506
0.00029839
0.00028489
0.000270524
0.000255592
0.00024031
0.000224841
0.000208377
0.000190657
0.000174167
0.000159074
0.000145015
0.000131688
0.000118951
0.000106775
9.51843e-05
8.42223e-05
7.39303e-05
6.4342e-05
5.54816e-05
4.73635e-05
3.99932e-05
3.33664e-05
2.74675e-05
2.22818e-05
1.77794e-05
1.39191e-05
1.0629e-05
7.66678e-06
5.23251e-06
3.3615e-06
2.01739e-06
1.12577e-06
5.83217e-07
2.80487e-07
1.25084e-07
5.14697e-08
1.93211e-08
6.4807e-09
1.87511e-09
4.40955e-10
7.5824e-11
7.76134e-12
3.0069e-13
1.46872e-15
0.000325972
0.000320094
0.000310327
0.000298217
0.000284724
0.000270366
0.000255441
0.000240167
0.000224708
0.000208258
0.000190547
0.000174064
0.000158978
0.000144926
0.000131605
0.000118875
0.000106706
9.51216e-05
8.41659e-05
7.38798e-05
6.42971e-05
5.54419e-05
4.73288e-05
3.9963e-05
3.33405e-05
2.74454e-05
2.22631e-05
1.77639e-05
1.39064e-05
1.06188e-05
7.65812e-06
5.22595e-06
3.35683e-06
2.01431e-06
1.12391e-06
5.82198e-07
2.79976e-07
1.2485e-07
5.13718e-08
1.9284e-08
6.46819e-09
1.87149e-09
4.40102e-10
7.56771e-11
7.74631e-12
3.00108e-13
1.46588e-15
0.000325774
0.000319899
0.000310137
0.000298032
0.000284546
0.000270195
0.000255279
0.000240014
0.000224563
0.00020813
0.000190429
0.000173954
0.000158875
0.000144829
0.000131516
0.000118793
0.000106631
9.50537e-05
8.41046e-05
7.3825e-05
6.42484e-05
5.53989e-05
4.72911e-05
3.99303e-05
3.33123e-05
2.74214e-05
2.22429e-05
1.77471e-05
1.38927e-05
1.06077e-05
7.64872e-06
5.21884e-06
3.35177e-06
2.01098e-06
1.12191e-06
5.81095e-07
2.79423e-07
1.24597e-07
5.12658e-08
1.92439e-08
6.45465e-09
1.86756e-09
4.39177e-10
7.55181e-11
7.73003e-12
2.99477e-13
1.4628e-15
0.000325565
0.000319692
0.000309934
0.000297836
0.000284356
0.000270013
0.000255105
0.000239849
0.000224408
0.000207993
0.000190302
0.000173835
0.000158764
0.000144725
0.00013142
0.000118704
0.00010655
9.49803e-05
8.40386e-05
7.37659e-05
6.41958e-05
5.53525e-05
4.72505e-05
3.98949e-05
3.32819e-05
2.73955e-05
2.22211e-05
1.7729e-05
1.38778e-05
1.05957e-05
7.63858e-06
5.21116e-06
3.34632e-06
2.00739e-06
1.11974e-06
5.79906e-07
2.78827e-07
1.24324e-07
5.11515e-08
1.92006e-08
6.44006e-09
1.86333e-09
4.38181e-10
7.53467e-11
7.71248e-12
2.98797e-13
1.45948e-15
0.000325346
0.000319475
0.000309721
0.000297628
0.000284154
0.000269819
0.00025492
0.000239674
0.000224243
0.000207847
0.000190167
0.000173709
0.000158644
0.000144614
0.000131316
0.000118609
0.000106463
9.49016e-05
8.39676e-05
7.37023e-05
6.41393e-05
5.53026e-05
4.72068e-05
3.9857e-05
3.32493e-05
2.73676e-05
2.21977e-05
1.77095e-05
1.38619e-05
1.05828e-05
7.62769e-06
5.20292e-06
3.34046e-06
2.00354e-06
1.11742e-06
5.78631e-07
2.78188e-07
1.24031e-07
5.1029e-08
1.91541e-08
6.4244e-09
1.85879e-09
4.37112e-10
7.51629e-11
7.69366e-12
2.98068e-13
1.45592e-15
0.000325116
0.000319248
0.000309497
0.000297409
0.000283942
0.000269614
0.000254724
0.000239487
0.000224067
0.000207692
0.000190024
0.000173574
0.000158517
0.000144495
0.000131206
0.000118508
0.00010637
9.48173e-05
8.38917e-05
7.36343e-05
6.40789e-05
5.52492e-05
4.716e-05
3.98164e-05
3.32143e-05
2.73378e-05
2.21726e-05
1.76887e-05
1.38448e-05
1.0569e-05
7.61603e-06
5.1941e-06
3.33419e-06
1.99941e-06
1.11494e-06
5.77267e-07
2.77505e-07
1.23718e-07
5.0898e-08
1.91045e-08
6.40768e-09
1.85394e-09
4.3597e-10
7.49664e-11
7.67356e-12
2.97289e-13
1.45211e-15
0.000324878
0.000319011
0.000309264
0.00029718
0.000283719
0.000269398
0.000254517
0.00023929
0.00022388
0.000207529
0.000189873
0.000173431
0.000158382
0.000144368
0.000131088
0.000118399
0.000106271
9.47274e-05
8.38106e-05
7.35618e-05
6.40144e-05
5.51923e-05
4.71101e-05
3.9773e-05
3.3177e-05
2.73061e-05
2.21458e-05
1.76664e-05
1.38266e-05
1.05542e-05
7.6036e-06
5.1847e-06
3.32751e-06
1.99502e-06
1.11229e-06
5.75814e-07
2.76777e-07
1.23384e-07
5.07586e-08
1.90517e-08
6.38987e-09
1.84877e-09
4.34754e-10
7.47573e-11
7.65215e-12
2.9646e-13
1.44806e-15
0.000324631
0.000318766
0.000309022
0.000296942
0.000283485
0.000269171
0.000254299
0.000239082
0.000223683
0.000207357
0.000189714
0.00017328
0.000158239
0.000144233
0.000130963
0.000118284
0.000106165
9.46318e-05
8.37245e-05
7.34846e-05
6.39457e-05
5.51317e-05
4.7057e-05
3.9727e-05
3.31374e-05
2.72723e-05
2.21174e-05
1.76428e-05
1.38073e-05
1.05386e-05
7.59039e-06
5.1747e-06
3.32041e-06
1.99035e-06
1.10948e-06
5.74272e-07
2.76004e-07
1.23031e-07
5.06105e-08
1.89956e-08
6.37097e-09
1.84329e-09
4.33464e-10
7.45353e-11
7.62942e-12
2.95579e-13
1.44376e-15
0.000324378
0.000318514
0.000308771
0.000296694
0.000283242
0.000268935
0.00025407
0.000238863
0.000223476
0.000207178
0.000189548
0.000173121
0.000158088
0.000144091
0.00013083
0.000118162
0.000106054
9.45304e-05
8.36331e-05
7.34028e-05
6.3873e-05
5.50675e-05
4.70008e-05
3.96781e-05
3.30953e-05
2.72364e-05
2.20872e-05
1.76177e-05
1.37868e-05
1.0522e-05
7.57638e-06
5.16411e-06
3.31289e-06
1.98541e-06
1.10651e-06
5.72638e-07
2.75186e-07
1.22656e-07
5.04539e-08
1.89362e-08
6.35096e-09
1.83749e-09
4.32098e-10
7.43004e-11
7.60537e-12
2.94648e-13
1.43921e-15
0.00032412
0.000318256
0.000308514
0.000296439
0.00028299
0.000268689
0.000253832
0.000238635
0.000223258
0.000206991
0.000189373
0.000172955
0.000157929
0.000143941
0.000130691
0.000118033
0.000105936
9.44231e-05
8.35364e-05
7.33162e-05
6.3796e-05
5.49995e-05
4.69412e-05
3.96263e-05
3.30507e-05
2.71985e-05
2.20553e-05
1.75912e-05
1.37651e-05
1.05045e-05
7.56157e-06
5.15291e-06
3.30493e-06
1.98018e-06
1.10336e-06
5.70913e-07
2.74322e-07
1.2226e-07
5.02885e-08
1.88736e-08
6.32984e-09
1.83136e-09
4.30656e-10
7.40524e-11
7.57999e-12
2.93664e-13
1.43441e-15
0.000323857
0.000317993
0.000308251
0.000296177
0.00028273
0.000268433
0.000253584
0.000238396
0.000223031
0.000206796
0.000189192
0.000172781
0.000157762
0.000143784
0.000130543
0.000117897
0.000105811
9.431e-05
8.34344e-05
7.32249e-05
6.37147e-05
5.49277e-05
4.68783e-05
3.95717e-05
3.30037e-05
2.71584e-05
2.20216e-05
1.75633e-05
1.37422e-05
1.04859e-05
7.54594e-06
5.1411e-06
3.29655e-06
1.97467e-06
1.10005e-06
5.69096e-07
2.73412e-07
1.21844e-07
5.01143e-08
1.88076e-08
6.30761e-09
1.82491e-09
4.29139e-10
7.37913e-11
7.55326e-12
2.92628e-13
1.42935e-15
0.000323592
0.000317726
0.000307983
0.000295908
0.000282463
0.000268169
0.000253327
0.000238148
0.000222793
0.000206595
0.000189004
0.000172599
0.000157588
0.000143618
0.000130388
0.000117753
0.00010568
9.41909e-05
8.33269e-05
7.31287e-05
6.36291e-05
5.48522e-05
4.68121e-05
3.95142e-05
3.29541e-05
2.71162e-05
2.19861e-05
1.75338e-05
1.37181e-05
1.04664e-05
7.52948e-06
5.12866e-06
3.28772e-06
1.96888e-06
1.09657e-06
5.67186e-07
2.72456e-07
1.21406e-07
4.99313e-08
1.87383e-08
6.28425e-09
1.81814e-09
4.27544e-10
7.3517e-11
7.52518e-12
2.91541e-13
1.42403e-15
0.000323326
0.000317458
0.000307712
0.000295635
0.000282189
0.000267898
0.000253061
0.000237891
0.000222547
0.000206388
0.000188809
0.000172411
0.000157406
0.000143445
0.000130226
0.000117603
0.000105542
9.40658e-05
8.32141e-05
7.30275e-05
6.35392e-05
5.47728e-05
4.67426e-05
3.94537e-05
3.29021e-05
2.70719e-05
2.19488e-05
1.75028e-05
1.36927e-05
1.0446e-05
7.5122e-06
5.11561e-06
3.27846e-06
1.9628e-06
1.09291e-06
5.65183e-07
2.71454e-07
1.20947e-07
4.97395e-08
1.86656e-08
6.25976e-09
1.81104e-09
4.25873e-10
7.32295e-11
7.49575e-12
2.904e-13
1.41846e-15
0.000323061
0.00031719
0.00030744
0.000295358
0.00028191
0.000267619
0.000252787
0.000237624
0.000222291
0.000206174
0.000188609
0.000172215
0.000157216
0.000143264
0.000130056
0.000117446
0.000105398
9.39346e-05
8.30957e-05
7.29215e-05
6.34448e-05
5.46895e-05
4.66696e-05
3.93903e-05
3.28475e-05
2.70255e-05
2.19097e-05
1.74704e-05
1.36662e-05
1.04245e-05
7.49409e-06
5.10192e-06
3.26876e-06
1.95643e-06
1.08909e-06
5.63086e-07
2.70405e-07
1.20467e-07
4.95389e-08
1.85896e-08
6.23415e-09
1.80361e-09
4.24124e-10
7.29288e-11
7.46496e-12
2.89208e-13
1.41264e-15
0.000322798
0.000316923
0.000307167
0.000295079
0.000281626
0.000267335
0.000252506
0.00023735
0.000222026
0.000205955
0.000188402
0.000172013
0.000157019
0.000143075
0.000129879
0.000117281
0.000105247
9.37973e-05
8.29718e-05
7.28105e-05
6.33461e-05
5.46022e-05
4.65932e-05
3.93239e-05
3.27903e-05
2.69768e-05
2.18688e-05
1.74364e-05
1.36384e-05
1.0402e-05
7.47513e-06
5.08761e-06
3.25861e-06
1.94978e-06
1.08509e-06
5.60896e-07
2.69309e-07
1.19966e-07
4.93294e-08
1.85103e-08
6.20742e-09
1.79586e-09
4.223e-10
7.26149e-11
7.43283e-12
2.87963e-13
1.40656e-15
0.000322541
0.000316661
0.000306895
0.000294799
0.000281339
0.000267045
0.000252218
0.000237068
0.000221753
0.000205732
0.000188191
0.000171805
0.000156815
0.000142879
0.000129694
0.00011711
0.000105089
9.36539e-05
8.28424e-05
7.26945e-05
6.32429e-05
5.45111e-05
4.65133e-05
3.92546e-05
3.27305e-05
2.69259e-05
2.1826e-05
1.74009e-05
1.36093e-05
1.03786e-05
7.45533e-06
5.07266e-06
3.24802e-06
1.94283e-06
1.08092e-06
5.58612e-07
2.68167e-07
1.19444e-07
4.91111e-08
1.84276e-08
6.17956e-09
1.78778e-09
4.20398e-10
7.22878e-11
7.39935e-12
2.86666e-13
1.40022e-15
0.000322291
0.000316403
0.000306628
0.00029452
0.00028105
0.000266751
0.000251924
0.000236778
0.000221472
0.000205505
0.000187976
0.000171591
0.000156604
0.000142676
0.000129502
0.000116931
0.000104925
9.35044e-05
8.27074e-05
7.25735e-05
6.31352e-05
5.4416e-05
4.643e-05
3.91822e-05
3.26682e-05
2.68729e-05
2.17814e-05
1.73638e-05
1.3579e-05
1.03541e-05
7.43468e-06
5.05708e-06
3.23698e-06
1.9356e-06
1.07658e-06
5.56236e-07
2.66979e-07
1.189e-07
4.88841e-08
1.83417e-08
6.1506e-09
1.77938e-09
4.18421e-10
7.19477e-11
7.36454e-12
2.85317e-13
1.39364e-15
0.00032205
0.000316154
0.000306365
0.000294243
0.000280761
0.000266454
0.000251625
0.000236483
0.000221184
0.000205274
0.000187756
0.000171371
0.000156387
0.000142465
0.000129303
0.000116745
0.000104754
9.33489e-05
8.25668e-05
7.24475e-05
6.30231e-05
5.4317e-05
4.63432e-05
3.91068e-05
3.26033e-05
2.68176e-05
2.17349e-05
1.73253e-05
1.35475e-05
1.03286e-05
7.41319e-06
5.04087e-06
3.2255e-06
1.92808e-06
1.07207e-06
5.53767e-07
2.65745e-07
1.18336e-07
4.86484e-08
1.82524e-08
6.12052e-09
1.77066e-09
4.16368e-10
7.15947e-11
7.32839e-12
2.83917e-13
1.3868e-15
0.000321821
0.000315915
0.00030611
0.00029397
0.000280472
0.000266155
0.000251322
0.000236182
0.000220889
0.000205042
0.000187534
0.000171147
0.000156163
0.000142248
0.000129096
0.000116553
0.000104577
9.31873e-05
8.24208e-05
7.23165e-05
6.29065e-05
5.4214e-05
4.6253e-05
3.90284e-05
3.25358e-05
2.67602e-05
2.16866e-05
1.72852e-05
1.35147e-05
1.03021e-05
7.39086e-06
5.02402e-06
3.21358e-06
1.92028e-06
1.06739e-06
5.51207e-07
2.64466e-07
1.17751e-07
4.84041e-08
1.81599e-08
6.08936e-09
1.76163e-09
4.14241e-10
7.12288e-11
7.29094e-12
2.82466e-13
1.37971e-15
0.000321606
0.000315688
0.000305864
0.000293703
0.000280186
0.000265856
0.000251017
0.000235876
0.000220588
0.000204807
0.000187309
0.000170918
0.000155933
0.000142024
0.000128882
0.000116353
0.000104393
9.30196e-05
8.22692e-05
7.21805e-05
6.27854e-05
5.4107e-05
4.61593e-05
3.8947e-05
3.24657e-05
2.67006e-05
2.16364e-05
1.72435e-05
1.34807e-05
1.02746e-05
7.36768e-06
5.00655e-06
3.20122e-06
1.91219e-06
1.06254e-06
5.48556e-07
2.63142e-07
1.17146e-07
4.81513e-08
1.80642e-08
6.05711e-09
1.75228e-09
4.12041e-10
7.08503e-11
7.25219e-12
2.80964e-13
1.37238e-15
0.000321408
0.000315476
0.000305629
0.000293444
0.000279905
0.000265557
0.000250709
0.000235566
0.000220282
0.000204572
0.000187082
0.000170685
0.000155698
0.000141793
0.000128662
0.000116147
0.000104203
9.2846e-05
8.21122e-05
7.20396e-05
6.266e-05
5.39962e-05
4.60621e-05
3.88626e-05
3.2393e-05
2.66387e-05
2.15844e-05
1.72004e-05
1.34454e-05
1.02461e-05
7.34367e-06
4.98846e-06
3.18842e-06
1.90382e-06
1.05753e-06
5.45815e-07
2.61774e-07
1.16521e-07
4.78902e-08
1.79654e-08
6.02381e-09
1.74262e-09
4.09768e-10
7.04593e-11
7.21217e-12
2.79414e-13
1.3648e-15
0.00032123
0.000315281
0.000305409
0.000293195
0.000279629
0.000265261
0.000250401
0.000235253
0.000219971
0.000204337
0.000186855
0.000170449
0.000155457
0.000141556
0.000128435
0.000115934
0.000104006
9.26664e-05
8.19497e-05
7.18938e-05
6.25301e-05
5.38814e-05
4.59616e-05
3.87753e-05
3.23178e-05
2.65747e-05
2.15306e-05
1.71557e-05
1.34089e-05
1.02167e-05
7.31883e-06
4.96974e-06
3.1752e-06
1.89517e-06
1.05235e-06
5.42987e-07
2.60362e-07
1.15876e-07
4.76208e-08
1.78634e-08
5.98946e-09
1.73266e-09
4.07423e-10
7.0056e-11
7.17089e-12
2.77815e-13
1.35699e-15
0.000321074
0.000315106
0.000305204
0.000292957
0.00027936
0.000264968
0.000250093
0.000234937
0.000219655
0.000204103
0.000186626
0.00017021
0.000155212
0.000141313
0.000128202
0.000115715
0.000103804
9.2481e-05
8.17818e-05
7.1743e-05
6.23958e-05
5.37628e-05
4.58576e-05
3.86849e-05
3.224e-05
2.65085e-05
2.14749e-05
1.71095e-05
1.33711e-05
1.01862e-05
7.29317e-06
4.95042e-06
3.16154e-06
1.88625e-06
1.04701e-06
5.40071e-07
2.58907e-07
1.15211e-07
4.73434e-08
1.77584e-08
5.95409e-09
1.7224e-09
4.05009e-10
6.96408e-11
7.12838e-12
2.76168e-13
1.34895e-15
0.000320942
0.000314954
0.000305019
0.000292734
0.000279101
0.000264681
0.000249786
0.000234621
0.000219337
0.000203869
0.000186397
0.000169969
0.000154963
0.000141066
0.000127963
0.00011549
0.000103595
9.22898e-05
8.16086e-05
7.15874e-05
6.22572e-05
5.36402e-05
4.57502e-05
3.85916e-05
3.21597e-05
2.64402e-05
2.14175e-05
1.70619e-05
1.33322e-05
1.01548e-05
7.26669e-06
4.93048e-06
3.14747e-06
1.87706e-06
1.04151e-06
5.3707e-07
2.5741e-07
1.14528e-07
4.70581e-08
1.76504e-08
5.91771e-09
1.71186e-09
4.02527e-10
6.92139e-11
7.08468e-12
2.74475e-13
1.34068e-15
0.000320838
0.000314826
0.000304854
0.000292526
0.000278854
0.000264401
0.000249483
0.000234305
0.000219017
0.000203635
0.000186168
0.000169726
0.000154712
0.000140814
0.000127719
0.000115259
0.00010338
9.2093e-05
8.143e-05
7.1427e-05
6.21142e-05
5.35139e-05
4.56394e-05
3.84954e-05
3.20769e-05
2.63697e-05
2.13582e-05
1.70127e-05
1.3292e-05
1.01224e-05
7.2394e-06
4.90995e-06
3.13298e-06
1.8676e-06
1.03586e-06
5.33986e-07
2.55872e-07
1.13826e-07
4.67651e-08
1.75396e-08
5.88036e-09
1.70103e-09
3.99979e-10
6.87755e-11
7.0398e-12
2.72736e-13
1.33218e-15
0.000320763
0.000314726
0.000304712
0.000292337
0.000278619
0.000264129
0.000249185
0.00023399
0.000218694
0.000203399
0.000185936
0.000169483
0.000154459
0.000140558
0.00012747
0.000115022
0.00010316
9.18906e-05
8.12463e-05
7.12618e-05
6.19669e-05
5.33836e-05
4.55253e-05
3.83962e-05
3.19915e-05
2.62971e-05
2.12972e-05
1.69621e-05
1.32507e-05
1.0089e-05
7.21132e-06
4.88883e-06
3.11808e-06
1.85789e-06
1.03006e-06
5.30821e-07
2.54295e-07
1.13106e-07
4.64646e-08
1.74259e-08
5.84207e-09
1.68993e-09
3.97365e-10
6.8326e-11
6.99378e-12
2.70953e-13
1.32348e-15
0.000320721
0.000314655
0.000304595
0.000292168
0.0002784
0.000263867
0.000248892
0.000233677
0.000218372
0.000203103
0.000185704
0.000169246
0.000154207
0.000140301
0.000127216
0.00011478
0.000102933
9.16828e-05
8.10575e-05
7.10919e-05
6.18154e-05
5.32496e-05
4.54078e-05
3.82942e-05
3.19037e-05
2.62224e-05
2.12344e-05
1.691e-05
1.32081e-05
1.00547e-05
7.18244e-06
4.86713e-06
3.10278e-06
1.84791e-06
1.0241e-06
5.27576e-07
2.52678e-07
1.12368e-07
4.61568e-08
1.73094e-08
5.80284e-09
1.67855e-09
3.94689e-10
6.78656e-11
6.94666e-12
2.69128e-13
1.31456e-15
0.000320713
0.000314617
0.000304507
0.000292022
0.000278198
0.000263617
0.000248607
0.000233369
0.00021805
0.000202778
0.000185472
0.000169013
0.000153957
0.000140041
0.000126958
0.000114533
0.000102702
9.14698e-05
8.08638e-05
7.09174e-05
6.16597e-05
5.31119e-05
4.5287e-05
3.81892e-05
3.18132e-05
2.61454e-05
2.11697e-05
1.68564e-05
1.31643e-05
1.00194e-05
7.15276e-06
4.84483e-06
3.08707e-06
1.83768e-06
1.018e-06
5.2425e-07
2.51022e-07
1.11613e-07
4.58416e-08
1.71902e-08
5.76269e-09
1.66691e-09
3.91949e-10
6.73944e-11
6.89842e-12
2.67259e-13
1.30543e-15
0.000320743
0.000314613
0.000304448
0.0002919
0.000278014
0.000263381
0.00024833
0.000233065
0.000217731
0.000202452
0.000185244
0.000168784
0.000153707
0.000139779
0.000126697
0.000114281
0.000102466
9.12519e-05
8.06654e-05
7.07386e-05
6.15e-05
5.29705e-05
4.5163e-05
3.80813e-05
3.17203e-05
2.60664e-05
2.11032e-05
1.68012e-05
1.31189e-05
9.98099e-06
7.122e-06
4.82177e-06
3.07086e-06
1.82713e-06
1.01171e-06
5.20828e-07
2.49319e-07
1.10836e-07
4.55177e-08
1.70677e-08
5.72143e-09
1.65495e-09
3.89134e-10
6.69102e-11
6.84885e-12
2.65338e-13
1.29605e-15
0.000320811
0.000314645
0.000304422
0.000291805
0.000277852
0.000263161
0.000248065
0.000232767
0.000217414
0.000202127
0.000185021
0.000168559
0.000153459
0.000139517
0.000126432
0.000114025
0.000102225
9.10293e-05
8.04625e-05
7.05556e-05
6.13365e-05
5.28257e-05
4.50358e-05
3.79708e-05
3.1625e-05
2.59852e-05
2.10349e-05
1.67444e-05
1.3072e-05
9.94075e-06
7.09036e-06
4.79808e-06
3.05421e-06
1.81631e-06
1.00527e-06
5.17325e-07
2.47576e-07
1.10041e-07
4.51864e-08
1.69424e-08
5.67924e-09
1.64272e-09
3.86256e-10
6.64151e-11
6.79817e-12
2.63375e-13
1.28646e-15
0.000320919
0.000314715
0.000304429
0.000291738
0.000277712
0.000262958
0.000247812
0.000232478
0.000217102
0.000201804
0.000184805
0.000168339
0.000153214
0.000139253
0.000126165
0.000113765
0.00010198
9.08023e-05
8.02553e-05
7.03686e-05
6.11692e-05
5.26775e-05
4.49056e-05
3.78575e-05
3.15274e-05
2.59021e-05
2.0965e-05
1.66862e-05
1.3024e-05
9.89955e-06
7.05798e-06
4.77385e-06
3.0372e-06
1.80527e-06
9.98696e-07
5.13752e-07
2.45799e-07
1.09232e-07
4.48489e-08
1.68147e-08
5.63626e-09
1.63026e-09
3.83324e-10
6.59107e-11
6.74654e-12
2.61375e-13
1.27669e-15
0.00032107
0.000314825
0.000304472
0.000291702
0.000277597
0.000262774
0.000247572
0.000232198
0.000216796
0.000201483
0.000184598
0.000168126
0.000152971
0.000138989
0.000125896
0.000113502
0.000101731
9.05713e-05
8.00441e-05
7.01777e-05
6.09984e-05
5.25261e-05
4.47727e-05
3.77418e-05
3.14277e-05
2.58171e-05
2.08935e-05
1.66268e-05
1.29749e-05
9.85746e-06
7.02492e-06
4.74912e-06
3.01985e-06
1.79401e-06
9.92e-07
5.10114e-07
2.43991e-07
1.08408e-07
4.45056e-08
1.66849e-08
5.59255e-09
1.61759e-09
3.80342e-10
6.53978e-11
6.69404e-12
2.5934e-13
1.26675e-15
0.000321263
0.000314976
0.000304551
0.000291697
0.000277509
0.00026261
0.000247348
0.000231929
0.000216496
0.000201167
0.0001844
0.000167921
0.000152732
0.000138727
0.000125625
0.000113236
0.000101478
9.03365e-05
7.98292e-05
6.99833e-05
6.08243e-05
5.23717e-05
4.4637e-05
3.76237e-05
3.13259e-05
2.57304e-05
2.08205e-05
1.65662e-05
1.29249e-05
9.81452e-06
6.9912e-06
4.72391e-06
3.00218e-06
1.78255e-06
9.85189e-07
5.06416e-07
2.42153e-07
1.07571e-07
4.41569e-08
1.65531e-08
5.54816e-09
1.60473e-09
3.77314e-10
6.4877e-11
6.64072e-12
2.57275e-13
1.25667e-15
0.0003215
0.000315168
0.000304669
0.000291726
0.000277447
0.000262468
0.00024714
0.000231672
0.000216205
0.000200855
0.000184214
0.000167725
0.000152498
0.000138465
0.000125353
0.000112968
0.000101223
9.00983e-05
7.96108e-05
6.97855e-05
6.06471e-05
5.22144e-05
4.44987e-05
3.75034e-05
3.12221e-05
2.56421e-05
2.07461e-05
1.65044e-05
1.28739e-05
9.77077e-06
6.95685e-06
4.69824e-06
2.98419e-06
1.77089e-06
9.78269e-07
5.0266e-07
2.40288e-07
1.06722e-07
4.38032e-08
1.64193e-08
5.50314e-09
1.59168e-09
3.74243e-10
6.43488e-11
6.58665e-12
2.5518e-13
1.24643e-15
0.00032178
0.000315402
0.000304826
0.000291789
0.000277415
0.00026235
0.000246951
0.000231428
0.000215924
0.00020055
0.00018404
0.000167539
0.00015227
0.000138206
0.000125081
0.000112698
0.000100964
8.98571e-05
7.93892e-05
6.95847e-05
6.0467e-05
5.20545e-05
4.43581e-05
3.73809e-05
3.11165e-05
2.55521e-05
2.06704e-05
1.64414e-05
1.2822e-05
9.72623e-06
6.9219e-06
4.67214e-06
2.96592e-06
1.75906e-06
9.71246e-07
4.98852e-07
2.38398e-07
1.05862e-07
4.34448e-08
1.62839e-08
5.45753e-09
1.57846e-09
3.71132e-10
6.38137e-11
6.53187e-12
2.53058e-13
1.23607e-15
0.000322105
0.000315679
0.000305022
0.000291887
0.000277413
0.000262256
0.000246781
0.000231199
0.000215652
0.000200252
0.000183879
0.000167363
0.000152048
0.00013795
0.00012481
0.000112427
0.000100704
8.96132e-05
7.91648e-05
6.9381e-05
6.02842e-05
5.1892e-05
4.42152e-05
3.72564e-05
3.10091e-05
2.54606e-05
2.05935e-05
1.63775e-05
1.27692e-05
9.68094e-06
6.88637e-06
4.64563e-06
2.94736e-06
1.74705e-06
9.64127e-07
4.94993e-07
2.36484e-07
1.04991e-07
4.3082e-08
1.61468e-08
5.41138e-09
1.56508e-09
3.67984e-10
6.32723e-11
6.47645e-12
2.50911e-13
1.22558e-15
0.000322473
0.000315998
0.000305258
0.000292021
0.000277442
0.000262188
0.000246631
0.000230986
0.000215393
0.000199962
0.000183732
0.000167199
0.000151834
0.000137697
0.00012454
0.000112156
0.000100442
8.9367e-05
7.89379e-05
6.91747e-05
6.00988e-05
5.17272e-05
4.40701e-05
3.713e-05
3.09001e-05
2.53677e-05
2.05153e-05
1.63125e-05
1.27156e-05
9.63494e-06
6.8503e-06
4.61871e-06
2.92854e-06
1.73489e-06
9.56918e-07
4.91088e-07
2.34547e-07
1.0411e-07
4.27153e-08
1.60082e-08
5.36473e-09
1.55156e-09
3.64802e-10
6.2725e-11
6.42043e-12
2.4874e-13
1.21498e-15
0.000322883
0.000316359
0.000305533
0.000292191
0.000277502
0.000262147
0.000246504
0.000230789
0.000215146
0.000199681
0.000183599
0.000167047
0.000151628
0.00013745
0.000124271
0.000111884
0.000100179
8.9119e-05
7.87087e-05
6.8966e-05
5.99111e-05
5.15601e-05
4.3923e-05
3.70017e-05
3.07894e-05
2.52734e-05
2.04359e-05
1.62465e-05
1.26612e-05
9.58826e-06
6.81371e-06
4.59143e-06
2.90948e-06
1.72257e-06
9.49625e-07
4.87141e-07
2.3259e-07
1.0322e-07
4.23449e-08
1.58682e-08
5.31762e-09
1.53791e-09
3.61589e-10
6.21724e-11
6.36386e-12
2.46549e-13
1.20427e-15
0.000323335
0.00031676
0.000305847
0.000292397
0.000277595
0.000262133
0.000246398
0.000230611
0.000214913
0.00019941
0.000183481
0.000166907
0.000151431
0.000137208
0.000124006
0.000111613
9.99148e-05
8.88695e-05
7.84776e-05
6.87552e-05
5.97212e-05
5.13911e-05
4.3774e-05
3.68718e-05
3.06773e-05
2.51778e-05
2.03554e-05
1.61796e-05
1.26061e-05
9.54092e-06
6.77662e-06
4.56379e-06
2.89018e-06
1.71011e-06
9.42255e-07
4.83153e-07
2.30615e-07
1.02323e-07
4.19711e-08
1.5727e-08
5.2701e-09
1.52414e-09
3.58348e-10
6.1615e-11
6.3068e-12
2.44338e-13
1.19348e-15
0.000323825
0.0003172
0.0003062
0.000292639
0.00027772
0.000262148
0.000246316
0.000230451
0.000214694
0.00019915
0.000183377
0.000166779
0.000151243
0.000136972
0.000123744
0.000111344
9.96509e-05
8.86189e-05
7.82448e-05
6.85425e-05
5.95294e-05
5.12201e-05
4.36232e-05
3.67403e-05
3.05637e-05
2.5081e-05
2.02739e-05
1.61119e-05
1.25502e-05
9.49298e-06
6.73907e-06
4.53582e-06
2.87066e-06
1.69752e-06
9.34812e-07
4.7913e-07
2.28623e-07
1.01417e-07
4.15944e-08
1.55847e-08
5.2222e-09
1.51026e-09
3.55082e-10
6.10532e-11
6.24929e-12
2.4211e-13
1.18259e-15
0.000324351
0.000317677
0.000306589
0.000292917
0.000277878
0.000262191
0.000246258
0.000230311
0.00021449
0.000198901
0.000183285
0.000166662
0.000151065
0.000136744
0.000123488
0.000111077
9.93876e-05
8.83677e-05
7.80107e-05
6.83281e-05
5.93358e-05
5.10473e-05
4.34708e-05
3.66073e-05
3.04488e-05
2.4983e-05
2.01914e-05
1.60434e-05
1.24937e-05
9.44445e-06
6.70107e-06
4.50754e-06
2.85094e-06
1.68481e-06
9.27303e-07
4.75073e-07
2.26615e-07
1.00505e-07
4.1215e-08
1.54414e-08
5.17397e-09
1.49628e-09
3.51793e-10
6.04875e-11
6.19138e-12
2.39866e-13
1.17164e-15
0.000324912
0.000318188
0.000307013
0.000293228
0.000278067
0.000262262
0.000246225
0.000230191
0.000214303
0.000198665
0.000183202
0.000166554
0.000150899
0.000136527
0.000123238
0.000110814
9.91253e-05
8.81162e-05
7.77756e-05
6.81124e-05