/*--------------------------------*- C++ -*----------------------------------*\
  =========                 |
  \\      /  F ield         | OpenFOAM: The Open Source CFD Toolbox
   \\    /   O peration     | Website:  https://openfoam.org
    \\  /    A nd           | Version:  7
     \\/     M anipulation  |
\*---------------------------------------------------------------------------*/
FoamFile
{
    version     2.0;
    format      ascii;
    class       volScalarField;
    location    "2428";
    object      omega;
}
// * * * * * * * * * * * * * * * * * * * * * * * * * * * * * * * * * * * * * //

dimensions      [0 0 -1 0 0 0 0];

internalField   nonuniform List<scalar> 
11045
(
20949
22423.7
25054.5
28625
32991.2
38070.6
43830.5
50278.2
57460
65467.5
74436.2
84487
95718.9
108276
122363
138250
156264
176795
200301
227324
258494
294541
336317
384810
441163
506713
583065
672239
776987
901351
1.05162e+06
1.23714e+06
1.47219e+06
1.78012e+06
2.19855e+06
2.78648e+06
3.6363e+06
4.89665e+06
6.81911e+06
9.85731e+06
1.4893e+07
2.38048e+07
4.11029e+07
7.95361e+07
1.84802e+08
5.94344e+08
3.64963e+09
20948.2
22422.8
25053.5
28623.9
32990
38069.2
43829
50276.5
57458.2
65465.5
74434.1
84484.7
95716.5
108273
122360
138247
156261
176792
200298
227321
258490
294537
336312
384804
441156
506706
583056
672228
776973
901335
1.0516e+06
1.23712e+06
1.47217e+06
1.7801e+06
2.19852e+06
2.78646e+06
3.63628e+06
4.89664e+06
6.8191e+06
9.8573e+06
1.4893e+07
2.38048e+07
4.11029e+07
7.95361e+07
1.84802e+08
5.94344e+08
3.64963e+09
20946.6
22421.1
25051.6
28621.7
32987.6
38066.6
43826
50273.2
57454.6
65461.6
74429.9
84480.1
95711.6
108268
122355
138241
156254
176784
200290
227312
258481
294526
336301
384791
441141
506687
583034
672202
776943
901300
1.05156e+06
1.23707e+06
1.47211e+06
1.78004e+06
2.19847e+06
2.78641e+06
3.63623e+06
4.8966e+06
6.81907e+06
9.85728e+06
1.4893e+07
2.38048e+07
4.11029e+07
7.95361e+07
1.84802e+08
5.94344e+08
3.64963e+09
20944.2
22418.5
25048.8
28618.6
32984.1
38062.6
43821.6
50268.4
57449.3
65455.8
74423.5
84473.2
95704.1
108260
122346
138231
156244
176773
200278
227299
258466
294510
336282
384770
441116
506659
583001
672163
776896
901245
1.0515e+06
1.237e+06
1.47204e+06
1.77996e+06
2.19839e+06
2.78633e+06
3.63617e+06
4.89655e+06
6.81903e+06
9.85725e+06
1.48929e+07
2.38048e+07
4.11029e+07
7.95361e+07
1.84802e+08
5.94344e+08
3.64963e+09
20941.1
22415.2
25045.1
28614.5
32979.5
38057.4
43815.8
50262
57442.2
65448.1
74415.1
84464
95694.2
108249
122334
138219
156230
176759
200262
227281
258447
294488
336257
384742
441084
506621
582956
672110
776834
901172
1.05142e+06
1.23691e+06
1.47193e+06
1.77985e+06
2.19828e+06
2.78623e+06
3.63608e+06
4.89647e+06
6.81897e+06
9.85721e+06
1.48929e+07
2.38048e+07
4.11029e+07
7.95361e+07
1.84802e+08
5.94344e+08
3.64963e+09
20937.3
22411.2
25040.7
28609.5
32973.7
38051
43808.7
50254
57433.5
65438.4
74404.5
84452.5
95681.7
108236
122320
138203
156213
176740
200241
227259
258422
294461
336227
384707
441043
506574
582901
672045
776757
901082
1.05131e+06
1.23679e+06
1.47181e+06
1.77972e+06
2.19815e+06
2.78611e+06
3.63597e+06
4.89638e+06
6.8189e+06
9.85716e+06
1.48929e+07
2.38048e+07
4.11029e+07
7.95361e+07
1.84802e+08
5.94344e+08
3.64963e+09
20932.8
22406.4
25035.3
28603.5
32966.9
38043.3
43800.1
50244.5
57423
65426.9
74391.9
84438.8
95666.8
108219
122303
138184
156193
176718
200217
227232
258393
294428
336190
384665
440995
506518
582835
671967
776665
900974
1.05119e+06
1.23665e+06
1.47165e+06
1.77956e+06
2.19799e+06
2.78596e+06
3.63584e+06
4.89628e+06
6.81882e+06
9.85709e+06
1.48928e+07
2.38047e+07
4.11029e+07
7.95361e+07
1.84802e+08
5.94344e+08
3.64963e+09
20927.6
22400.8
25029.2
28596.5
32959
38034.4
43790.1
50233.4
57410.7
65413.4
74377.2
84422.7
95649.4
108201
122282
138162
156169
176692
200189
227202
258359
294390
336147
384616
440939
506452
582758
671876
776558
900849
1.05104e+06
1.23649e+06
1.47148e+06
1.77938e+06
2.19781e+06
2.78579e+06
3.63569e+06
4.89615e+06
6.81872e+06
9.85702e+06
1.48928e+07
2.38047e+07
4.11028e+07
7.95361e+07
1.84802e+08
5.94344e+08
3.64963e+09
20921.8
22394.6
25022.2
28588.6
32950
38024.3
43778.7
50220.8
57396.8
65398.1
74360.3
84404.4
95629.5
108179
122259
138137
156142
176663
200157
227166
258320
294347
336098
384560
440875
506378
582670
671772
776436
900706
1.05088e+06
1.23631e+06
1.47128e+06
1.77916e+06
2.1976e+06
2.7856e+06
3.63552e+06
4.89601e+06
6.81861e+06
9.85694e+06
1.48927e+07
2.38047e+07
4.11028e+07
7.95361e+07
1.84802e+08
5.94344e+08
3.64963e+09
20915.4
22387.7
25014.4
28579.7
32940
38012.9
43766
50206.6
57381.1
65380.8
74341.3
84383.7
95607.1
108155
122233
138109
156112
176630
200121
227127
258276
294298
336043
384498
440803
506294
582572
671657
776299
900547
1.0507e+06
1.2361e+06
1.47105e+06
1.77893e+06
2.19736e+06
2.78538e+06
3.63533e+06
4.89585e+06
6.81848e+06
9.85684e+06
1.48927e+07
2.38046e+07
4.11028e+07
7.95361e+07
1.84802e+08
5.94344e+08
3.64963e+09
20908.4
22380.1
25005.9
28569.9
32928.8
38000.2
43751.7
50190.7
57363.6
65361.5
74320.2
84360.7
95582.2
108128
122204
138078
156078
176593
200081
227083
258228
294244
335983
384429
440724
506202
582463
671528
776148
900369
1.05049e+06
1.23587e+06
1.4708e+06
1.77867e+06
2.1971e+06
2.78513e+06
3.63512e+06
4.89567e+06
6.81834e+06
9.85674e+06
1.48926e+07
2.38046e+07
4.11028e+07
7.9536e+07
1.84802e+08
5.94344e+08
3.64963e+09
20900.8
22371.9
24996.5
28559.2
32916.5
37986.2
43736
50173.2
57344.2
65340.2
74296.9
84335.3
95554.7
108099
122172
138044
156041
176553
200037
227035
258175
294185
335916
384353
440636
506100
582343
671387
775981
900174
1.05027e+06
1.23562e+06
1.47052e+06
1.77838e+06
2.19682e+06
2.78487e+06
3.63488e+06
4.89548e+06
6.81819e+06
9.85663e+06
1.48925e+07
2.38045e+07
4.11027e+07
7.9536e+07
1.84802e+08
5.94344e+08
3.64963e+09
20892.7
22363
24986.4
28547.5
32903.1
37970.9
43718.8
50154.1
57323
65316.9
74271.2
84307.4
95524.6
108066
122137
138006
156000
176509
199989
226982
258116
294120
335843
384270
440541
505989
582213
671232
775799
899961
1.05002e+06
1.23534e+06
1.47022e+06
1.77806e+06
2.19651e+06
2.78458e+06
3.63463e+06
4.89527e+06
6.81802e+06
9.8565e+06
1.48924e+07
2.38045e+07
4.11027e+07
7.9536e+07
1.84802e+08
5.94344e+08
3.64963e+09
20884
22353.5
24975.5
28534.9
32888.5
37954.3
43700.1
50133.2
57299.9
65291.4
74243.3
84277
95491.8
108031
122099
137965
155956
176461
199937
226925
258054
294050
335764
384180
440437
505868
582071
671065
775601
899731
1.04976e+06
1.23504e+06
1.4699e+06
1.77772e+06
2.19617e+06
2.78426e+06
3.63435e+06
4.89504e+06
6.81784e+06
9.85637e+06
1.48923e+07
2.38044e+07
4.11027e+07
7.9536e+07
1.84801e+08
5.94344e+08
3.64963e+09
20874.8
22343.4
24963.9
28521.3
32872.7
37936.3
43679.7
50110.5
57274.8
65263.7
74212.9
84243.9
95456.1
107992
122058
137921
155909
176410
199881
226864
257986
293974
335679
384083
440325
505738
581918
670884
775388
899481
1.04947e+06
1.23472e+06
1.46954e+06
1.77735e+06
2.1958e+06
2.78392e+06
3.63405e+06
4.89479e+06
6.81765e+06
9.85623e+06
1.48922e+07
2.38043e+07
4.11026e+07
7.9536e+07
1.84801e+08
5.94344e+08
3.64963e+09
20865.2
22332.7
24951.5
28506.8
32855.8
37916.9
43657.8
50086
57247.7
65233.8
74180.1
84208.2
95417.6
107951
122014
137874
155857
176354
199821
226798
257912
293893
335587
383978
440205
505598
581754
670690
775159
899213
1.04917e+06
1.23438e+06
1.46917e+06
1.77696e+06
2.19541e+06
2.78356e+06
3.63373e+06
4.89453e+06
6.81744e+06
9.85607e+06
1.48921e+07
2.38043e+07
4.11026e+07
7.9536e+07
1.84801e+08
5.94344e+08
3.64963e+09
20855.1
22321.5
24938.4
28491.3
32837.7
37896.1
43634.2
50059.6
57218.5
65201.6
74144.7
84169.8
95376.2
107907
121966
137822
155802
176295
199756
226727
257834
293805
335489
383867
440076
505448
581577
670482
774914
898926
1.04884e+06
1.23401e+06
1.46876e+06
1.77653e+06
2.19499e+06
2.78317e+06
3.63339e+06
4.89424e+06
6.81722e+06
9.85591e+06
1.4892e+07
2.38042e+07
4.11025e+07
7.95359e+07
1.84801e+08
5.94344e+08
3.64963e+09
20844.7
22309.9
24924.6
28474.8
32818.4
37873.8
43608.9
50031.2
57187.1
65166.9
74106.6
84128.4
95331.7
107859
121915
137768
155743
176231
199687
226651
257750
293712
335384
383747
439939
505288
581389
670260
774652
898620
1.04848e+06
1.23361e+06
1.46833e+06
1.77608e+06
2.19455e+06
2.78275e+06
3.63302e+06
4.89394e+06
6.81698e+06
9.85573e+06
1.48919e+07
2.38041e+07
4.11025e+07
7.95359e+07
1.84801e+08
5.94344e+08
3.64963e+09
20834
22297.7
24910.1
28457.4
32797.9
37850
43581.8
50000.9
57153.5
65129.8
74065.8
84084.1
95284
107808
121861
137709
155681
176163
199613
226570
257661
293613
335273
383620
439793
505117
581189
670024
774373
898294
1.04811e+06
1.23319e+06
1.46787e+06
1.7756e+06
2.19407e+06
2.78231e+06
3.63263e+06
4.89362e+06
6.81673e+06
9.85554e+06
1.48917e+07
2.3804e+07
4.11024e+07
7.95359e+07
1.84801e+08
5.94344e+08
3.64963e+09
20823
22285.2
24894.9
28439.1
32776.1
37824.7
43552.9
49968.5
57117.5
65090.1
74022.1
84036.7
95233.1
107754
121803
137647
155614
176091
199535
226485
257567
293508
335154
383486
439637
504937
580977
669773
774077
897949
1.04771e+06
1.23275e+06
1.46738e+06
1.77509e+06
2.19357e+06
2.78184e+06
3.63222e+06
4.89328e+06
6.81646e+06
9.85534e+06
1.48916e+07
2.38039e+07
4.11024e+07
7.95358e+07
1.84801e+08
5.94344e+08
3.64963e+09
20811.9
22272.3
24879.2
28419.8
32753
37797.8
43522.2
49934
57079.2
65047.7
73975.5
83986.1
95178.7
107696
121741
137581
155543
176014
199452
226394
257467
293396
335029
383343
439473
504746
580752
669508
773764
897583
1.04729e+06
1.23227e+06
1.46687e+06
1.77455e+06
2.19303e+06
2.78134e+06
3.63179e+06
4.89292e+06
6.81618e+06
9.85513e+06
1.48915e+07
2.38038e+07
4.11023e+07
7.95358e+07
1.84801e+08
5.94344e+08
3.64963e+09
20800.7
22259.2
24862.9
28399.6
32728.7
37769.3
43489.6
49897.2
57038.4
65002.5
73925.9
83932.2
95120.9
107634
121675
137511
155468
175933
199364
226298
257361
293279
334896
383193
439300
504544
580515
669227
773434
897196
1.04685e+06
1.23177e+06
1.46632e+06
1.77399e+06
2.19247e+06
2.78082e+06
3.63133e+06
4.89254e+06
6.81588e+06
9.85491e+06
1.48913e+07
2.38037e+07
4.11023e+07
7.95358e+07
1.84801e+08
5.94344e+08
3.64963e+09
20789.5
22245.9
24846.1
28378.6
32703.2
37739.2
43455
49858.2
56995
64954.5
73873
83874.9
95059.5
107569
121606
137437
155388
175848
199271
226197
257250
293155
334757
383034
439117
504331
580265
668932
773085
896789
1.04638e+06
1.23125e+06
1.46575e+06
1.77339e+06
2.19188e+06
2.78027e+06
3.63085e+06
4.89214e+06
6.81557e+06
9.85468e+06
1.48911e+07
2.38036e+07
4.11022e+07
7.95357e+07
1.84801e+08
5.94344e+08
3.64963e+09
20778.4
22232.5
24828.8
28356.7
32676.4
37707.5
43418.4
49816.9
56949
64903.6
73816.9
83814.1
94994.4
107499
121532
137358
155305
175758
199173
226090
257132
293024
334610
382867
438925
504107
580002
668621
772719
896360
1.04589e+06
1.2307e+06
1.46515e+06
1.77276e+06
2.19126e+06
2.77969e+06
3.63034e+06
4.89172e+06
6.81524e+06
9.85444e+06
1.4891e+07
2.38035e+07
4.11021e+07
7.95357e+07
1.84801e+08
5.94344e+08
3.64963e+09
20767.6
22219.1
24811.2
28334
32648.3
37674.1
43379.8
49773.2
56900.3
64849.5
73757.4
83749.5
94925.4
107426
121454
137276
155216
175663
199071
225978
257009
292887
334456
382692
438723
503872
579725
668295
772334
895911
1.04537e+06
1.23012e+06
1.46452e+06
1.7721e+06
2.19061e+06
2.77908e+06
3.62981e+06
4.89128e+06
6.8149e+06
9.85418e+06
1.48908e+07
2.38034e+07
4.11021e+07
7.95357e+07
1.84801e+08
5.94344e+08
3.64963e+09
20757.1
22205.8
24793.3
28310.5
32619.1
37639.1
43339.1
49727
56848.9
64792.4
73694.3
83681.2
94852.5
107349
121372
137189
155123
175563
198963
225861
256880
292743
334295
382508
438512
503626
579436
667953
771931
895440
1.04483e+06
1.22951e+06
1.46385e+06
1.77141e+06
2.18992e+06
2.77845e+06
3.62925e+06
4.89082e+06
6.81453e+06
9.85391e+06
1.48906e+07
2.38033e+07
4.1102e+07
7.95356e+07
1.84801e+08
5.94344e+08
3.64963e+09
20747.1
22192.7
24775.1
28286.3
32588.6
37602.3
43296.3
49678.4
56794.5
64732
73627.7
83609
94775.4
107267
121286
137097
155026
175458
198850
225737
256744
292593
334126
382316
438290
503368
579133
667595
771509
894947
1.04427e+06
1.22888e+06
1.46316e+06
1.77069e+06
2.18921e+06
2.77779e+06
3.62867e+06
4.89034e+06
6.81416e+06
9.85363e+06
1.48904e+07
2.38032e+07
4.11019e+07
7.95356e+07
1.84801e+08
5.94344e+08
3.64963e+09
20737.7
22180
24756.9
28261.5
32556.9
37563.9
43251.3
49627.2
56737.3
64668.3
73557.3
83532.8
94694.1
107181
121195
137001
154924
175349
198732
225609
256603
292436
333949
382115
438059
503099
578817
667222
771068
894432
1.04368e+06
1.22822e+06
1.46244e+06
1.76993e+06
2.18847e+06
2.7771e+06
3.62807e+06
4.88984e+06
6.81377e+06
9.85334e+06
1.48902e+07
2.3803e+07
4.11018e+07
7.95356e+07
1.84801e+08
5.94344e+08
3.64963e+09
20729.2
22167.8
24738.7
28236.2
32524.2
37523.9
43204.2
49573.4
56677
64601.1
73483
83452.4
94608.5
107091
121100
136901
154817
175234
198608
225474
256455
292272
333765
381906
437818
502818
578487
666832
770609
893896
1.04306e+06
1.22753e+06
1.46169e+06
1.76915e+06
2.1877e+06
2.77638e+06
3.62744e+06
4.88932e+06
6.81336e+06
9.85304e+06
1.489e+07
2.38029e+07
4.11017e+07
7.95355e+07
1.84801e+08
5.94344e+08
3.64963e+09
20721.6
22156.3
24720.7
28210.4
32490.3
37482.1
43154.9
49517
56613.8
64530.5
73404.9
83367.7
94518.4
106996
121000
136795
154705
175115
198479
225334
256301
292101
333573
381687
437567
502526
578144
666427
770131
893337
1.04242e+06
1.22681e+06
1.46091e+06
1.76833e+06
2.18689e+06
2.77563e+06
3.62679e+06
4.88878e+06
6.81294e+06
9.85273e+06
1.48898e+07
2.38027e+07
4.11017e+07
7.95355e+07
1.84801e+08
5.94344e+08
3.64963e+09
20715.2
22145.5
24702.9
28184.1
32455.4
37438.8
43103.5
49457.9
56547.4
64456.3
73322.7
83278.7
94423.7
106896
120896
136685
154588
174990
198345
225188
256141
291923
333373
381461
437306
502222
577787
666005
769634
892757
1.04176e+06
1.22606e+06
1.46009e+06
1.76749e+06
2.18606e+06
2.77486e+06
3.62611e+06
4.88822e+06
6.8125e+06
9.8524e+06
1.48895e+07
2.38026e+07
4.11016e+07
7.95354e+07
1.84801e+08
5.94344e+08
3.64963e+09
20710.1
22135.8
24685.5
28157.7
32419.6
37393.8
43049.9
49396.1
56477.9
64378.5
73236.3
83185.2
94324.4
106792
120786
136570
154466
174859
198205
225036
255974
291738
333166
381225
437035
501907
577416
665568
769118
892154
1.04107e+06
1.22529e+06
1.45925e+06
1.76661e+06
2.1852e+06
2.77406e+06
3.62541e+06
4.88764e+06
6.81205e+06
9.85207e+06
1.48893e+07
2.38024e+07
4.11015e+07
7.95354e+07
1.84801e+08
5.94344e+08
3.64963e+09
20706.6
22127.2
24668.7
28131.1
32382.8
37347.3
42994.1
49331.6
56405.2
64297.1
73145.8
83087.1
94220.2
106682
120671
136449
154339
174724
198059
224878
255801
291547
332951
380981
436754
501580
577032
665114
768583
891530
1.04035e+06
1.22449e+06
1.45838e+06
1.7657e+06
2.1843e+06
2.77323e+06
3.62469e+06
4.88704e+06
6.81158e+06
9.85172e+06
1.48891e+07
2.38023e+07
4.11014e+07
7.95353e+07
1.84801e+08
5.94344e+08
3.64963e+09
20704.9
22120.1
24652.6
28104.4
32345.3
37299.3
42936.1
49264.5
56329.3
64211.9
73051.1
82984.4
94111.1
106568
120552
136324
154206
174583
197908
224715
255622
291348
332728
380728
436464
501241
576634
664644
768029
890883
1.03961e+06
1.22366e+06
1.45748e+06
1.76476e+06
2.18338e+06
2.77237e+06
3.62394e+06
4.88642e+06
6.81109e+06
9.85136e+06
1.48888e+07
2.38021e+07
4.11013e+07
7.95353e+07
1.84801e+08
5.94344e+08
3.64963e+09
20705.1
22114.5
24637.5
28077.9
32307.1
37249.8
42876
49194.6
56250.2
64123
72952.1
82877
93997
106448
120426
136193
154068
174436
197751
224545
255436
291142
332498
380467
436163
500891
576222
664158
767457
890215
1.03885e+06
1.2228e+06
1.45654e+06
1.76379e+06
2.18242e+06
2.77149e+06
3.62317e+06
4.88579e+06
6.8106e+06
9.85099e+06
1.48886e+07
2.38019e+07
4.11012e+07
7.95352e+07
1.84801e+08
5.94344e+08
3.64963e+09
20707.5
22110.7
24623.4
28051.7
32268.3
37198.9
42813.8
49122
56167.9
64030.4
72848.9
82764.8
93877.8
106323
120296
136056
153924
174284
197588
224369
255244
290930
332260
380197
435852
500530
575798
663657
766866
889525
1.03806e+06
1.22191e+06
1.45558e+06
1.7628e+06
2.18144e+06
2.77058e+06
3.62237e+06
4.88513e+06
6.81008e+06
9.85061e+06
1.48883e+07
2.38018e+07
4.11011e+07
7.95352e+07
1.84801e+08
5.94344e+08
3.64963e+09
20712.4
22108.9
24610.7
28025.9
32229.1
37146.7
42749.6
49046.6
56082.3
63934.2
72741.6
82647.8
93753.2
106192
120159
135914
153775
174126
197420
224187
255045
290711
332015
379918
435532
500157
575360
663140
766256
888814
1.03724e+06
1.221e+06
1.45459e+06
1.76177e+06
2.18043e+06
2.76965e+06
3.62156e+06
4.88446e+06
6.80956e+06
9.85022e+06
1.4888e+07
2.38016e+07
4.1101e+07
7.95351e+07
1.84801e+08
5.94344e+08
3.64963e+09
20720
22109.3
24599.4
28000.7
32189.6
37093.3
42683.3
48968.5
55993.3
63834.4
72630.6
82526.2
93623.1
106055
120017
135765
153620
173962
197245
223999
254840
290484
331762
379631
435203
499774
574909
662608
765629
888082
1.0364e+06
1.22007e+06
1.45357e+06
1.76071e+06
2.17939e+06
2.76869e+06
3.62072e+06
4.88377e+06
6.80902e+06
9.84982e+06
1.48877e+07
2.38014e+07
4.11009e+07
7.9535e+07
1.84801e+08
5.94344e+08
3.64963e+09
20730.5
22112.2
24589.9
27976.4
32149.9
37038.9
42615.1
48887.7
55900.9
63731.1
72515.6
82399.6
93487.4
105913
119869
135611
153459
173792
197064
223805
254629
290251
331501
379336
434864
499380
574447
662062
764986
887331
1.03554e+06
1.2191e+06
1.45253e+06
1.75962e+06
2.17833e+06
2.7677e+06
3.61986e+06
4.88306e+06
6.80846e+06
9.84941e+06
1.48875e+07
2.38012e+07
4.11008e+07
7.9535e+07
1.84801e+08
5.94344e+08
3.64963e+09
20744.1
22117.8
24582.3
27953.1
32110.2
36983.5
42545.1
48804.4
55805.3
63624.1
72396.4
82267.9
93346.1
105764
119714
135451
153291
173616
196877
223604
254410
290011
331233
379032
434515
498975
573972
661503
764330
886568
1.03467e+06
1.21812e+06
1.45146e+06
1.75851e+06
2.17723e+06
2.76669e+06
3.61898e+06
4.88233e+06
6.80789e+06
9.84899e+06
1.48872e+07
2.3801e+07
4.11006e+07
7.95349e+07
1.84801e+08
5.94344e+08
3.64963e+09
20761.1
22126.3
24576.9
27931.1
32070.9
36927.4
42473.5
48718.6
55706.7
63513.4
72272.7
82131.1
93199
105610
119554
135284
153118
173434
196684
223396
254185
289763
330956
378720
434157
498560
573486
660931
763659
885789
1.03378e+06
1.21711e+06
1.45036e+06
1.75737e+06
2.17611e+06
2.76565e+06
3.61808e+06
4.88159e+06
6.80731e+06
9.84856e+06
1.48869e+07
2.38008e+07
4.11005e+07
7.95349e+07
1.84801e+08
5.94344e+08
3.64963e+09
20781.7
22138
24574
27910.5
32031.9
36870.8
42400.4
48630.6
55605
63399.1
72144.6
81989.1
93046.1
105449
119387
135111
152938
173246
196484
223182
253953
289508
330673
378400
433790
498134
572988
660346
762972
884992
1.03286e+06
1.21608e+06
1.44924e+06
1.7562e+06
2.17497e+06
2.76459e+06
3.61715e+06
4.88083e+06
6.80672e+06
9.84812e+06
1.48865e+07
2.38006e+07
4.11004e+07
7.95348e+07
1.84801e+08
5.94344e+08
3.64963e+09
20806.1
22153.1
24573.6
27891.6
31993.7
36813.8
42326.1
48540.5
55500.5
63281.1
72012.2
81841.9
92887.4
105282
119214
134932
152752
173051
196278
222962
253715
289246
330382
378071
433415
497699
572478
659746
762268
884176
1.03193e+06
1.21503e+06
1.44809e+06
1.75501e+06
2.1738e+06
2.76351e+06
3.61621e+06
4.88005e+06
6.80611e+06
9.84767e+06
1.48862e+07
2.38004e+07
4.11003e+07
7.95347e+07
1.84801e+08
5.94344e+08
3.64963e+09
20834.6
22171.7
24576.1
27874.7
31956.4
36756.8
42250.7
48448.4
55393.1
63159.5
71875.3
81689.4
92722.9
105109
119034
134747
152560
172850
196066
222736
253470
288978
330083
377735
433029
497252
571956
659132
761549
883341
1.03097e+06
1.21395e+06
1.44692e+06
1.7538e+06
2.17261e+06
2.76241e+06
3.61525e+06
4.87926e+06
6.8055e+06
9.84721e+06
1.48859e+07
2.38002e+07
4.11002e+07
7.95347e+07
1.84801e+08
5.94344e+08
3.64963e+09
20867.2
22194.2
24581.7
27859.9
31920.2
36699.8
42174.4
48354.5
55283.1
63034.6
71734.2
81531.8
92552.6
104930
118848
134555
152361
172643
195848
222503
253219
288703
329777
377390
432635
496796
571422
658505
760813
882488
1.02999e+06
1.21285e+06
1.44572e+06
1.75256e+06
2.17139e+06
2.76129e+06
3.61428e+06
4.87846e+06
6.80487e+06
9.84675e+06
1.48856e+07
2.38e+07
4.11e+07
7.95346e+07
1.84801e+08
5.94343e+08
3.64963e+09
20904.3
22220.7
24590.7
27847.6
31885.5
36643.3
42097.4
48258.9
55170.7
62906.4
71588.9
81369.1
92376.5
104745
118656
134357
152156
172429
195623
222264
252960
288420
329464
377037
432232
496329
570876
657863
760062
881617
1.029e+06
1.21173e+06
1.44451e+06
1.75129e+06
2.17015e+06
2.76015e+06
3.61328e+06
4.87764e+06
6.80423e+06
9.84628e+06
1.48853e+07
2.37998e+07
4.10999e+07
7.95345e+07
1.84801e+08
5.94343e+08
3.64963e+09
20946
22251.4
24603.1
27837.9
31852.5
36587.3
42020.1
48162
55055.9
62775
71439.6
81201.4
92194.6
104553
118458
134152
151945
172209
195392
222018
252696
288131
329144
376676
431820
495852
570319
657209
759295
880728
1.02798e+06
1.21059e+06
1.44326e+06
1.75001e+06
2.1689e+06
2.75899e+06
3.61227e+06
4.87681e+06
6.80358e+06
9.8458e+06
1.48849e+07
2.37996e+07
4.10998e+07
7.95345e+07
1.84801e+08
5.94343e+08
3.64963e+09
20992.4
22286.5
24619.4
27831.2
31821.3
36532.2
41942.6
48064
54939.1
62640.8
71286.4
81028.9
92007.2
104355
118253
133941
151727
171983
195155
221766
252424
287835
328816
376307
431399
495365
569750
656541
758513
879822
1.02694e+06
1.20943e+06
1.442e+06
1.7487e+06
2.16762e+06
2.75781e+06
3.61125e+06
4.87597e+06
6.80293e+06
9.84531e+06
1.48846e+07
2.37994e+07
4.10996e+07
7.95344e+07
1.84801e+08
5.94343e+08
3.64963e+09
21043.6
22326.1
24639.6
27827.7
31792.4
36478.3
41865.2
47965.1
54820.5
62503.8
71129.6
80851.7
91814.3
104152
118041
133723
151503
171750
194910
221507
252146
287532
328480
375931
430969
494868
569170
655860
757716
878899
1.02589e+06
1.20824e+06
1.44072e+06
1.74737e+06
2.16632e+06
2.75662e+06
3.61021e+06
4.87512e+06
6.80226e+06
9.84482e+06
1.48842e+07
2.37991e+07
4.10995e+07
7.95343e+07
1.84801e+08
5.94343e+08
3.64963e+09
21099.9
22370.5
24664
27827.6
31766
36425.9
41788.2
47865.5
54700.3
62364.4
70969.3
80670.1
91616
103942
117824
133499
151271
171510
194659
221241
251861
287222
328137
375546
430531
494362
568578
655167
756904
877960
1.02482e+06
1.20704e+06
1.43941e+06
1.74602e+06
2.165e+06
2.75541e+06
3.60916e+06
4.87425e+06
6.80159e+06
9.84432e+06
1.48839e+07
2.37989e+07
4.10994e+07
7.95343e+07
1.84801e+08
5.94343e+08
3.64963e+09
21161.3
22419.7
24692.8
27831.1
31742.4
36375.2
41711.9
47765.6
54578.8
62222.8
70806
80484.4
91412.6
103726
117599
133268
151033
171263
194401
220969
251569
286904
327787
375153
430083
493845
567976
654460
756079
877005
1.02373e+06
1.20582e+06
1.43809e+06
1.74466e+06
2.16367e+06
2.75418e+06
3.6081e+06
4.87338e+06
6.80091e+06
9.84382e+06
1.48835e+07
2.37987e+07
4.10992e+07
7.95342e+07
1.84801e+08
5.94343e+08
3.64963e+09
21227.9
22474
24726.2
27838.6
31721.8
36326.6
41636.7
47665.7
54456.2
62079.3
70640
80294.9
91204.4
103504
117368
133029
150787
171009
194136
220689
251270
286580
327429
374752
429627
493319
567363
653742
755239
876035
1.02262e+06
1.20458e+06
1.43674e+06
1.74327e+06
2.16232e+06
2.75294e+06
3.60702e+06
4.8725e+06
6.80022e+06
9.84331e+06
1.48832e+07
2.37984e+07
4.10991e+07
7.95341e+07
1.84801e+08
5.94343e+08
3.64963e+09
21299.8
22533.3
24764.3
27850.2
31704.6
36280.4
41562.7
47566
54332.9
61934.1
70471.6
80102.3
90991.6
103277
117130
132784
150535
170748
193864
220402
250964
286248
327064
374343
429163
492784
566739
653012
754386
875049
1.02149e+06
1.20332e+06
1.43538e+06
1.74187e+06
2.16095e+06
2.75168e+06
3.60594e+06
4.8716e+06
6.79952e+06
9.8428e+06
1.48828e+07
2.37982e+07
4.1099e+07
7.9534e+07
1.84801e+08
5.94343e+08
3.64963e+09
21377.1
22597.9
24807.4
27866.3
31691.1
36237
41490.5
47466.8
54208.9
61787.3
70301.3
79907.2
90774.7
103044
116886
132531
150275
170479
193585
220108
250650
285908
326691
373926
428690
492239
566104
652269
753519
874049
1.02035e+06
1.20204e+06
1.43401e+06
1.74045e+06
2.15957e+06
2.75042e+06
3.60484e+06
4.8707e+06
6.79882e+06
9.84228e+06
1.48825e+07
2.3798e+07
4.10988e+07
7.9534e+07
1.84801e+08
5.94343e+08
3.64963e+09
21459.9
22667.9
24855.6
27887
31681.6
36196.6
41420.2
47368.6
54084.6
61638.8
70129.6
79710.6
90553.9
102805
116635
132271
150007
170203
193298
219807
250329
285562
326310
373501
428208
491684
565459
651515
752640
873034
1.0192e+06
1.20075e+06
1.43261e+06
1.73901e+06
2.15817e+06
2.74914e+06
3.60373e+06
4.86979e+06
6.79812e+06
9.84176e+06
1.48821e+07
2.37977e+07
4.10987e+07
7.95339e+07
1.84801e+08
5.94343e+08
3.64963e+09
21548.1
22743.3
24909
27912.6
31676.3
36159.7
41352.5
47271.6
53960.6
61489.5
69956.5
79511.8
90329.1
102560
116377
132004
149732
169919
193003
219498
250001
285207
325921
373069
427717
491121
564804
650750
751747
872005
1.01803e+06
1.19945e+06
1.4312e+06
1.73756e+06
2.15677e+06
2.74785e+06
3.60261e+06
4.86888e+06
6.79741e+06
9.84124e+06
1.48817e+07
2.37975e+07
4.10985e+07
7.95338e+07
1.84801e+08
5.94343e+08
3.64963e+09
21641.8
22824.2
24967.8
27943.3
31675.6
36126.6
41287.5
47176.5
53837.3
61339.9
69782.2
79310.7
90100.5
102310
116113
131730
149449
169628
192701
219181
249665
284845
325525
372627
427218
490548
564139
649973
750842
870962
1.01684e+06
1.19812e+06
1.42977e+06
1.7361e+06
2.15534e+06
2.74654e+06
3.60149e+06
4.86796e+06
6.79669e+06
9.84071e+06
1.48814e+07
2.37973e+07
4.10984e+07
7.95337e+07
1.84801e+08
5.94343e+08
3.64963e+09
21741
22910.6
25032.2
27979.4
31679.8
36097.6
41225.9
47083.6
53715.2
61190.5
69607
79107.5
89868.4
102056
115842
131448
149159
169329
192391
218857
249321
284476
325121
372178
426710
489965
563463
649185
749925
869906
1.01564e+06
1.19678e+06
1.42833e+06
1.73462e+06
2.15391e+06
2.74523e+06
3.60036e+06
4.86703e+06
6.79597e+06
9.84018e+06
1.4881e+07
2.3797e+07
4.10982e+07
7.95337e+07
1.848e+08
5.94343e+08
3.64963e+09
21845.8
23002.8
25102.3
28021.1
31689.2
36073.2
41167.9
46993.4
53594.6
61041.6
69431.3
78902.4
89633
101796
115566
131160
148861
169022
192073
218525
248969
284098
324709
371720
426194
489373
562777
648385
748995
868837
1.01443e+06
1.19543e+06
1.42688e+06
1.73313e+06
2.15246e+06
2.74391e+06
3.59922e+06
4.8661e+06
6.79524e+06
9.83964e+06
1.48806e+07
2.37968e+07
4.10981e+07
7.95336e+07
1.848e+08
5.94343e+08
3.64963e+09
21956.2
23100.6
25178.3
28068.5
31704.1
36053.7
41114
46906.2
53476
60893.5
69255.3
78696
89394.9
101533
115284
130865
148556
168707
191747
218184
248609
283712
324288
371254
425668
488772
562081
647575
748054
867755
1.0132e+06
1.19407e+06
1.42541e+06
1.73162e+06
2.15101e+06
2.74258e+06
3.59807e+06
4.86516e+06
6.79451e+06
9.8391e+06
1.48803e+07
2.37965e+07
4.1098e+07
7.95335e+07
1.848e+08
5.94343e+08
3.64963e+09
22072.2
23204.2
25260.1
28121.9
31724.8
36039.5
41064.6
46822.6
53359.8
60746.7
69079.4
78488.7
89154.7
101265
114996
130563
148243
168384
191413
217835
248241
283318
323859
370780
425134
488161
561375
646754
747101
866660
1.01196e+06
1.19269e+06
1.42393e+06
1.73011e+06
2.14954e+06
2.74125e+06
3.59692e+06
4.86422e+06
6.79378e+06
9.83856e+06
1.48799e+07
2.37963e+07
4.10978e+07
7.95334e+07
1.848e+08
5.94343e+08
3.64963e+09
22193.9
23313.6
25348.1
28181.5
31751.5
36030.9
41020
46742.8
53246.3
60601.4
68904
78281
88913
100995
114703
130254
147922
168052
191070
217478
247865
282915
323422
370296
424591
487541
560659
645922
746136
865553
1.01071e+06
1.1913e+06
1.42244e+06
1.72858e+06
2.14807e+06
2.7399e+06
3.59576e+06
4.86327e+06
6.79305e+06
9.83802e+06
1.48795e+07
2.3796e+07
4.10977e+07
7.95334e+07
1.848e+08
5.94343e+08
3.64963e+09
22321.1
23428.9
25442.2
28247.5
31784.5
36028.3
40980.7
46667.3
53136
60457.9
68729.2
78073.6
88670.8
100721
114405
129939
147594
167713
190718
217112
247479
282504
322976
369804
424038
486912
559933
645079
745159
864434
1.00944e+06
1.18989e+06
1.42093e+06
1.72705e+06
2.14659e+06
2.73855e+06
3.59459e+06
4.86232e+06
6.79231e+06
9.83748e+06
1.48791e+07
2.37958e+07
4.10975e+07
7.95333e+07
1.848e+08
5.94343e+08
3.64963e+09
22454
23550.1
25542.6
28320
31824.2
36032
40947.2
46596.6
53029.3
60316.7
68554.9
77866.9
88429.3
100445
114103
129617
147257
167365
190358
216737
247085
282084
322521
369303
423477
486272
559196
644225
744171
863303
1.00816e+06
1.18847e+06
1.41942e+06
1.7255e+06
2.14509e+06
2.73719e+06
3.59343e+06
4.86137e+06
6.79157e+06
9.83693e+06
1.48787e+07
2.37956e+07
4.10974e+07
7.95332e+07
1.848e+08
5.94343e+08
3.64963e+09
22592.6
23677.3
25649.4
28399.4
31870.7
36042.3
40919.7
46531.1
52926.7
60178.4
68382.3
77661.3
88187.8
100167
113795
129288
146913
167008
189989
216353
246681
281654
322057
368792
422906
485623
558449
643360
743172
862160
1.00687e+06
1.18705e+06
1.41789e+06
1.72394e+06
2.14359e+06
2.73583e+06
3.59225e+06
4.86041e+06
6.79083e+06
9.83639e+06
1.48784e+07
2.37953e+07
4.10972e+07
7.95331e+07
1.848e+08
5.94343e+08
3.64963e+09
22736.9
23810.6
25762.7
28485.6
31924.4
36059.7
40898.7
46471.4
52828.7
60043.5
68212
77456.9
87946.2
99886.8
113484
128953
146562
166643
189610
215959
246268
281215
321583
368272
422325
484964
557692
642485
742161
861005
1.00557e+06
1.18561e+06
1.41635e+06
1.72238e+06
2.14209e+06
2.73446e+06
3.59108e+06
4.85945e+06
6.79009e+06
9.83584e+06
1.4878e+07
2.37951e+07
4.10971e+07
7.9533e+07
1.848e+08
5.94343e+08
3.64963e+09
22886.9
23949.9
25882.7
28579
31985.4
36084.4
40884.7
46417.8
52735.9
59912.7
68044.6
77254.1
87704.9
99605.2
113169
128613
146203
166269
189223
215556
245846
280767
321099
367743
421734
484295
556924
641598
741139
859838
1.00426e+06
1.18415e+06
1.4148e+06
1.72081e+06
2.14058e+06
2.73309e+06
3.5899e+06
4.85849e+06
6.78934e+06
9.83529e+06
1.48776e+07
2.37948e+07
4.10969e+07
7.9533e+07
1.848e+08
5.94343e+08
3.64963e+09
23042.7
24095.4
26009.4
28679.6
32054.1
36116.7
40878
46370.8
52648.7
59786.3
67880.4
77053.3
87464.3
99322.7
112851
128268
145838
165887
188826
215144
245413
280308
320606
367203
421133
483615
556146
640701
740105
858660
1.00293e+06
1.18269e+06
1.41325e+06
1.71922e+06
2.13906e+06
2.73171e+06
3.58872e+06
4.85753e+06
6.7886e+06
9.83475e+06
1.48772e+07
2.37946e+07
4.10968e+07
7.95329e+07
1.848e+08
5.94343e+08
3.64963e+09
23204.3
24247.1
26142.9
28787.7
32130.7
36157.1
40879
46330.9
52567.7
59664.8
67719.7
76854.9
87225.1
99040.2
112530
127918
145465
165497
188420
214721
244971
279839
320103
366653
420522
482925
555356
639792
739060
857471
1.0016e+06
1.18122e+06
1.41168e+06
1.71764e+06
2.13753e+06
2.73033e+06
3.58753e+06
4.85656e+06
6.78785e+06
9.8342e+06
1.48768e+07
2.37943e+07
4.10966e+07
7.95328e+07
1.848e+08
5.94343e+08
3.64963e+09
23371.9
24405.2
26283.4
28903.4
32215.3
36205.7
40888.1
46298.5
52493.2
59548.6
67563
76658.9
86987.8
98758.7
112208
127563
145085