/*--------------------------------*- C++ -*----------------------------------*\
  =========                 |
  \\      /  F ield         | OpenFOAM: The Open Source CFD Toolbox
   \\    /   O peration     | Website:  https://openfoam.org
    \\  /    A nd           | Version:  7
     \\/     M anipulation  |
\*---------------------------------------------------------------------------*/
FoamFile
{
    version     2.0;
    format      ascii;
    class       surfaceScalarField;
    location    "2428";
    object      phi;
}
// * * * * * * * * * * * * * * * * * * * * * * * * * * * * * * * * * * * * * //

dimensions      [0 3 -1 0 0 0 0];

internalField   nonuniform List<scalar> 
21808
(
-6.86826e-22
-6.48722e-22
-3.24048e-22
-3.16688e-22
-1.58739e-22
-1.52963e-22
-8.21735e-23
-8.46348e-23
-1.74519e-23
-4.25215e-23
1.20159e-23
-2.72836e-23
1.92528e-23
-1.81865e-23
3.43183e-23
-1.09009e-23
2.68785e-23
-5.8464e-24
2.38005e-23
-1.5618e-24
4.2468e-23
6.13684e-25
3.8841e-23
-4.37582e-27
3.17286e-23
-8.36762e-25
3.29622e-23
-9.65332e-25
3.33705e-23
-1.7095e-24
2.21464e-23
-1.76606e-24
1.93867e-23
-1.18424e-24
1.69113e-23
-8.29308e-25
1.60381e-23
-7.90343e-25
6.84175e-24
-7.44996e-25
7.26932e-24
-5.94469e-25
1.63909e-23
-5.70425e-25
1.68125e-23
-6.80926e-25
1.01387e-23
-7.19622e-25
9.77732e-24
-6.6712e-25
1.02308e-23
-6.47023e-25
9.53135e-24
-6.18632e-25
9.68979e-24
-5.84773e-25
9.45714e-24
-5.45157e-25
8.43088e-24
-4.96836e-25
7.05281e-24
-4.45014e-25
6.16114e-24
-3.8828e-25
5.10508e-24
-3.32733e-25
4.50382e-24
-2.80292e-25
4.0683e-24
-2.31585e-25
3.24706e-24
-1.86966e-25
2.5987e-24
-1.4871e-25
1.99346e-24
-1.16409e-25
1.73681e-24
-8.95636e-26
1.35084e-24
-6.80741e-26
1.03243e-24
-5.08341e-26
7.34633e-25
-3.72134e-26
5.84751e-25
-2.65413e-26
3.59634e-25
-1.82685e-26
1.50331e-25
-1.1834e-26
-3.38071e-27
-6.71778e-27
-2.28991e-27
-3.42289e-22
-3.11266e-22
-3.14929e-22
-3.25823e-22
-2.35118e-22
-2.30873e-22
-1.57716e-22
-1.6143e-22
-1.11032e-22
-1.05027e-22
-6.80204e-23
-6.33431e-23
-4.22317e-23
-4.49054e-23
-1.56528e-23
-2.98276e-23
-1.30544e-23
-2.13354e-23
-1.24886e-23
-1.32291e-23
-9.41276e-24
-9.48336e-24
-7.16863e-24
-8.90182e-24
-5.46894e-24
-8.44451e-24
-6.34589e-24
-7.75638e-24
3.55862e-24
-6.02979e-24
1.19191e-23
-5.0208e-24
9.96287e-24
-5.18576e-24
9.44701e-24
-4.94127e-24
9.63354e-24
-4.52199e-24
1.00992e-23
-3.97858e-24
5.81776e-24
-3.40989e-24
7.98692e-24
-2.99335e-24
1.10333e-23
-2.67456e-24
1.2597e-23
-2.45921e-24
8.24265e-24
-2.27848e-24
9.53878e-24
-2.06024e-24
7.18979e-24
-1.88103e-24
8.30011e-24
-1.70476e-24
7.68935e-24
-1.51368e-24
6.7536e-24
-1.3316e-24
6.57062e-24
-1.15909e-24
5.72938e-24
-9.95529e-25
4.29943e-24
-8.41093e-25
3.63797e-24
-6.98363e-25
3.82816e-24
-5.70642e-25
2.71747e-24
-4.6074e-25
2.1277e-24
-3.66695e-25
1.76707e-24
-2.89136e-25
1.03719e-24
-2.26746e-25
8.20139e-25
-1.76762e-25
5.11307e-25
-1.3705e-25
3.64583e-25
-1.05307e-25
2.44221e-25
-7.97171e-26
1.23351e-25
-5.88725e-26
5.80235e-26
-4.15796e-26
-7.42275e-27
-2.66029e-26
-1.072e-26
-1.65095e-22
-1.60787e-22
-1.99157e-22
-2.72912e-22
-1.83296e-22
-2.37577e-22
-1.15265e-22
-1.81858e-22
-7.67307e-23
-1.25512e-22
-7.52261e-23
-9.00419e-23
-4.04058e-23
-6.91826e-23
-2.49153e-23
-5.7144e-23
-1.23292e-23
-4.72083e-23
-2.62984e-23
-3.93911e-23
-3.86171e-23
-3.25297e-23
-3.0938e-23
-2.4667e-23
-2.4106e-23
-2.12795e-23
-8.60529e-24
-1.73654e-23
-3.8121e-24
-1.5104e-23
-1.10546e-23
-1.33002e-23
-7.59385e-24
-1.1319e-23
-3.4082e-24
-9.69631e-24
2.52311e-24
-8.37341e-24
8.39928e-24
-7.33112e-24
2.38351e-24
-6.58472e-24
2.53668e-24
-5.85649e-24
3.59284e-24
-5.22418e-24
5.05118e-24
-4.62522e-24
5.44726e-24
-4.0522e-24
4.82442e-24
-3.55161e-24
2.7429e-24
-3.07516e-24
9.03444e-24
-2.66885e-24
9.2648e-24
-2.32999e-24
9.19254e-24
-2.00351e-24
9.4846e-24
-1.71052e-24
9.0387e-24
-1.44757e-24
7.61451e-24
-1.20768e-24
6.71383e-24
-9.89553e-25
5.70828e-24
-7.95679e-25
5.63106e-24
-6.27554e-25
5.09445e-24
-4.88144e-25
4.61107e-24
-3.75194e-25
4.05317e-24
-2.84994e-25
3.62241e-24
-2.14261e-25
3.2516e-24
-1.59334e-25
3.13594e-24
-1.17299e-25
2.81436e-24
-8.52247e-26
1.98961e-24
-6.04914e-26
8.62e-25
-4.04149e-26
2.77676e-27
-2.26468e-26
-6.80511e-27
-8.51311e-23
-9.60344e-23
-1.05995e-22
-2.27724e-22
-1.15237e-22
-2.31115e-22
-5.35419e-23
-1.78202e-22
-4.28965e-23
-1.51961e-22
-6.25827e-23
-1.27957e-22
-4.14126e-23
-9.85829e-23
-2.74981e-23
-8.03015e-23
-1.19182e-23
-6.83543e-23
-2.4497e-23
-6.00975e-23
-1.81113e-23
-5.12264e-23
-3.94473e-23
-4.2594e-23
-2.42462e-23
-3.09724e-23
-2.18374e-23
-2.44398e-23
-1.90191e-23
-1.98788e-23
-1.74897e-23
-1.59135e-23
-1.35333e-23
-1.31714e-23
-8.21391e-24
-1.11714e-23
-1.89341e-24
-9.56828e-24
-1.00333e-24
-8.33829e-24
4.98819e-25
-7.23672e-24
1.6149e-25
-6.17668e-24
4.55994e-24
-5.18352e-24
8.24911e-24
-4.37505e-24
7.79299e-24
-3.78069e-24
9.09606e-24
-3.28253e-24
3.58123e-24
-2.86448e-24
3.69726e-24
-2.45392e-24
6.85479e-24
-2.08509e-24
5.89053e-24
-1.78889e-24
5.14291e-24
-1.52712e-24
4.18796e-24
-1.28496e-24
3.23547e-24
-1.06388e-24
2.34331e-24
-8.61217e-25
1.93463e-24
-6.82048e-25
1.41826e-24
-5.31354e-25
5.26007e-25
-4.08233e-25
3.9567e-25
-3.10757e-25
1.35209e-25
-2.36534e-25
1.67931e-25
-1.80654e-25
-1.49998e-25
-1.39151e-25
-2.92067e-25
-1.07936e-25
-6.02953e-25
-8.40757e-26
-3.06469e-25
-6.48644e-26
-1.30405e-25
-4.85295e-26
-2.90632e-28
-3.27962e-26
-1.36982e-26
-3.76471e-23
-4.9803e-23
-5.92871e-23
-1.99745e-22
-4.3921e-23
-2.27613e-22
-3.84901e-23
-1.99754e-22
-3.24788e-23
-1.62576e-22
-3.75753e-23
-1.25812e-22
-3.50628e-23
-1.05958e-22
-3.18374e-23
-8.70352e-23
-2.85404e-23
-7.20463e-23
-3.01469e-23
-5.81963e-23
-1.15519e-23
-4.56208e-23
9.10649e-24
-3.65011e-23
5.37377e-24
-3.26949e-23
3.29587e-24
-2.77345e-23
1.2175e-23
-2.24685e-23
8.23469e-24
-1.89308e-23
4.80881e-24
-1.59453e-23
6.73275e-24
-1.349e-23
7.22322e-24
-1.15012e-23
5.09037e-24
-9.47948e-24
7.85204e-24
-7.84851e-24
9.03297e-24
-6.64995e-24
1.04008e-23
-5.65416e-24
5.77595e-24
-4.8075e-24
4.40539e-24
-4.10397e-24
2.95093e-24
-3.51116e-24
4.55943e-24
-3.00153e-24
5.87578e-24
-2.56686e-24
4.07219e-24
-2.20443e-24
3.2692e-24
-1.88503e-24
3.95357e-24
-1.598e-24
3.09377e-24
-1.34166e-24
3.64346e-24
-1.10798e-24
3.44546e-24
-8.9752e-25
2.57945e-24
-7.11317e-25
2.34687e-24
-5.51449e-25
2.23842e-24
-4.19944e-25
1.73468e-24
-3.15496e-25
1.7148e-24
-2.3456e-25
1.33708e-24
-1.73699e-25
1.13755e-24
-1.28371e-25
7.56073e-25
-9.50777e-26
8.67273e-25
-7.06243e-26
4.40121e-25
-5.2528e-26
1.85727e-25
-3.79288e-26
5.42638e-27
-2.43372e-26
-9.30606e-27
-2.02689e-23
-5.36309e-23
-3.40872e-23
-2.09526e-22
-1.13467e-23
-2.18648e-22
-1.67618e-23
-2.02532e-22
-6.50662e-25
-1.78224e-22
-3.21465e-23
-1.45302e-22
-3.00819e-23
-1.11419e-22
-2.71392e-23
-9.0986e-23
-1.88805e-23
-7.61263e-23
-1.31473e-23
-6.38982e-23
-3.19888e-24
-5.37373e-23
-1.52485e-23
-4.56491e-23
-6.80154e-24
-3.69388e-23
1.49083e-25
-3.05111e-23
-2.5343e-24
-2.56647e-23
-5.93228e-24
-2.12326e-23
-9.12819e-24
-1.7211e-23
-7.89312e-24
-1.36464e-23
4.5883e-24
-1.09208e-23
3.47475e-24
-9.20511e-24
1.22781e-24
-7.80775e-24
2.7371e-24
-6.6301e-24
4.00724e-24
-5.76097e-24
-7.35228e-25
-5.02157e-24
-1.05607e-24
-4.35222e-24
-1.11496e-24
-3.77185e-24
1.97557e-24
-3.24927e-24
1.40531e-24
-2.80513e-24
3.98031e-25
-2.4033e-24
1.22128e-24
-2.04779e-24
1.81775e-24
-1.73204e-24
1.51436e-24
-1.44974e-24
1.82894e-24
-1.19092e-24
1.67601e-24
-9.57664e-25
1.30101e-24
-7.52063e-25
1.14017e-24
-5.77724e-25
1.2093e-24
-4.36079e-25
1.11317e-24
-3.25847e-25
7.72207e-25
-2.42164e-25
7.03601e-25
-1.80033e-25
6.52386e-25
-1.34678e-25
6.21892e-25
-1.01763e-25
2.45241e-25
-7.77768e-26
3.0166e-25
-5.93708e-26
1.41752e-25
-4.44435e-26
-3.57706e-27
-3.00943e-26
-1.25104e-26
-1.94663e-23
-4.60496e-23
2.98387e-24
-1.89092e-22
-4.13264e-25
-2.1206e-22
-1.02335e-23
-1.88753e-22
1.3097e-23
-1.53489e-22
3.6755e-25
-1.28731e-22
-2.43281e-23
-1.01035e-22
-2.28977e-23
-8.51588e-23
-1.78929e-23
-7.38437e-23
-1.0778e-23
-6.29105e-23
-6.68771e-24
-5.28676e-23
-5.32615e-24
-4.38901e-23
-3.62401e-24
-3.64187e-23
-1.4329e-24
-2.99982e-23
2.3813e-27
-2.47476e-23
1.96274e-24
-2.04735e-23
4.55373e-24
-1.7016e-23
2.65252e-24
-1.42655e-23
2.19709e-24
-1.20779e-23
2.72822e-24
-1.01113e-23
2.91844e-24
-8.60171e-24
2.86439e-24
-7.35815e-24
4.46943e-24
-6.22843e-24
4.87432e-24
-5.36967e-24
3.405e-24
-4.65704e-24
4.37323e-24
-4.03229e-24
4.11348e-24
-3.51823e-24
3.72451e-24
-3.05988e-24
2.74541e-24
-2.65343e-24
3.47739e-24
-2.29313e-24
3.59227e-24
-1.96893e-24
3.73096e-24
-1.67302e-24
3.50202e-24
-1.39807e-24
3.47973e-24
-1.14461e-24
3.44137e-24
-9.1724e-25
3.41704e-24
-7.21628e-25
3.13909e-24
-5.59559e-25
3.27567e-24
-4.29475e-25
3.14476e-24
-3.28047e-25
3.23102e-24
-2.50366e-25
3.25415e-24
-1.91248e-25
2.92181e-24
-1.46145e-25
2.99864e-24
-1.10893e-25
1.78023e-24
-8.33874e-26
7.80419e-25
-5.96839e-26
-1.94035e-27
-3.76468e-26
-1.40843e-26
-1.29899e-23
-3.73973e-23
2.06216e-23
-1.61687e-22
1.53277e-23
-1.94193e-22
1.33854e-23
-1.76849e-22
1.81789e-23
-1.51055e-22
2.61488e-23
-1.25722e-22
-2.2408e-23
-1.12391e-22
-2.92343e-23
-9.02854e-23
-1.92599e-23
-7.1292e-23
-9.18082e-24
-6.10487e-23
-3.26422e-24
-5.15696e-23
-4.90528e-25
-4.3636e-23
2.16737e-25
-3.66315e-23
7.02814e-26
-3.07602e-23
-6.82019e-25
-2.58738e-23
-1.28269e-24
-2.18512e-23
-1.19443e-24
-1.85896e-23
-5.54368e-24
-1.5952e-23
-2.97655e-24
-1.3633e-23
-4.08406e-24
-1.17995e-23
-4.45201e-24
-1.00499e-23
2.19798e-24
-8.57533e-24
-4.70614e-25
-7.43314e-24
2.27089e-24
-6.40957e-24
3.50241e-24
-5.49778e-24
4.52109e-24
-4.727e-24
6.80473e-24
-4.05379e-24
7.83287e-24
-3.47925e-24
7.01683e-24
-2.98518e-24
7.04519e-24
-2.53967e-24
6.24866e-24
-2.14631e-24
6.26857e-24
-1.79176e-24
6.08266e-24
-1.47421e-24
6.27656e-24
-1.19048e-24
5.89407e-24
-9.41825e-25
5.70719e-24
-7.30279e-25
5.53291e-24
-5.58024e-25
5.49561e-24
-4.21342e-25
5.05521e-24
-3.16158e-25
4.86921e-24
-2.36214e-25
4.77613e-24
-1.76869e-25
5.39969e-24
-1.32915e-25
4.04557e-24
-1.00708e-25
4.32184e-24
-7.44905e-26
1.87759e-24
-5.21651e-26
5.65446e-27
-2.88702e-26
-7.3718e-27
-1.04061e-24
-3.87226e-23
2.063e-23
-1.65932e-22
2.42749e-23
-1.82735e-22
2.36648e-23
-1.6523e-22
2.34379e-23
-1.36274e-22
1.0209e-23
-1.21508e-22
-4.95021e-24
-1.04319e-22
-1.3031e-23
-8.78777e-23
-2.01112e-23
-7.40957e-23
-1.04419e-23
-5.89527e-23
-3.6714e-24
-5.18372e-23
-1.66442e-24
-4.22887e-23
-1.48914e-24
-3.58698e-23
-1.92608e-24
-3.02425e-23
-3.07177e-24
-2.53542e-23
-4.28907e-24
-2.11201e-23
-5.95066e-24
-1.74361e-23
-6.66498e-24
-1.42954e-23
-7.81166e-24
-1.16386e-23
-2.98973e-24
-9.42733e-24
-3.91972e-24
-7.79438e-24
-4.0909e-24
-6.50948e-24
-5.30765e-24
-5.42947e-24
-3.33244e-24
-4.59589e-24
-4.01593e-24
-3.96791e-24
-4.489e-24
-3.40961e-24
-5.47082e-24
-2.93033e-24
-6.65908e-24
-2.52021e-24
-6.27852e-24
-2.14334e-24
-6.291e-24
-1.82396e-24
-6.26987e-24
-1.54889e-24
-6.54841e-24
-1.29875e-24
-6.43608e-24
-1.0714e-24
-5.74371e-24
-8.64794e-25
-5.22621e-24
-6.8438e-25
-5.5766e-24
-5.30982e-25
-5.37142e-24
-4.04846e-25
-5.50665e-24
-3.05196e-25
-5.12254e-24
-2.29269e-25
-5.21478e-24
-1.72642e-25
-4.95913e-24
-1.309e-25
-5.83893e-24
-1.00169e-25
-4.4961e-24
-7.64096e-26
-4.60707e-24
-5.78691e-26
-1.98774e-24
-4.13451e-26
-3.8426e-27
-2.57332e-26
-9.42063e-27
-2.72766e-24
-3.33945e-23
3.24178e-23
-1.32584e-22
3.08028e-23
-1.67566e-22
3.67095e-23
-1.612e-22
1.32957e-23
-1.48369e-22
5.57805e-24
-1.21076e-22
-3.43845e-24
-1.00836e-22
-1.23986e-23
-8.30977e-23
-4.39554e-24
-6.49313e-23
-2.11841e-23
-5.39178e-23
6.37493e-24
-4.45831e-23
-1.93308e-24
-3.91477e-23
1.58946e-24
-3.28477e-23
2.62905e-24
-2.75089e-23
2.87457e-24
-2.29552e-23
3.28078e-24
-1.90881e-23
3.32183e-24
-1.57893e-23
2.96124e-24
-1.27274e-23
1.83807e-24
-1.01982e-23
2.95263e-25
-8.17785e-24
-2.1033e-24
-6.56361e-24
-4.81264e-24
-5.28259e-24
-6.57751e-24
-4.38495e-24
-1.08315e-23
-3.60268e-24
-8.96778e-24
-2.90508e-24
-9.55234e-24
-2.36139e-24
-9.54956e-24
-1.93772e-24
-6.98212e-24
-1.58448e-24
-7.52055e-24
-1.3259e-24
-8.72391e-24
-1.10299e-24
-8.49876e-24
-9.06598e-25
-8.97612e-24
-7.37857e-25
-8.50408e-24
-5.91742e-25
-9.0149e-24
-4.68525e-25
-8.74347e-24
-3.66739e-25
-8.87987e-24
-2.83735e-25
-8.50932e-24
-2.17108e-25
-8.78103e-24
-1.65896e-25
-8.34909e-24
-1.2662e-25
-8.39711e-24
-9.74233e-26
-8.23639e-24
-7.53736e-26
-7.77227e-24
-5.86442e-26
-7.00559e-24
-4.55072e-26
-4.98156e-24
-3.53163e-26
-2.1736e-24
-2.71497e-26
-2.78388e-27
-2.09888e-26
-1.11545e-26
6.42378e-24
-3.89389e-23
2.3238e-23
-1.37529e-22
2.73018e-23
-1.62121e-22
2.57999e-23
-1.53727e-22
2.04281e-23
-1.33819e-22
9.33591e-24
-1.19268e-22
-3.28726e-24
-9.67054e-23
3.95193e-24
-7.62982e-23
-6.77428e-24
-6.59149e-23
-1.73284e-23
-5.56874e-23
-9.68895e-24
-4.33638e-23
-6.33983e-24
-3.63165e-23
-4.60909e-24
-3.02549e-23
-2.89497e-24
-2.51201e-23
-6.21726e-25
-2.06974e-23
1.65146e-24
-1.68868e-23
8.89111e-24
-1.36699e-23
9.81268e-24
-1.13146e-23
9.08862e-24
-9.345e-24
5.94004e-24
-7.70473e-24
3.15691e-24
-6.37218e-24
-4.41886e-24
-5.40551e-24
-2.22048e-24
-4.4919e-24
-2.24481e-24
-3.7231e-24
-8.09372e-25
-3.11705e-24
-3.14436e-24
-2.60924e-24
-2.95066e-24
-2.17009e-24
-6.11714e-24
-1.80605e-24
-5.86495e-24
-1.49021e-24
-5.59826e-24
-1.23713e-24
-4.81248e-24
-1.03033e-24
-4.59524e-24
-8.5719e-25
-4.24056e-24
-7.04491e-25
-5.17655e-24
-5.66996e-25
-4.66866e-24
-4.45135e-25
-4.25165e-24
-3.40892e-25
-4.05094e-24
-2.55483e-25
-3.90163e-24
-1.88195e-25
-3.7549e-24
-1.37211e-25
-3.64544e-24
-9.9348e-26
-3.48841e-24
-7.19058e-26
-2.73433e-24
-5.19339e-26
-2.65936e-24
-3.82288e-26
-1.38658e-24
-2.78442e-26
-6.01069e-25
-2.06869e-26
3.975e-27
-1.55426e-26
-8.09275e-27
9.26088e-24
-4.61291e-23
2.01656e-23
-1.42615e-22
2.29759e-23
-1.61091e-22
2.53914e-23
-1.52194e-22
1.09305e-23
-1.36792e-22
1.6826e-23
-1.16112e-22
6.02828e-24
-1.00265e-22
-2.15437e-24
-8.46902e-23
-1.69882e-23
-6.71356e-23
-2.93727e-24
-5.83698e-23
-1.41723e-23
-4.69175e-23
-9.1128e-24
-3.65708e-23
-6.93423e-24
-3.09781e-23
-4.32617e-24
-2.61646e-23
-1.53387e-24
-2.17838e-23
9.73556e-25
-1.80547e-23
3.33812e-24
-1.50859e-23
4.08799e-24
-1.23527e-23
3.00929e-24
-1.02876e-23
1.2154e-24
-8.64693e-24
-6.32153e-24
-7.29397e-24
-8.19542e-24
-6.00081e-24
-5.90051e-24
-4.94119e-24
-5.42784e-24
-4.12853e-24
-4.11591e-24
-3.46258e-24
-2.70222e-24
-2.96322e-24
-1.19904e-24
-2.56085e-24
-1.50358e-24
-2.21846e-24
-1.64114e-24
-1.90529e-24
-1.80313e-24
-1.6178e-24
-1.99015e-24
-1.36131e-24
-1.80117e-24
-1.12813e-24
-1.26806e-24
-9.16032e-25
-1.99648e-24
-7.28311e-25
-1.77832e-24
-5.64749e-25
-1.77292e-24
-4.28611e-25
-1.85151e-24
-3.20123e-25
-2.21322e-24
-2.36262e-25
-2.05104e-24
-1.73135e-25
-2.05339e-24
-1.26447e-25
-1.33541e-24
-9.27058e-26
-1.75285e-24
-6.89523e-26
-6.53853e-25
-5.11748e-26
-9.51955e-25
-3.87494e-26
-3.95551e-25
-2.87756e-26
-1.48603e-27
-2.08513e-26
-1.00878e-26
8.52294e-24
-5.00837e-23
1.92369e-23
-1.43287e-22
2.22723e-23
-1.5606e-22
1.95903e-23
-1.43936e-22
1.39342e-23
-1.24307e-22
1.20311e-23
-1.05736e-22
6.69139e-24
-8.80135e-23
1.35449e-23
-7.99291e-23
-1.97844e-23
-7.17603e-23
9.74323e-24
-5.48913e-23
3.01305e-24
-4.63427e-23
-1.24091e-23
-3.98831e-23
-8.26588e-24
-3.26042e-23
-6.7286e-24
-2.63974e-23
-3.07481e-24
-2.2226e-23
-1.07246e-24
-1.74832e-23
6.01037e-24
-1.3703e-23
7.11482e-24
-1.13177e-23
8.48287e-24
-9.41344e-24
8.93182e-24
-7.84103e-24
9.76821e-24
-6.51374e-24
1.04615e-23
-5.42839e-24
1.0781e-23
-4.50492e-24
1.0389e-23
-3.68838e-24
6.86639e-24
-3.06497e-24
5.62986e-24
-2.50929e-24
4.33674e-24
-2.0536e-24
4.49676e-24
-1.67432e-24
4.36141e-24
-1.37101e-24
3.89507e-24
-1.144e-24
3.89055e-24
-9.57027e-25
3.83159e-24
-7.99292e-25
3.53147e-24
-6.63861e-25
3.39163e-24
-5.37461e-25
3.46673e-24
-4.23554e-25
3.31162e-24
-3.26291e-25
3.53097e-24
-2.46822e-25
3.4901e-24
-1.84056e-25
4.00019e-24
-1.36411e-25
3.79902e-24
-1.01664e-25
3.16653e-24
-7.66479e-26
3.31024e-24
-5.81871e-26
1.91433e-24
-4.54015e-26
1.88513e-24
-3.52244e-26
8.18475e-25
-2.76422e-26
4.91342e-28
-2.07478e-26
-1.00848e-26
6.42098e-24
-4.29021e-23
2.15672e-23
-1.39111e-22
2.43259e-23
-1.43267e-22
2.16559e-23
-1.32162e-22
1.71835e-23
-1.14917e-22
1.65777e-23
-9.95336e-23
-1.4088e-24
-9.00425e-23
1.91483e-24
-7.59418e-23
2.627e-24
-6.00812e-23
8.44168e-24
-5.13303e-23
2.21433e-24
-4.49059e-23
-3.73476e-24
-3.79804e-23
3.24928e-24
-3.18963e-23
-2.22495e-24
-2.62087e-23
1.41397e-23
-2.0289e-23
1.48006e-23
-1.67157e-23
8.88727e-24
-1.38868e-23
7.21632e-24
-1.12144e-23
6.13737e-24
-9.10921e-24
6.12896e-24
-7.4149e-24
7.33136e-24
-6.05923e-24
7.76672e-24
-4.94815e-24
1.13867e-23
-4.0857e-24
8.69032e-24
-3.45282e-24
8.84511e-24
-2.88724e-24
8.0344e-24
-2.47215e-24
7.55902e-24
-2.12399e-24
6.78056e-24
-1.81156e-24
3.18262e-24
-1.54452e-24
2.24628e-24
-1.29392e-24
1.83121e-24
-1.08012e-24
7.13866e-25
-8.87008e-25
1.94522e-24
-7.11326e-25
2.42809e-24
-5.59808e-25
2.38843e-24
-4.31578e-25
1.87231e-24
-3.24408e-25
2.0241e-24
-2.39136e-25
1.80888e-24
-1.74333e-25
1.67082e-24
-1.27142e-25
1.27107e-24
-9.33056e-26
1.53831e-24
-6.94102e-26
9.4222e-25
-5.32282e-26
1.45306e-24
-4.14511e-26
5.69267e-25
-3.34327e-26
2.42001e-25
-2.65909e-26
1.39823e-27
-2.02234e-26
-9.91845e-27
-1.67461e-24
-2.60835e-23
2.84789e-23
-9.32093e-23
2.51028e-23
-1.22834e-22
2.2372e-23
-1.21235e-22
1.73808e-23
-1.08369e-22
6.03028e-24
-9.02931e-23
2.26122e-24
-8.26615e-23
1.44406e-23
-7.70285e-23
1.13569e-23
-6.91966e-23
7.3821e-24
-5.94661e-23
7.49977e-24
-4.78249e-23
3.16163e-24
-3.95482e-23
9.10456e-24
-3.15181e-23
1.21739e-23
-2.50782e-23
1.43124e-23
-2.01022e-23
1.38894e-23
-1.61904e-23
1.24182e-23
-1.294e-23
1.10314e-23
-1.10322e-23
1.04347e-23
-9.2795e-24
9.79615e-24
-7.72454e-24
9.72282e-24
-6.41894e-24
9.45615e-24
-5.51983e-24
9.07649e-24
-4.70438e-24
8.18799e-24
-3.96756e-24
4.77892e-24
-3.43015e-24
3.95157e-24
-2.94086e-24
5.25571e-24
-2.49216e-24
5.00509e-24
-2.11816e-24
5.03649e-24
-1.79074e-24
4.40251e-24
-1.5055e-24
5.5536e-24
-1.25689e-24
5.25615e-24
-1.03973e-24
5.23771e-24
-8.44456e-25
4.72545e-24
-6.70645e-25
5.07838e-24
-5.20023e-25
4.93043e-24
-3.94936e-25
5.33881e-24
-2.94825e-25
5.11206e-24
-2.17563e-25
5.23629e-24
-1.59712e-25
5.05061e-24
-1.17587e-25
4.48344e-24
-8.76186e-26
4.34087e-24
-6.60418e-26
3.06462e-24
-5.0927e-26
2.51288e-24
-3.92293e-26
1.10177e-24
-3.00602e-26
-8.12021e-28
-2.12816e-26
-9.43474e-27
4.15846e-24
-2.4273e-23
1.42287e-23
-9.32685e-23
1.71159e-23
-1.16183e-22
1.74801e-23
-1.21035e-22
2.19122e-23
-1.18386e-22
-7.48892e-24
-1.14215e-22
-8.57289e-24
-1.0274e-22
3.70715e-24
-8.04883e-23
1.01668e-23
-6.56455e-23
1.68243e-23
-5.42662e-23
1.09419e-23
-4.60421e-23
1.30707e-23
-3.80568e-23
1.57639e-23
-3.11914e-23
1.71434e-23
-2.62889e-23
1.73692e-23
-2.19541e-23
1.69518e-23
-1.83654e-23
6.17189e-24
-1.61701e-23
6.92276e-24
-1.35854e-23
7.18764e-24
-1.13786e-23
7.3106e-24
-9.59862e-24
1.42613e-24
-8.12031e-24
2.77474e-24
-6.76208e-24
4.63772e-24
-5.78642e-24
5.40356e-25
-4.98086e-24
-3.49731e-25
-4.177e-24
1.41103e-24
-3.56273e-24
2.13777e-24
-3.06755e-24
2.26135e-24
-2.64054e-24
2.65096e-24
-2.2609e-24
2.08281e-24
-1.93269e-24
2.55495e-24
-1.63858e-24
2.72778e-24
-1.37666e-24
2.59207e-24
-1.13748e-24
2.16799e-24
-9.2416e-25
2.23302e-24
-7.33501e-25
1.99689e-24
-5.72057e-25
2.21069e-24
-4.39151e-25
1.97123e-24
-3.34124e-25
2.06451e-24
-2.52167e-25
1.65934e-24
-1.90072e-25
1.70826e-24
-1.42676e-25
1.24723e-24
-1.07235e-25
1.41268e-24
-7.99577e-26
7.44421e-25
-5.908e-26
3.26304e-25
-4.1988e-26
-2.12442e-27
-2.72201e-26
-1.11114e-26
5.43292e-24
-3.70113e-23
1.97005e-24
-9.08238e-23
1.95902e-24
-1.18654e-22
9.64056e-25
-1.23453e-22
4.32346e-24
-1.22791e-22
-1.12628e-23
-1.16683e-22
8.46192e-24
-9.17518e-23
1.05291e-23
-7.64213e-23
1.43279e-23
-6.29725e-23
1.4576e-23
-5.12971e-23
1.34936e-23
-4.40392e-23
1.35467e-23
-3.74825e-23
1.56698e-23
-3.32526e-23
1.7108e-23
-2.85015e-23
1.81394e-23
-2.49897e-23
7.53487e-24
-2.20187e-23
8.04436e-24
-1.86373e-23
9.03302e-24
-1.55981e-23
9.72162e-24
-1.31276e-23
9.80112e-24
-1.11123e-23
8.8015e-24
-9.48413e-24
5.32985e-24
-8.1772e-24
7.16253e-24
-7.00407e-24
9.40521e-24
-6.10012e-24
5.04113e-24
-5.34301e-24
4.45475e-24
-4.59191e-24
4.92474e-24
-3.9131e-24
5.71839e-24
-3.34022e-24
5.57959e-24
-2.84265e-24
5.47751e-24
-2.41509e-24
5.29608e-24
-2.03601e-24
5.37009e-24
-1.70416e-24
4.25864e-24
-1.41089e-24
4.40442e-24
-1.14797e-24
3.89835e-24
-9.20429e-25
3.78669e-24
-7.27652e-25
3.54138e-24
-5.67827e-25
3.61013e-24
-4.38722e-25
3.20233e-24
-3.35599e-25
3.24371e-24
-2.54308e-25
2.70421e-24
-1.91095e-25
2.60345e-24
-1.417e-25
1.95231e-24
-1.03741e-25
1.56066e-24
-7.40762e-26
6.80256e-25
-5.07523e-26
-1.9123e-27
-3.15273e-26
-1.23481e-26
1.01583e-23
-5.82232e-23
-1.23218e-23
-1.2475e-22
-1.07468e-23
-1.2756e-22
-1.06015e-23
-1.23278e-22
-1.15691e-23
-1.15443e-22
8.64358e-24
-1.05166e-22
1.20669e-23
-8.36834e-23
1.74368e-23
-7.30163e-23
2.00972e-23
-6.32882e-23
1.03177e-23
-5.54993e-23
1.19056e-23
-4.7202e-23
9.53616e-25
-4.01286e-23
1.02186e-23
-3.24863e-23
1.06253e-23
-2.69568e-23
1.29496e-23
-2.23439e-23
1.32245e-23
-1.91685e-23
1.87348e-23
-1.69034e-23
1.91628e-23
-1.46684e-23
1.86301e-23
-1.24659e-23
1.74227e-23
-1.05877e-23
1.52821e-23
-8.97601e-24
1.34139e-23
-7.61196e-24
1.0606e-23
-6.43988e-24
1.14461e-23
-5.43062e-24
1.16485e-23
-4.62559e-24
1.2607e-23
-3.97959e-24
1.1573e-23
-3.41452e-24
1.13703e-23
-2.92013e-24
1.08845e-23
-2.51032e-24
1.12839e-23
-2.1333e-24
1.05595e-23
-1.79499e-24
1.043e-23
-1.49854e-24
1.03696e-23
-1.22698e-24
1.00552e-23
-9.87939e-25
9.41815e-24
-7.81352e-25
9.10291e-24
-6.06763e-25
8.28875e-24
-4.62942e-25
8.21756e-24
-3.49144e-25
7.5761e-24
-2.61363e-25
7.00142e-24
-1.94888e-25
6.39197e-24
-1.45396e-25
5.24411e-24
-1.08398e-25
4.16616e-24
-8.08832e-26
2.75574e-24
-5.94457e-26
1.19781e-24
-4.22828e-26
3.34475e-27
-2.71787e-26
-1.09061e-26
3.04671e-24
-7.63056e-23
-1.1342e-23
-1.25983e-22
-1.7613e-23
-1.32276e-22
-1.71969e-23
-1.20831e-22
-2.09598e-23
-1.01347e-22
2.33525e-23
-8.89904e-23
7.67007e-24
-7.93983e-23
1.49127e-23
-6.95931e-23
1.55547e-23
-5.96841e-23
1.3404e-23
-4.96588e-23
1.23799e-23
-4.28644e-23
1.23693e-23
-3.6982e-23
1.25504e-23
-3.31875e-23
1.30373e-23
-2.86583e-23
5.11766e-24
-2.46521e-23
3.05172e-24
-2.02171e-23
9.97556e-24
-1.61628e-23
1.74896e-23
-1.36368e-23
1.87691e-23
-1.192e-23
1.93943e-23
-1.04058e-23
1.85544e-23
-9.07165e-24
1.81115e-23
-7.67777e-24
1.69475e-23
-6.47731e-24
1.6155e-23
-5.48004e-24
1.45029e-23
-4.70357e-24
1.62292e-23
-4.03419e-24
1.57852e-23
-3.45946e-24
1.29164e-23
-2.95722e-24
1.3995e-23
-2.502e-24
1.45554e-23
-2.12469e-24
1.2286e-23
-1.79974e-24
1.27967e-23
-1.50198e-24
1.1817e-23
-1.24021e-24
1.08455e-23
-1.00902e-24
1.00755e-23
-8.066e-25
1.04581e-23
-6.37297e-25
9.89231e-24
-4.97609e-25
1.00042e-23
-3.84879e-25
9.5685e-24
-2.95414e-25
8.79794e-24
-2.25647e-25
8.21505e-24
-1.70481e-25
6.37316e-24
-1.28597e-25
5.3963e-24
-9.49504e-26
3.29509e-24
-6.92834e-26
1.4458e-24
-4.75782e-26
6.90892e-28
-2.82198e-26
-9.62856e-27
1.6472e-24
-1.02351e-22
-1.3549e-23
-1.38791e-22
-1.77337e-23
-1.42746e-22
-1.15756e-23
-1.24067e-22
-2.01008e-23
-1.04293e-22
1.49276e-23
-8.429e-23
5.6919e-24
-8.14489e-23
1.59546e-23
-6.8244e-23
1.78265e-23
-5.35689e-23
1.32892e-23
-5.07447e-23
1.01815e-23
-4.45477e-23
5.34256e-24
-3.79016e-23
9.00359e-24
-3.12544e-23
1.04326e-23
-2.67636e-23
9.82571e-24
-2.37015e-23
9.91753e-24
-2.06253e-23
4.47247e-24
-1.79411e-23
4.72462e-24
-1.51745e-23
4.98056e-24
-1.28223e-23
6.21553e-24
-1.08763e-23
1.24206e-23
-8.99125e-24
1.26226e-23
-7.75216e-24
1.19504e-23
-6.76804e-24
8.13182e-24
-5.92529e-24
6.68936e-24
-5.1254e-24
8.731e-24
-4.4291e-24
9.14733e-24
-3.85606e-24
9.32176e-24
-3.34369e-24
9.19728e-24
-2.89988e-24
9.85553e-24
-2.494e-24
9.94267e-24
-2.10686e-24
1.06522e-23
-1.75872e-24
1.03789e-23
-1.45364e-24
1.0442e-23
-1.18271e-24
9.07098e-24
-9.45393e-25
9.40542e-24
-7.42801e-25
8.80754e-24
-5.76869e-25
8.93479e-24
-4.43824e-25
8.38058e-24
-3.39789e-25
8.7845e-24
-2.59229e-25
7.49323e-24
-1.99601e-25
7.58012e-24
-1.52072e-25
5.19015e-24
-1.1647e-25
4.21034e-24
-8.5384e-26
1.83133e-24
-5.8789e-26
5.10705e-29
-3.24524e-26
-8.77224e-27
7.84766e-24
-8.9527e-23
-1.60148e-23
-1.49458e-22
-1.28691e-23
-1.367e-22
-1.03168e-23
-1.22443e-22
-7.74725e-24
-1.15366e-22
5.54574e-25
-9.75063e-23
9.72625e-24
-7.91259e-23
2.46411e-23
-7.14778e-23
5.23466e-24
-7.37792e-23
8.92307e-24
-5.80638e-23
8.39684e-24
-4.75367e-23
8.06762e-24
-3.94851e-23
5.75213e-24
-3.26002e-23
-2.60985e-25
-2.69355e-23
1.69628e-24
-2.16668e-23
3.27401e-24
-1.95483e-23
3.76292e-24
-1.67521e-23
5.69614e-24
-1.41434e-23
7.4388e-24
-1.21884e-23
1.5149e-23
-1.03986e-23
1.34713e-23
-9.16719e-24
1.19189e-23
-7.92409e-24
1.12549e-23
-6.91886e-24
1.06167e-23
-6.04153e-24
9.65742e-24
-5.31213e-24
9.0791e-24
-4.66917e-24
9.69026e-24
-4.10219e-24
7.98194e-24
-3.57187e-24
7.04794e-24
-3.09044e-24
9.73462e-24
-2.65974e-24
9.0658e-24
-2.27667e-24
7.59248e-24
-1.9215e-24
6.90626e-24
-1.5923e-24
7.15723e-24
-1.29324e-24
6.36176e-24
-1.03469e-24
6.3903e-24
-8.12387e-25
5.82298e-24
-6.30243e-25
5.60754e-24
-4.82969e-25
5.06929e-24
-3.67711e-25
3.00177e-24
-2.79223e-25
3.17917e-24
-2.09054e-25
4.58838e-25
-1.57177e-25
1.22557e-24
-1.14561e-25
-3.59894e-25
-8.21779e-26
-1.53907e-25
-5.37986e-26
2.72486e-27
-2.80647e-26
-6.71106e-27
2.87368e-24
-7.1532e-23
-8.0503e-24
-1.24658e-22
-9.18557e-24
-1.23993e-22
-1.73973e-23
-1.10377e-22
-4.51263e-24
-9.46741e-23
3.82629e-24
-8.97388e-23
4.8783e-24
-8.73092e-23
-2.06392e-24
-7.70761e-23
1.85394e-23
-6.01629e-23
1.33723e-23
-5.45211e-23
1.34101e-23
-4.83567e-23
1.16319e-23
-4.12318e-23
9.10677e-24
-3.56412e-23
6.25485e-24
-3.01039e-23
-9.23087e-24
-2.54896e-23
8.89367e-25
-1.98925e-23
4.13754e-24
-1.66443e-23
1.59429e-24
-1.43455e-23
4.42268e-24
-1.24457e-23
6.10281e-24
-1.12268e-23
7.06331e-24
-9.52465e-24
4.02703e-24
-8.12672e-24
3.59784e-24
-6.86956e-24
2.51752e-24
-5.87907e-24
2.38037e-24
-5.03285e-24
1.73026e-24
-4.30376e-24
4.40357e-24
-3.67021e-24
3.61819e-24
-3.15204e-24
3.01138e-24
-2.69348e-24
4.62537e-24
-2.27286e-24
4.53274e-24
-1.91516e-24
4.2181e-24
-1.59796e-24
4.3935e-24
-1.31709e-24
3.72249e-24
-1.07383e-24
3.66227e-24
-8.6262e-25
3.03478e-24
-6.85206e-25
2.83684e-24
-5.38668e-25
2.31039e-24
-4.20189e-25
1.0407e-24
-3.25977e-25
1.12737e-24
-2.49315e-25
-8.32975e-25
-1.91192e-25
-4.32696e-28
-1.43299e-25
-1.27844e-24
-1.08081e-25
-6.46474e-26
-7.83131e-26
-4.1246e-26
-5.43721e-26
-4.34918e-27
-3.13442e-26
-9.63801e-27
2.90535e-24
-5.75351e-23
-5.55365e-24
-9.87878e-23
-7.47592e-24
-1.17856e-22
-1.62247e-23
-1.06899e-22
-1.59294e-23
-9.06779e-23
-1.01925e-23
-8.612e-23
-1.10429e-24
-8.38712e-23
9.79817e-24
-7.55607e-23
1.06387e-23
-6.3675e-23
6.10026e-24
-5.60345e-23
1.05118e-23
-4.78021e-23
1.69977e-24
-4.08682e-23
7.07591e-24
-3.73666e-23
1.12837e-24
-3.21275e-23
1.05813e-26
-2.63086e-23
-1.14694e-24
-2.19024e-23
-2.59442e-24
-1.78234e-23
-4.09677e-24
-1.51697e-23
-6.66146e-24
-1.26728e-23
7.71331e-24
-1.03376e-23
8.86788e-24
-9.01995e-24
8.98728e-24
-7.91262e-24
5.38107e-24
-7.02307e-24
4.32673e-24
-6.14127e-24
3.75768e-24
-5.34997e-24
3.27503e-24
-4.65896e-24
3.2952e-24
-4.04021e-24
2.76215e-24
-3.48533e-24
4.09586e-24
-2.99215e-24
3.85436e-24
-2.56553e-24
4.31165e-24
-2.17834e-24
4.55714e-24
-1.82739e-24
4.22549e-24
-1.50774e-24
4.03308e-24
-1.21683e-24
3.66385e-24
-9.61276e-25
3.04144e-24
-7.43016e-25
2.57332e-24
-5.62684e-25
1.84462e-24
-4.19561e-25
2.46802e-24
-3.09151e-25
1.16534e-24
-2.29197e-25
2.27226e-24
-1.68057e-25
1.98365e-25
-1.25548e-25
1.11263e-24
-9.10813e-26
-4.43962e-25
-6.56102e-26
-1.87668e-25
-4.2584e-26
5.28312e-27
-2.09112e-26
-3.6194e-27
9.87565e-24
-5.27727e-23
-1.33542e-23
-1.12267e-22
-7.56563e-24
-1.2274e-22
-1.28275e-23
-1.14867e-22
-2.57116e-23
-1.03675e-22
-2.36035e-23
-8.50348e-23
-7.88823e-24
-6.8565e-23
1.16422e-23
-6.03087e-23
4.52128e-24
-5.9037e-23
6.6729e-24
-5.25558e-23
1.05967e-23
-4.8244e-23
-7.27394e-24
-4.59945e-23
4.60555e-24
-3.58064e-23
4.90112e-24
-3.02092e-23
8.24344e-25
-2.61411e-23
1.97949e-24
-2.22219e-23
-8.2844e-24
-1.90758e-23
-7.43033e-24
-1.5678e-23
-6.37951e-24
-1.30123e-23
-3.93987e-24
-1.09506e-23
-1.76282e-24
-9.30506e-24
-3.1143e-24
-8.00099e-24
-1.68885e-24
-6.91477e-24
-1.22544e-24
-6.0066e-24
-6.61047e-25
-5.20143e-24
-4.36632e-25
-4.43625e-24
8.6294e-26
-3.79094e-24
4.53688e-25
-3.24538e-24
9.27343e-25
-2.76236e-24
8.92259e-25
-2.33226e-24
7.16755e-25
-1.951e-24
7.27816e-25
-1.61565e-24
7.67314e-25
-1.32167e-24
4.31424e-25
-1.06726e-24
3.96116e-25
-8.50722e-25
4.90057e-25
-6.71902e-25
4.44783e-25
-5.27517e-25
2.69947e-25
-4.12584e-25
-1.10064e-24
-3.21587e-25
-6.73718e-25
-2.46918e-25
-2.38505e-24
-1.90492e-25
-1.02428e-24
-1.43337e-25
-2.01812e-24
-1.08739e-25
-4.68151e-25
-7.89315e-26
-2.18196e-25
-5.46003e-26
-4.19031e-27
-3.06089e-26
-8.6124e-27
7.08681e-24
-4.34583e-23
-1.30802e-23
-1.2309e-22
-6.95102e-24
-1.2355e-22
-1.42576e-23
-1.20088e-22
-2.06175e-23
-1.07317e-22
-1.91796e-23
-8.88423e-23
-1.10749e-23
-7.36443e-23
-2.75983e-24
-6.25058e-23
-2.62264e-24
-5.41854e-23
-2.50977e-24
-4.83788e-23
-6.40959e-24
-4.09458e-23
7.20346e-24
-3.14617e-23
5.32206e-24
-3.04927e-23
4.6947e-24
-2.74681e-23
2.48051e-24
-2.42549e-23
1.96447e-26
-2.1189e-23
-2.50925e-24
-1.81898e-23
-4.14761e-24
-1.57343e-23
-4.98359e-24
-1.35314e-23
-5.78423e-24
-1.17358e-23
-6.17879e-24
-1.02496e-23
-9.30825e-24
-8.97579e-24
-8.80303e-24
-7.78174e-24
-8.21901e-24
-6.7695e-24
-3.87914e-24
-5.9019e-24
-3.86364e-24
-5.20604e-24
-3.74672e-24
-4.56035e-24
-2.76862e-24
-3.96061e-24
-2.14442e-24
-3.42639e-24
-1.76499e-24
-2.94737e-24
-1.96445e-24
-2.51082e-24
-1.58974e-24
-2.10973e-24
-1.25864e-24
-1.74134e-24
-1.05704e-24
-1.40915e-24
-1.11765e-24
-1.11821e-24
-1.31007e-24
-8.7083e-25
-1.63155e-24
-6.66932e-25
-1.90309e-24
-5.03463e-25
-9.17657e-25
-3.75553e-25
-1.91159e-24
-2.80884e-25
-2.61575e-25
-2.07214e-25
-1.85719e-24
-1.54507e-25
-4.32126e-25
-1.1136e-25
-1.45125e-24
-7.86965e-26
-6.29303e-25
-4.9549e-26
5.6147e-27
-2.28103e-26
-2.91767e-27
-4.24092e-24
-6.40496e-23
-7.01369e-24
-1.18918e-22
-1.01354e-23
-1.31816e-22
-1.28094e-23