/*--------------------------------*- C++ -*----------------------------------*\
  =========                 |
  \\      /  F ield         | OpenFOAM: The Open Source CFD Toolbox
   \\    /   O peration     | Website:  https://openfoam.org
    \\  /    A nd           | Version:  7
     \\/     M anipulation  |
\*---------------------------------------------------------------------------*/
FoamFile
{
    version     2.0;
    format      ascii;
    class       volScalarField;
    location    "2428";
    object      V;
}
// * * * * * * * * * * * * * * * * * * * * * * * * * * * * * * * * * * * * * //

dimensions      [0 3 0 0 0 0 0];

internalField   nonuniform List<scalar> 
11045
(
8.63968e-12
7.85425e-12
7.14023e-12
6.49112e-12
5.90101e-12
5.36456e-12
4.87687e-12
4.43352e-12
4.03047e-12
3.66407e-12
3.33097e-12
3.02815e-12
2.75287e-12
2.50261e-12
2.2751e-12
2.06827e-12
1.88025e-12
1.70931e-12
1.55392e-12
1.41266e-12
1.28423e-12
1.16748e-12
1.06135e-12
9.64863e-13
8.77148e-13
7.97408e-13
7.24916e-13
6.59014e-13
5.99104e-13
5.4464e-13
4.95127e-13
4.50116e-13
4.09196e-13
3.71996e-13
3.38179e-13
3.07435e-13
2.79486e-13
2.54079e-13
2.30981e-13
2.09982e-13
1.90893e-13
1.73539e-13
1.57763e-13
1.43421e-13
1.30383e-13
1.1853e-13
1.07754e-13
8.47931e-12
7.70846e-12
7.00769e-12
6.37063e-12
5.79148e-12
5.26498e-12
4.78635e-12
4.35123e-12
3.95566e-12
3.59605e-12
3.26914e-12
2.97195e-12
2.70177e-12
2.45615e-12
2.23287e-12
2.02988e-12
1.84534e-12
1.67759e-12
1.52508e-12
1.38643e-12
1.2604e-12
1.14581e-12
1.04165e-12
9.46954e-13
8.60867e-13
7.82606e-13
7.1146e-13
6.46782e-13
5.87984e-13
5.34531e-13
4.85937e-13
4.41761e-13
4.01601e-13
3.65092e-13
3.31901e-13
3.01729e-13
2.74299e-13
2.49362e-13
2.26693e-13
2.06085e-13
1.8735e-13
1.70318e-13
1.54834e-13
1.40759e-13
1.27962e-13
1.16329e-13
1.05754e-13
8.32192e-12
7.56538e-12
6.87762e-12
6.25238e-12
5.68398e-12
5.16726e-12
4.69751e-12
4.27046e-12
3.88224e-12
3.52931e-12
3.20846e-12
2.91678e-12
2.65162e-12
2.41056e-12
2.19142e-12
1.9922e-12
1.81109e-12
1.64645e-12
1.49677e-12
1.3607e-12
1.237e-12
1.12455e-12
1.02231e-12
9.29376e-13
8.44888e-13
7.6808e-13
6.98254e-13
6.34777e-13
5.7707e-13
5.24609e-13
4.76917e-13
4.33561e-13
3.94146e-13
3.58315e-13
3.25741e-13
2.96128e-13
2.69207e-13
2.44734e-13
2.22485e-13
2.02259e-13
1.83872e-13
1.67157e-13
1.5196e-13
1.38146e-13
1.25587e-13
1.1417e-13
1.03791e-13
8.16745e-12
7.42495e-12
6.74996e-12
6.13632e-12
5.57848e-12
5.07134e-12
4.61031e-12
4.19119e-12
3.81017e-12
3.4638e-12
3.1489e-12
2.86264e-12
2.6024e-12
2.36582e-12
2.15074e-12
1.95522e-12
1.77747e-12
1.61589e-12
1.46899e-12
1.33544e-12
1.21404e-12
1.10367e-12
1.00334e-12
9.12126e-13
8.29205e-13
7.53823e-13
6.85293e-13
6.22994e-13
5.66358e-13
5.14871e-13
4.68065e-13
4.25513e-13
3.8683e-13
3.51664e-13
3.19694e-13
2.90631e-13
2.6421e-13
2.40191e-13
2.18356e-13
1.98505e-13
1.80459e-13
1.64054e-13
1.4914e-13
1.35582e-13
1.23256e-13
1.12051e-13
1.01865e-13
8.01585e-12
7.28713e-12
6.62467e-12
6.02242e-12
5.47493e-12
4.97721e-12
4.52474e-12
4.1134e-12
3.73945e-12
3.3995e-12
3.09046e-12
2.80951e-12
2.5541e-12
2.32191e-12
2.11082e-12
1.91893e-12
1.74448e-12
1.58589e-12
1.44172e-12
1.31065e-12
1.1915e-12
1.08319e-12
9.84714e-13
8.95195e-13
8.13814e-13
7.3983e-13
6.72573e-13
6.1143e-13
5.55846e-13
5.05314e-13
4.59377e-13
4.17615e-13
3.7965e-13
3.45136e-13
3.1376e-13
2.85237e-13
2.59306e-13
2.35733e-13
2.14303e-13
1.9482e-13
1.7711e-13
1.61009e-13
1.46372e-13
1.33065e-13
1.20968e-13
1.09971e-13
9.99737e-14
7.86706e-12
7.15187e-12
6.5017e-12
5.91064e-12
5.37331e-12
4.88482e-12
4.44075e-12
4.03704e-12
3.67004e-12
3.3364e-12
3.03309e-12
2.75736e-12
2.50669e-12
2.27881e-12
2.07164e-12
1.88331e-12
1.7121e-12
1.55646e-12
1.41496e-12
1.28633e-12
1.16939e-12
1.06308e-12
9.66436e-13
8.78579e-13
7.98708e-13
7.26098e-13
6.60089e-13
6.00081e-13
5.45528e-13
4.95935e-13
4.5085e-13
4.09863e-13
3.72603e-13
3.3873e-13
3.07936e-13
2.79942e-13
2.54493e-13
2.31357e-13
2.10325e-13
1.91204e-13
1.73822e-13
1.5802e-13
1.43655e-13
1.30595e-13
1.18723e-13
1.0793e-13
9.8118e-14
7.72103e-12
7.01912e-12
6.38102e-12
5.80093e-12
5.27357e-12
4.79415e-12
4.35832e-12
3.96211e-12
3.60192e-12
3.27447e-12
2.97679e-12
2.70617e-12
2.46016e-12
2.23651e-12
2.03319e-12
1.84835e-12
1.68032e-12
1.52756e-12
1.3887e-12
1.26245e-12
1.14768e-12
1.04335e-12
9.48498e-13
8.62271e-13
7.83882e-13
7.1262e-13
6.47837e-13
5.88942e-13
5.35402e-13
4.86729e-13
4.42481e-13
4.02256e-13
3.65687e-13
3.32443e-13
3.02221e-13
2.74746e-13
2.49769e-13
2.27063e-13
2.06421e-13
1.87655e-13
1.70596e-13
1.55087e-13
1.40988e-13
1.28171e-13
1.16519e-13
1.05926e-13
9.62968e-14
7.57772e-12
6.88883e-12
6.26257e-12
5.69325e-12
5.17568e-12
4.70517e-12
4.27742e-12
3.88857e-12
3.53506e-12
3.21369e-12
2.92154e-12
2.65594e-12
2.41449e-12
2.19499e-12
1.99545e-12
1.81404e-12
1.64913e-12
1.49921e-12
1.36292e-12
1.23902e-12
1.12638e-12
1.02398e-12
9.30892e-13
8.46265e-13
7.69332e-13
6.99393e-13
6.35812e-13
5.78011e-13
5.25464e-13
4.77695e-13
4.34268e-13
3.94789e-13
3.58899e-13
3.26272e-13
2.96611e-13
2.69646e-13
2.45133e-13
2.22848e-13
2.02589e-13
1.84172e-13
1.67429e-13
1.52208e-13
1.38371e-13
1.25792e-13
1.14356e-13
1.0396e-13
9.45094e-14
7.43706e-12
6.76096e-12
6.14633e-12
5.58757e-12
5.07961e-12
4.61783e-12
4.19803e-12
3.81639e-12
3.46944e-12
3.15404e-12
2.86731e-12
2.60664e-12
2.36968e-12
2.15425e-12
1.95841e-12
1.78037e-12
1.61852e-12
1.47138e-12
1.33762e-12
1.21602e-12
1.10547e-12
1.00497e-12
9.13613e-13
8.30557e-13
7.55052e-13
6.86411e-13
6.2401e-13
5.67282e-13
5.15711e-13
4.68828e-13
4.26207e-13
3.87461e-13
3.52237e-13
3.20216e-13
2.91105e-13
2.64641e-13
2.40583e-13
2.18712e-13
1.98829e-13
1.80753e-13
1.64321e-13
1.49383e-13
1.35803e-13
1.23457e-13
1.12234e-13
1.02031e-13
9.27551e-14
7.29901e-12
6.63547e-12
6.03224e-12
5.48386e-12
4.98533e-12
4.53211e-12
4.1201e-12
3.74555e-12
3.40504e-12
3.09549e-12
2.81409e-12
2.55826e-12
2.32569e-12
2.11426e-12
1.92206e-12
1.74733e-12
1.58848e-12
1.44407e-12
1.31279e-12
1.19345e-12
1.08495e-12
9.8632e-13
8.96655e-13
8.15141e-13
7.41037e-13
6.7367e-13
6.12427e-13
5.56752e-13
5.06138e-13
4.60126e-13
4.18296e-13
3.80269e-13
3.45699e-13
3.14272e-13
2.85702e-13
2.59729e-13
2.36117e-13
2.14652e-13
1.95138e-13
1.77398e-13
1.61271e-13
1.4661e-13
1.33282e-13
1.21165e-13
1.1015e-13
1.00137e-13
9.10334e-14
7.16353e-12
6.5123e-12
5.92027e-12
5.38207e-12
4.89279e-12
4.44799e-12
4.04363e-12
3.67602e-12
3.34184e-12
3.03804e-12
2.76185e-12
2.51077e-12
2.28252e-12
2.07502e-12
1.88638e-12
1.71489e-12
1.55899e-12
1.41727e-12
1.28842e-12
1.17129e-12
1.06481e-12
9.68012e-13
8.80011e-13
8.0001e-13
7.27282e-13
6.61165e-13
6.01059e-13
5.46418e-13
4.96743e-13
4.51585e-13
4.10532e-13
3.73211e-13
3.39282e-13
3.08439e-13
2.80399e-13
2.54908e-13
2.31734e-13
2.10668e-13
1.91516e-13
1.74106e-13
1.58278e-13
1.43889e-13
1.30808e-13
1.18916e-13
1.08106e-13
9.8278e-14
8.93437e-14
7.03056e-12
6.39142e-12
5.81038e-12
5.28217e-12
4.80197e-12
4.36543e-12
3.96857e-12
3.60779e-12
3.27981e-12
2.98165e-12
2.71059e-12
2.46417e-12
2.24015e-12
2.0365e-12
1.85137e-12
1.68306e-12
1.53006e-12
1.39096e-12
1.26451e-12
1.14955e-12
1.04505e-12
9.50044e-13
8.63677e-13
7.8516e-13
7.13782e-13
6.48893e-13
5.89903e-13
5.36275e-13
4.87523e-13
4.43203e-13
4.02911e-13
3.66283e-13
3.32985e-13
3.02713e-13
2.75194e-13
2.50176e-13
2.27433e-13
2.06757e-13
1.87961e-13
1.70874e-13
1.5534e-13
1.41218e-13
1.2838e-13
1.16709e-13
1.06099e-13
9.64538e-14
8.76853e-14
6.90006e-12
6.27279e-12
5.70253e-12
5.18412e-12
4.71284e-12
4.2844e-12
3.89491e-12
3.54082e-12
3.21893e-12
2.9263e-12
2.66027e-12
2.41843e-12
2.19857e-12
1.9987e-12
1.817e-12
1.65182e-12
1.50166e-12
1.36514e-12
1.24104e-12
1.12822e-12
1.02565e-12
9.3241e-13
8.47645e-13
7.70587e-13
7.00533e-13
6.36848e-13
5.78953e-13
5.26321e-13
4.78474e-13
4.34976e-13
3.95433e-13
3.59484e-13
3.26804e-13
2.97094e-13
2.70086e-13
2.45533e-13
2.23211e-13
2.0292e-13
1.84472e-13
1.67702e-13
1.52456e-13
1.38597e-13
1.25997e-13
1.14543e-13
1.0413e-13
9.46634e-14
8.60577e-14
6.77199e-12
6.15635e-12
5.59668e-12
5.08789e-12
4.62536e-12
4.20487e-12
3.82261e-12
3.4751e-12
3.15918e-12
2.87198e-12
2.61089e-12
2.37354e-12
2.15776e-12
1.9616e-12
1.78328e-12
1.62116e-12
1.47378e-12
1.3398e-12
1.218e-12
1.10727e-12
1.00661e-12
9.15103e-13
8.31911e-13
7.56283e-13
6.8753e-13
6.25027e-13
5.68207e-13
5.16552e-13
4.69592e-13
4.26902e-13
3.88093e-13
3.52812e-13
3.20738e-13
2.9158e-13
2.65073e-13
2.40975e-13
2.19068e-13
1.99153e-13
1.81048e-13
1.64589e-13
1.49627e-13
1.36024e-13
1.23658e-13
1.12417e-13
1.02197e-13
9.29063e-14
8.44603e-14
6.64629e-12
6.04208e-12
5.4928e-12
4.99345e-12
4.5395e-12
4.12682e-12
3.75166e-12
3.4106e-12
3.10054e-12
2.81867e-12
2.56243e-12
2.32948e-12
2.11771e-12
1.92519e-12
1.75018e-12
1.59107e-12
1.44643e-12
1.31493e-12
1.19539e-12
1.08672e-12
9.87928e-13
8.98117e-13
8.1647e-13
7.42245e-13
6.74768e-13
6.13426e-13
5.5766e-13
5.06963e-13
4.60876e-13
4.18978e-13
3.80889e-13
3.46263e-13
3.14784e-13
2.86168e-13
2.60152e-13
2.36502e-13
2.15002e-13
1.95456e-13
1.77688e-13
1.61534e-13
1.46849e-13
1.33499e-13
1.21363e-13
1.1033e-13
1.003e-13
9.11818e-14
8.28926e-14
6.52292e-12
5.92993e-12
5.39084e-12
4.90077e-12
4.45524e-12
4.05022e-12
3.68202e-12
3.34729e-12
3.04299e-12
2.76636e-12
2.51487e-12
2.28624e-12
2.0784e-12
1.88946e-12
1.71769e-12
1.56154e-12
1.41958e-12
1.29053e-12
1.1732e-12
1.06655e-12
9.69591e-13
8.81446e-13
8.01315e-13
7.28468e-13
6.62243e-13
6.02039e-13
5.47309e-13
4.97553e-13
4.52321e-13
4.11201e-13
3.73819e-13
3.39836e-13
3.08941e-13
2.80856e-13
2.55324e-13
2.32112e-13
2.11011e-13
1.91828e-13
1.74389e-13
1.58536e-13
1.44123e-13
1.31021e-13
1.1911e-13
1.08282e-13
9.84383e-14
8.94893e-14
8.13539e-14
6.40184e-12
5.81986e-12
5.29078e-12
4.8098e-12
4.37255e-12
3.97504e-12
3.61367e-12
3.28516e-12
2.98651e-12
2.71501e-12
2.46819e-12
2.24381e-12
2.03982e-12
1.85439e-12
1.68581e-12
1.53255e-12
1.39323e-12
1.26657e-12
1.15143e-12
1.04675e-12
9.51593e-13
8.65085e-13
7.86441e-13
7.14946e-13
6.49951e-13
5.90865e-13
5.3715e-13
4.88318e-13
4.43925e-13
4.03568e-13
3.6688e-13
3.33528e-13
3.03207e-13
2.75643e-13
2.50584e-13
2.27804e-13
2.07094e-13
1.88268e-13
1.71152e-13
1.55593e-13
1.41448e-13
1.28589e-13
1.16899e-13
1.06272e-13
9.66111e-14
8.78282e-14
7.98439e-14
6.28301e-12
5.71183e-12
5.19257e-12
4.72052e-12
4.29138e-12
3.90126e-12
3.5466e-12
3.22418e-12
2.93107e-12
2.66461e-12
2.42237e-12
2.20216e-12
2.00196e-12
1.81997e-12
1.65451e-12
1.5041e-12
1.36737e-12
1.24306e-12
1.13006e-12
1.02732e-12
9.3393e-13
8.49027e-13
7.71843e-13
7.01675e-13
6.37887e-13
5.79897e-13
5.27179e-13
4.79254e-13
4.35685e-13
3.96078e-13
3.6007e-13
3.27337e-13
2.97579e-13
2.70526e-13
2.45933e-13
2.23575e-13
2.0325e-13
1.84773e-13
1.67976e-13
1.52705e-13
1.38823e-13
1.26203e-13
1.1473e-13
1.043e-13
9.48178e-14
8.6198e-14
7.83618e-14
6.16639e-12
5.60581e-12
5.09619e-12
4.6329e-12
4.21173e-12
3.82884e-12
3.48077e-12
3.16433e-12
2.87667e-12
2.61515e-12
2.37741e-12
2.16128e-12
1.9648e-12
1.78618e-12
1.6238e-12
1.47618e-12
1.34199e-12
1.21999e-12
1.10908e-12
1.00825e-12
9.16595e-13
8.33268e-13
7.57516e-13
6.88651e-13
6.26046e-13
5.69133e-13
5.17394e-13
4.70358e-13
4.27598e-13
3.88726e-13
3.53387e-13
3.21261e-13
2.92055e-13
2.65505e-13
2.41368e-13
2.19425e-13
1.99478e-13
1.81343e-13
1.64858e-13
1.49871e-13
1.36246e-13
1.2386e-13
1.126e-13
1.02364e-13
9.30578e-14
8.4598e-14
7.69073e-14
6.05193e-12
5.50176e-12
5.0016e-12
4.54691e-12
4.13355e-12
3.75777e-12
3.41616e-12
3.1056e-12
2.82327e-12
2.56661e-12
2.33328e-12
2.12117e-12
1.92833e-12
1.75303e-12
1.59366e-12
1.44878e-12
1.31708e-12
1.19734e-12
1.08849e-12
9.89539e-13
8.99581e-13
8.17801e-13
7.43455e-13
6.75869e-13
6.14426e-13
5.58569e-13
5.0779e-13
4.61627e-13
4.19661e-13
3.8151e-13
3.46827e-13
3.15298e-13
2.86634e-13
2.60577e-13
2.36888e-13
2.15353e-13
1.95775e-13
1.77977e-13
1.61798e-13
1.47089e-13
1.33717e-13
1.21561e-13
1.1051e-13
1.00464e-13
9.13305e-14
8.30277e-14
7.54798e-14
5.9396e-12
5.39963e-12
4.90876e-12
4.46251e-12
4.05682e-12
3.68802e-12
3.35275e-12
3.04795e-12
2.77087e-12
2.51897e-12
2.28997e-12
2.08179e-12
1.89254e-12
1.72049e-12
1.56408e-12
1.42189e-12
1.29263e-12
1.17512e-12
1.06829e-12
9.71172e-13
8.82883e-13
8.02621e-13
7.29656e-13
6.63323e-13
6.03021e-13
5.48201e-13
4.98365e-13
4.53059e-13
4.11872e-13
3.74429e-13
3.4039e-13
3.09445e-13
2.81314e-13
2.5574e-13
2.32491e-13
2.11355e-13
1.92141e-13
1.74674e-13
1.58794e-13
1.44358e-13
1.31235e-13
1.19305e-13
1.08459e-13
9.85988e-14
8.96353e-14
8.14866e-14
7.40787e-14
5.82935e-12
5.29941e-12
4.81764e-12
4.37968e-12
3.98152e-12
3.61957e-12
3.29051e-12
2.99138e-12
2.71943e-12
2.47221e-12
2.24747e-12
2.04315e-12
1.85741e-12
1.68855e-12
1.53505e-12
1.3955e-12
1.26864e-12
1.15331e-12
1.04846e-12
9.53145e-13
8.66495e-13
7.87723e-13
7.16112e-13
6.51011e-13
5.91828e-13
5.38025e-13
4.89114e-13
4.44649e-13
4.04226e-13
3.67479e-13
3.34071e-13
3.03701e-13
2.76092e-13
2.50993e-13
2.28175e-13
2.07432e-13
1.88575e-13
1.71431e-13
1.55847e-13
1.41679e-13
1.28799e-13
1.1709e-13
1.06445e-13
9.67686e-14
8.79715e-14
7.99741e-14
7.27037e-14
5.72114e-12
5.20104e-12
4.72822e-12
4.29838e-12
3.90762e-12
3.55238e-12
3.22944e-12
2.93585e-12
2.66896e-12
2.42632e-12
2.20575e-12
2.00523e-12
1.82293e-12
1.65721e-12
1.50656e-12
1.3696e-12
1.24509e-12
1.1319e-12
1.029e-12
9.35453e-13
8.50412e-13
7.73102e-13
7.0282e-13
6.38927e-13
5.80843e-13
5.28039e-13
4.80035e-13
4.36396e-13
3.96723e-13
3.60658e-13
3.27871e-13
2.98064e-13
2.70967e-13
2.46334e-13
2.2394e-13
2.03582e-13
1.85074e-13
1.68249e-13
1.52954e-13
1.39049e-13
1.26408e-13
1.14917e-13
1.0447e-13
9.49724e-14
8.63386e-14
7.84896e-14
7.13542e-14
5.61495e-12
5.1045e-12
4.64045e-12
4.2186e-12
3.83509e-12
3.48644e-12
3.16949e-12
2.88136e-12
2.61942e-12
2.38129e-12
2.16481e-12
1.96801e-12
1.7891e-12
1.62645e-12
1.47859e-12
1.34417e-12
1.22198e-12
1.11089e-12
1.0099e-12
9.18089e-13
8.34627e-13
7.58751e-13
6.89774e-13
6.27067e-13
5.70061e-13
5.18237e-13
4.71125e-13
4.28295e-13
3.89359e-13
3.53963e-13
3.21785e-13
2.92532e-13
2.65938e-13
2.41762e-13
2.19783e-13
1.99803e-13
1.81639e-13
1.65126e-13
1.50115e-13
1.36468e-13
1.24062e-13
1.12784e-13
1.02531e-13
9.32096e-14
8.4736e-14
7.70327e-14
7.00297e-14
5.51073e-12
5.00975e-12
4.55432e-12
4.14029e-12
3.7639e-12
3.42173e-12
3.11066e-12
2.82787e-12
2.57079e-12
2.33709e-12
2.12462e-12
1.93148e-12
1.75589e-12
1.59626e-12
1.45115e-12
1.31922e-12
1.19929e-12
1.09027e-12
9.91153e-13
9.01048e-13
8.19134e-13
7.44668e-13
6.76971e-13
6.15428e-13
5.5948e-13
5.08618e-13
4.6238e-13
4.20345e-13
3.82132e-13
3.47393e-13
3.15812e-13
2.87102e-13
2.61001e-13
2.37274e-13
2.15704e-13
1.96094e-13
1.78268e-13
1.62061e-13
1.47329e-13
1.33935e-13
1.21759e-13
1.1069e-13
1.00627e-13
9.14794e-14
8.31631e-14
7.56028e-14
6.87298e-14
5.40844e-12
4.91676e-12
4.46978e-12
4.06344e-12
3.69404e-12
3.35821e-12
3.05292e-12
2.77538e-12
2.52308e-12
2.29371e-12
2.08519e-12
1.89562e-12
1.7233e-12
1.56663e-12
1.42421e-12
1.29474e-12
1.17703e-12
1.07003e-12
9.72755e-13
8.84323e-13
8.0393e-13
7.30845e-13
6.64405e-13
6.04004e-13
5.49095e-13
4.99177e-13
4.53797e-13
4.12543e-13
3.75039e-13
3.40945e-13
3.0995e-13
2.81773e-13
2.56157e-13
2.3287e-13
2.117e-13
1.92454e-13
1.74959e-13
1.59053e-13
1.44594e-13
1.31449e-13
1.19499e-13
1.08636e-13
9.87595e-14
8.97814e-14
8.16195e-14
7.41995e-14
6.74541e-14
5.30805e-12
4.8255e-12
4.38682e-12
3.98802e-12
3.62547e-12
3.29588e-12
2.99625e-12
2.72387e-12
2.47624e-12
2.25113e-12
2.04648e-12
1.86044e-12
1.69131e-12
1.53755e-12
1.39777e-12
1.2707e-12
1.15519e-12
1.05017e-12
9.54699e-13
8.67908e-13
7.89008e-13
7.1728e-13
6.52072e-13
5.92793e-13
5.38903e-13
4.89912e-13
4.45374e-13
4.04886e-13
3.68078e-13
3.34616e-13
3.04197e-13
2.76542e-13
2.51402e-13
2.28547e-13
2.0777e-13
1.88882e-13
1.71711e-13
1.56101e-13
1.4191e-13
1.29009e-13
1.17281e-13
1.06619e-13
9.69264e-14
8.81149e-14
8.01045e-14
7.28222e-14
6.6202e-14
5.20952e-12
4.73593e-12
4.30539e-12
3.91399e-12
3.55817e-12
3.2347e-12
2.94064e-12
2.67331e-12
2.43028e-12
2.20935e-12
2.0085e-12
1.82591e-12
1.65991e-12
1.50901e-12
1.37183e-12
1.24712e-12
1.13374e-12
1.03068e-12
9.36978e-13
8.51798e-13
7.74362e-13
7.03966e-13
6.39969e-13
5.8179e-13
5.289e-13
4.80818e-13
4.37107e-13
3.9737e-13
3.61246e-13
3.28405e-13
2.9855e-13
2.71409e-13
2.46736e-13
2.24305e-13
2.03914e-13
1.85376e-13
1.68524e-13
1.53203e-13
1.39276e-13
1.26614e-13
1.15104e-13
1.0464e-13
9.51273e-14
8.64793e-14
7.86176e-14
7.14705e-14
6.49732e-14
5.11282e-12
4.64802e-12
4.22547e-12
3.84134e-12
3.49213e-12
3.17466e-12
2.88606e-12
2.62369e-12
2.38517e-12
2.16834e-12
1.97121e-12
1.79201e-12
1.6291e-12
1.481e-12
1.34637e-12
1.22397e-12
1.1127e-12
1.01154e-12
9.19586e-13
8.35987e-13
7.59989e-13
6.90899e-13
6.2809e-13
5.70991e-13
5.19082e-13
4.71893e-13
4.28994e-13
3.89994e-13
3.5454e-13
3.22309e-13
2.93009e-13
2.66371e-13
2.42156e-13
2.20142e-13
2.00129e-13
1.81935e-13
1.65396e-13
1.5036e-13
1.36691e-13
1.24264e-13
1.12967e-13
1.02698e-13
9.33615e-14
8.48741e-14
7.71583e-14
7.01439e-14
6.37672e-14
5.01792e-12
4.56175e-12
4.14704e-12
3.77004e-12
3.42731e-12
3.11573e-12
2.83249e-12
2.57499e-12
2.3409e-12
2.12809e-12
1.93463e-12
1.75875e-12
1.59886e-12
1.45351e-12
1.32138e-12
1.20125e-12
1.09205e-12
9.92769e-13
9.02517e-13
8.2047e-13
7.45882e-13
6.78074e-13
6.16431e-13
5.60392e-13
5.09447e-13
4.63134e-13
4.21031e-13
3.82755e-13
3.47959e-13
3.16327e-13
2.8757e-13
2.61427e-13
2.37661e-13
2.16055e-13
1.96414e-13
1.78558e-13
1.62326e-13
1.47569e-13
1.34153e-13
1.21958e-13
1.10871e-13
1.00791e-13
9.16286e-14
8.32987e-14
7.57261e-14
6.88419e-14
6.25836e-14
4.92478e-12
4.47707e-12
4.07007e-12
3.70006e-12
3.36369e-12
3.0579e-12
2.77991e-12
2.52719e-12
2.29745e-12
2.08859e-12
1.89872e-12
1.7261e-12
1.56919e-12
1.42653e-12
1.29685e-12
1.17895e-12
1.07178e-12
9.74341e-13
8.85765e-13
8.05241e-13
7.32037e-13
6.65488e-13
6.04989e-13
5.4999e-13
4.99991e-13
4.54537e-13
4.13216e-13
3.75651e-13
3.41501e-13
3.10455e-13
2.82232e-13
2.56575e-13
2.3325e-13
2.12045e-13
1.92768e-13
1.75244e-13
1.59313e-13
1.4483e-13
1.31663e-13
1.19694e-13
1.08813e-13
9.89206e-14
8.99278e-14
8.17525e-14
7.43205e-14
6.75641e-14
6.14219e-14
4.83337e-12
4.39397e-12
3.99452e-12
3.63138e-12
3.30125e-12
3.00114e-12
2.72831e-12
2.48028e-12
2.2548e-12
2.04982e-12
1.86347e-12
1.69407e-12
1.54006e-12
1.40005e-12
1.27278e-12
1.15707e-12
1.05188e-12
9.56256e-13
8.69323e-13
7.90294e-13
7.18449e-13
6.53136e-13
5.9376e-13
5.39781e-13
4.9071e-13
4.461e-13
4.05546e-13
3.68678e-13
3.35162e-13
3.04693e-13
2.76993e-13
2.51812e-13
2.2892e-13
2.08109e-13
1.8919e-13
1.71991e-13
1.56355e-13
1.42141e-13
1.29219e-13
1.17472e-13
1.06793e-13
9.70844e-14
8.82586e-14
8.02351e-14
7.2941e-14
6.631e-14
6.02818e-14
4.74365e-12
4.31241e-12
3.92037e-12
3.56397e-12
3.23998e-12
2.94543e-12
2.67767e-12
2.43424e-12
2.21295e-12
2.01177e-12
1.82888e-12
1.66262e-12
1.51147e-12
1.37407e-12
1.24915e-12
1.13559e-12
1.03236e-12
9.38506e-13
8.53187e-13
7.75625e-13
7.05113e-13
6.41012e-13
5.82738e-13
5.29762e-13
4.81602e-13
4.3782e-13
3.98018e-13
3.61835e-13
3.28941e-13
2.99037e-13
2.71852e-13
2.47138e-13
2.24671e-13
2.04246e-13
1.85678e-13
1.68799e-13
1.53453e-13
1.39503e-13
1.26821e-13
1.15292e-13
1.04811e-13
9.52824e-14
8.66203e-14
7.87458e-14
7.15871e-14
6.50791e-14
5.91629e-14
4.6556e-12
4.23236e-12
3.8476e-12
3.49782e-12
3.17984e-12
2.89076e-12
2.62796e-12
2.38906e-12
2.17187e-12
1.97443e-12
1.79494e-12
1.63176e-12
1.48342e-12
1.34856e-12
1.22597e-12
1.11451e-12
1.01319e-12
9.21086e-13
8.37351e-13
7.61228e-13
6.92025e-13
6.29114e-13
5.71922e-13
5.19929e-13
4.72663e-13
4.29693e-13
3.9063e-13
3.55118e-13
3.22835e-13
2.93486e-13
2.66806e-13
2.42551e-13
2.20501e-13
2.00455e-13
1.82232e-13
1.65665e-13
1.50605e-13
1.36914e-13
1.24467e-13
1.13152e-13
1.02865e-13
9.35138e-14
8.50125e-14
7.72841e-14
7.02583e-14
6.38712e-14
5.80647e-14
4.56918e-12
4.1538e-12
3.77619e-12
3.4329e-12
3.12081e-12
2.8371e-12
2.57919e-12
2.34471e-12
2.13156e-12
1.93778e-12
1.76162e-12
1.60147e-12
1.45588e-12
1.32353e-12
1.20321e-12
1.09383e-12
9.94388e-13
9.03989e-13
8.21808e-13
7.47098e-13
6.7918e-13
6.17436e-13
5.61306e-13
5.10278e-13
4.63889e-13
4.21717e-13
3.83379e-13
3.48527e-13
3.16843e-13
2.88039e-13
2.61853e-13
2.38048e-13
2.16408e-13
1.96734e-13
1.78849e-13
1.6259e-13
1.47809e-13
1.34372e-13
1.22157e-13
1.11051e-13
1.00956e-13
9.1778e-14
8.34345e-14
7.58496e-14
6.89542e-14
6.26856e-14
5.69869e-14
4.48437e-12
4.0767e-12
3.70609e-12
3.36918e-12
3.06289e-12
2.78444e-12
2.53131e-12
2.30119e-12
2.09199e-12
1.90181e-12
1.72892e-12
1.57175e-12
1.42886e-12
1.29896e-12
1.18088e-12
1.07352e-12
9.7593e-13
8.87209e-13
8.06554e-13
7.33231e-13
6.66573e-13
6.05976e-13
5.50887e-13
5.00806e-13
4.55279e-13
4.1389e-13
3.76263e-13
3.42058e-13
3.10961e-13
2.82692e-13
2.56993e-13
2.3363e-13
2.12391e-13
1.93083e-13
1.7553e-13
1.59572e-13
1.45066e-13
1.31878e-13
1.19889e-13
1.0899e-13
9.90819e-14
9.00744e-14
8.18858e-14
7.44417e-14
6.76743e-14
6.1522e-14
5.59291e-14
4.40113e-12
4.00103e-12
3.6373e-12
3.30664e-12
3.00603e-12
2.73276e-12
2.48433e-12
2.25848e-12
2.05316e-12
1.86651e-12
1.69683e-12
1.54257e-12
1.40234e-12
1.27485e-12
1.15896e-12
1.0536e-12
9.57815e-13
8.70741e-13
7.91583e-13
7.19621e-13
6.54201e-13
5.94728e-13
5.40662e-13
4.91511e-13
4.46828e-13
4.06207e-13
3.69279e-13
3.35708e-13
3.05189e-13
2.77445e-13
2.52223e-13
2.29293e-13
2.08448e-13
1.89499e-13
1.72271e-13
1.5661e-13
1.42373e-13
1.2943e-13
1.17664e-13
1.06967e-13
9.72427e-14
8.84025e-14
8.03659e-14
7.30599e-14
6.64181e-14
6.03801e-14
5.4891e-14
4.31944e-12
3.92676e-12
3.56979e-12
3.24526e-12
2.95024e-12
2.68203e-12
2.43821e-12
2.21656e-12
2.01505e-12
1.83186e-12
1.66533e-12
1.51394e-12
1.37631e-12
1.25119e-12
1.13744e-12
1.03404e-12
9.40036e-13
8.54578e-13
7.7689e-13
7.06263e-13
6.42057e-13
5.83689e-13
5.30626e-13
4.82387e-13
4.38534e-13
3.98667e-13
3.62425e-13
3.29477e-13
2.99525e-13
2.72295e-13
2.47541e-13
2.25037e-13
2.04579e-13
1.85981e-13
1.69074e-13
1.53703e-13
1.3973e-13
1.27028e-13
1.1548e-13
1.04982e-13
9.54377e-14
8.67616e-14
7.88742e-14
7.17038e-14
6.51853e-14
5.92593e-14
5.38721e-14
4.23926e-12
3.85388e-12
3.50352e-12
3.18502e-12
2.89547e-12
2.63225e-12
2.39295e-12
2.17541e-12
1.97765e-12
1.79786e-12
1.63442e-12
1.48584e-12
1.35076e-12
1.22796e-12
1.11633e-12
1.01485e-12
9.22588e-13
8.38716e-13
7.62469e-13
6.93154e-13
6.3014e-13
5.72854e-13
5.20777e-13
4.73433e-13
4.30394e-13
3.91267e-13
3.55697e-13
3.23361e-13
2.93965e-13
2.67241e-13
2.42946e-13
2.2086e-13
2.00782e-13
1.82529e-13
1.65935e-13
1.5085e-13
1.37137e-13
1.2467e-13
1.13336e-13
1.03033e-13
9.36663e-14
8.51511e-14
7.74101e-14
7.03728e-14
6.39753e-14
5.81594e-14
5.28722e-14
4.16058e-12
3.78234e-12
3.43849e-12
3.1259e-12
2.84173e-12
2.58339e-12
2.34854e-12
2.13503e-12
1.94094e-12
1.76449e-12
1.60408e-12
1.45826e-12
1.32569e-12
1.20517e-12
1.09561e-12
9.96009e-13
9.05463e-13
8.23148e-13
7.48316e-13
6.80288e-13
6.18443e-13
5.62221e-13
5.1111e-13
4.64646e-13
4.22405e-13
3.84005e-13
3.49095e-13
3.17359e-13
2.88508e-13
2.6228e-13
2.38437e-13
2.16761e-13
1.97055e-13
1.79141e-13
1.62855e-13
1.4805e-13
1.34591e-13
1.22356e-13
1.11232e-13
1.0112e-13
9.19276e-14
8.35706e-14
7.59733e-14
6.90666e-14
6.27878e-14
5.70798e-14
5.18908e-14
4.08335e-12
3.71214e-12
3.37467e-12
3.06788e-12
2.78898e-12
2.53544e-12
2.30494e-12
2.0954e-12
1.90491e-12
1.73174e-12
1.57431e-12
1.43119e-12
1.30108e-12
1.1828e-12
1.07527e-12
9.77521e-13
8.88656e-13
8.07869e-13
7.34426e-13
6.6766e-13
6.06964e-13
5.51785e-13
5.01623e-13
4.56021e-13
4.14564e-13
3.76877e-13
3.42615e-13
3.11468e-13
2.83153e-13
2.57412e-13
2.34011e-13
2.12737e-13
1.93397e-13
1.75816e-13
1.59833e-13
1.45302e-13
1.32093e-13
1.20085e-13
1.09168e-13
9.92434e-14
9.02213e-14
8.20194e-14
7.45631e-14
6.77846e-14
6.16224e-14
5.60203e-14
5.09276e-14
4.00755e-12
3.64323e-12
3.31203e-12
3.01094e-12
2.73721e-12
2.48838e-12
2.26216e-12
2.05651e-12
1.86955e-12
1.69959e-12
1.54509e-12
1.40462e-12
1.27693e-12
1.16085e-12
1.05531e-12
9.59377e-13
8.72161e-13
7.92873e-13
7.20794e-13
6.55267e-13
5.95697e-13
5.41543e-13
4.92312e-13
4.47556e-13
4.06869e-13
3.69881e-13
3.36256e-13
3.05687e-13
2.77897e-13
2.52634e-13
2.29667e-13
2.08788e-13
1.89808e-13
1.72552e-13
1.56866e-13
1.42605e-13
1.29641e-13
1.17856e-13
1.07141e-13
9.74013e-14
8.85466e-14
8.04969e-14
7.3179e-14
6.65264e-14
6.04785e-14
5.49805e-14
4.99823e-14
3.93317e-12
3.57561e-12
3.25055e-12
2.95505e-12
2.68641e-12
2.44219e-12
2.22017e-12
2.01834e-12
1.83485e-12
1.66805e-12
1.51641e-12
1.37855e-12
1.25323e-12
1.1393e-12
1.03573e-12
9.41569e-13
8.55972e-13
7.78156e-13
7.07415e-13
6.43104e-13
5.8464e-13
5.31491e-13
4.83174e-13
4.39249e-13
3.99317e-13
3.63016e-13
3.30014e-13
3.00013e-13
2.72739e-13
2.47945e-13
2.25404e-13
2.04913e-13
1.86284e-13
1.69349e-13
1.53954e-13
1.39958e-13
1.27235e-13
1.15668e-13
1.05153e-13
9.55934e-14
8.69031e-14
7.90028e-14
7.18207e-14
6.52916e-14
5.9356e-14
5.396e-14
4.90545e-14
3.86016e-12
3.50924e-12
3.19022e-12
2.9002e-12
2.63654e-12
2.39686e-12
2.17896e-12
1.98087e-12
1.80079e-12
1.63709e-12
1.48826e-12
1.35296e-12
1.22997e-12
1.11815e-12
1.0165e-12
9.24092e-13
8.40084e-13
7.63712e-13
6.94284e-13
6.31167e-13
5.73788e-13
5.21626e-13
4.74205e-13
4.31096e-13
3.91905e-13
3.56277e-13
3.23889e-13
2.94444e-13
2.67677e-13
2.43342e-13
2.2122e-13
2.01109e-13
1.82827e-13
1.66206e-13
1.51096e-13
1.3736e-13
1.24873e-13
1.13521e-13
1.03201e-13
9.3819e-14
8.529e-14
7.75363e-14
7.04876e-14
6.40796e-14
5.82542e-14
5.29584e-14
4.8144e-14
3.78851e-12
3.4441e-12
3.131e-12
2.84636e-12
2.5876e-12
2.35237e-12
2.13852e-12
1.9441e-12
1.76737e-12
1.6067e-12
1.46063e-12
1.32785e-12
1.20714e-12
1.0974e-12
9.97633e-13
9.06939e-13
8.2449e-13
7.49536e-13
6.81397e-13
6.19452e-13
5.63138e-13
5.11943e-13
4.65403e-13
4.23094e-13
3.84631e-13
3.49664e-13
3.17877e-13
2.88979e-13
2.62708e-13
2.38825e-13
2.17114e-13
1.97376e-13
1.79433e-13
1.63121e-13
1.48292e-13
1.34811e-13
1.22555e-13
1.11414e-13
1.01285e-13
9.20775e-14
8.37069e-14
7.60971e-14
6.91792e-14
6.28902e-14
5.71729e-14
5.19754e-14
4.72503e-14
3.71819e-12
3.38017e-12
3.07288e-12
2.79353e-12
2.53957e-12
2.3087e-12
2.09882e-12
1.90802e-12
1.73456e-12
1.57687e-12
1.43352e-12
1.3032e-12
1.18473e-12
1.07703e-12
9.79115e-13
8.90105e-13
8.09186e-13
7.35624e-13
6.68749e-13
6.07954e-13
5.52685e-13
5.02441e-13
4.56764e-13
4.1524e-13
3.77491e-13
3.43174e-13
3.11976e-13
2.83615e-13
2.57832e-13
2.34392e-13
2.13084e-13
1.93713e-13
1.76102e-13
1.60093e-13
1.45539e-13
1.32308e-13
1.2028e-13
1.09346e-13
9.94053e-14
9.03684e-14
8.21531e-14
7.46846e-14
6.78951e-14
6.17228e-14
5.61117e-14
5.10106e-14
4.63733e-14
3.64917e-12
3.31743e-12
3.01584e-12
2.74168e-12
2.49243e-12
2.26585e-12
2.05986e-12
1.8726e-12
1.70237e-12
1.54761e-12
1.40691e-12
1.27901e-12
1.16274e-12
1.05704e-12
9.60941e-13
8.73583e-13
7.94166e-13
7.21969e-13
6.56336e-13
5.96669e-13
5.42426e-13
4.93115e-13
4.48286e-13
4.07533e-13
3.70484e-13
3.36804e-13
3.06185e-13
2.7835e-13
2.53046e-13
2.30042e-13
2.09129e-13
1.90117e-13
1.72834e-13
1.57122e-13
1.42838e-13
1.29853e-13
1.18048e-13
1.07316e-13
9.75601e-14
8.8691e-14
8.06282e-14
7.32984e-14
6.66349e-14
6.05772e-14
5.50701e-14
5.00638e-14
4.55125e-14
3.58144e-12
3.25585e-12
2.95987e-12
2.69079e-12
2.44617e-12
2.22379e-12
2.02163e-12
1.83784e-12
1.67077e-12
1.51888e-12
1.3808e-12
1.25527e-12
1.14116e-12
1.03741e-12
9.43104e-13
8.57368e-13
7.79425e-13
7.08568e-13
6.44153e-13
5.85594e-13
5.32358e-13
4.83962e-13
4.39965e-13
3.99968e-13
3.63608e-13
3.30552e-13
3.00502e-13
2.73184e-13
2.48349e-13
2.25772e-13
2.05247e-13
1.86588e-13
1.69626e-13
1.54205e-13
1.40186e-13
1.27442e-13
1.15857e-13
1.05324e-13
9.57492e-14
8.70448e-14
7.91316e-14
7.19378e-14
6.5398e-14
5.94527e-14
5.40479e-14
4.91345e-14
4.46677e-14
3.51496e-12
3.19542e-12
2.90493e-12
2.64084e-12
2.40076e-12
2.18251e-12
1.9841e-12
1.80373e-12
1.63975e-12
1.49069e-12
1.35517e-12
1.23197e-12
1.11997e-12
1.01816e-12
9.25599e-13
8.41453e-13
7.64958e-13
6.95416e-13
6.32196e-13
5.74724e-13
5.22476e-13
4.74978e-13
4.31799e-13
3.92544e-13
3.56858e-13
3.24417e-13
2.94924e-13
2.68113e-13
2.43739e-13
2.21581e-13
2.01437e-13
1.83125e-13
1.66477e-13
1.51343e-13
1.37584e-13
1.25077e-13
1.13706e-13
1.03369e-13
9.3972e-14
8.54291e-14
7.76628e-14
7.06025e-14
6.41841e-14
5.83492e-14
5.30447e-14
4.82225e-14
4.38386e-14
3.44972e-12
3.13611e-12
2.851e-12
2.59182e-12
2.3562e-12
2.142e-12
1.94727e-12
1.77025e-12
1.60932e-12
1.46302e-12
1.33001e-12
1.2091e-12
1.09919e-12
9.9926e-13
9.08418e-13
8.25834e-13
7.50759e-13
6.82508e-13
6.20462e-13
5.64056e-13
5.12778e-13
4.66162e-13
4.23784e-13
3.85258e-13
3.50234e-13
3.18395e-13
2.8945e-13
2.63136e-13
2.39215e-13
2.17468e-13
1.97698e-13
1.79726e-13
1.63387e-13
1.48534e-13
1.35031e-13
1.22755e-13
1.11595e-13
1.0145e-13
9.22277e-14
8.38433e-14
7.62212e-14
6.9292e-14
6.29927e-14
5.72661e-14
5.20601e-14
4.73274e-14
4.30249e-14
3.38568e-12
3.07789e-12
2.79809e-12
2.54371e-12
2.31247e-12
2.10224e-12
1.91113e-12
1.73739e-12
1.57945e-12
1.43586e-12
1.30533e-12
1.18666e-12
1.07878e-12
9.80712e-13
8.91556e-13
8.10506e-13
7.36823e-13
6.69839e-13
6.08945e-13
5.53586e-13
5.0326e-13
4.57509e-13
4.15918e-13
3.78107e-13
3.43733e-13
3.12485e-13
2.84077e-13
2.58252e-13
2.34775e-13
2.13431e-13
1.94029e-13
1.7639e-13
1.60354e-13
1.45777e-13
1.32524e-13
1.20476e-13
1.09524e-13
9.95673e-14
9.05158e-14
8.22871e-14
7.48064e-14
6.80058e-14
6.18235e-14
5.62032e-14
5.10938e-14
4.64489e-14
4.22263e-14
3.32284e-12
3.02076e-12
2.74615e-12
2.4965e-12
2.26954e-12
2.06322e-12
1.87566e-12
1.70514e-12
1.55013e-12
1.40921e-12
1.2811e-12
1.16463e-12
1.05876e-12
9.62508e-13
8.75007e-13
7.95461e-13
7.23146e-13
6.57406e-13
5.97642e-13
5.43311e-13
4.93919e-13
4.49017e-13
4.08197e-13
3.71088e-13
3.37353e-13
3.06685e-13
2.78804e-13
2.53458e-13
2.30417e-13
2.0947e-13
1.90427e-13
1.73116e-13
1.57378e-13
1.43071e-13
1.30064e-13
1.1824e-13
1.07491e-13
9.77192e-14
8.88356e-14
8.07597e-14
7.34179e-14
6.67435e-14
6.06759e-14
5.51599e-14
5.01454e-14
4.55867e-14
4.14425e-14
3.26116e-12
2.96469e-12
2.69517e-12
2.45016e-12
2.22742e-12
2.02492e-12
1.84084e-12
1.67349e-12
1.52136e-12
1.38305e-12
1.25732e-12
1.14302e-12
1.03911e-12
9.44642e-13
8.58766e-13
7.80696e-13
7.09724e-13
6.45203e-13
5.86548e-13
5.33226e-13