1.00000000000794e-06 	1.00664926447746 	0 	-0.05339364687271 	0.000969119816421329 	114.845712451538 	1.90205629831063e-05
1.00000000001661e-06 	1.02043412922891 	6.93889390390723e-18 	-0.0532575406671101 	0.00430901921588993 	46.9550214153703 	0.00013334783983934
1.00000000001661e-06 	1.03465466889916 	6.93889390390723e-18 	-0.0529774910346592 	0.00546011282550649 	19.3671046650642 	0.000320087870274116
1.00000000001141e-06 	1.04932465318813 	6.93889390390723e-18 	-0.0525931164077836 	0.00564758286169039 	11.0739494744633 	0.00053859185776306
1.00000000000447e-06 	1.06445828699701 	6.93889390390723e-18 	-0.0521408202365801 	0.00565092031412123 	7.52315293243858 	0.000773430784437304
9.99999999997531e-07 	1.08007022418341 	0 	-0.0516351625315052 	0.00561159472553408 	5.60996449767817 	0.00101845362798294
9.99999999994061e-07 	1.09617558175122 	0 	-0.0510840692978232 	0.00555657044239398 	4.42852002541335 	0.00127007113621382
9.99999999992326e-07 	1.11278995448899 	0 	-0.0504929983298043 	0.00549465785679363 	3.63182257446526 	0.00152624375908446
9.99999999988857e-07 	1.1299294300709 	0 	-0.0498660022358473 	0.00542969452997911 	3.06122829678474 	0.00178546672470094
9.99999999988857e-07 	1.14761060463525 	0 	-0.0492061840013527 	0.00536353076894544 	2.63467699437916 	0.00204624291617496
9.99999999990592e-07 	1.1658505988551 	-6.93889390390723e-18 	-0.048516011692678 	0.00529700070833152 	2.30555167966871 	0.00230690154169505
9.99999999987122e-07 	1.18466707451705 	-1.38777878078145e-17 	-0.0477975266475366 	0.00523032152180058 	2.04538836530827 	0.00256555175954652
9.99999999985388e-07 	1.20407825162398 	-6.93889390390723e-18 	-0.0470524754968101 	0.00516329608974509 	1.83578696693677 	0.00282009954174272
9.99999999980183e-07 	1.22410292603833 	3.46944695195361e-18 	-0.0462823952692864 	0.00509542900851289 	1.66429445107314 	0.00306829097405672
9.99999999981918e-07 	1.24476048768315 	3.46944695195361e-18 	-0.0454886695722364 	0.00502599585332739 	1.52215904982409 	0.00330776549139098
9.99999999985388e-07 	1.26607093931834 	0 	-0.044672565861847 	0.00495408260421086 	1.40303211720538 	0.00353610999012133
9.99999999988857e-07 	1.28805491591046 	0 	-0.0438352597225214 	0.00487860337467349 	1.30217959235868 	0.00375090858514214
9.99999999995796e-07 	1.31073370461475 	6.93889390390723e-18 	-0.0429778498104604 	0.00479830087033424 	1.21598150399722 	0.00394978514553265
9.99999999997531e-07 	1.33412926538877 	1.04083408558608e-17 	-0.0421013657515874 	0.00471173260230541 	1.14160148306479 	0.00413043633495461
9.99999999994061e-07 	1.35826425225759 	6.93889390390723e-18 	-0.0412067712725573 	0.00461724612321784 	1.07676104220678 	0.00429065087865679
9.99999999991459e-07 	1.38316203525113 	1.04083408558608e-17 	-0.0402949656930998 	0.0045129486867235 	1.01958218408051 	0.00442830532880445
9.99999999992326e-07 	1.40884672303499 	1.38777878078145e-17 	-0.0393667803096803 	0.00439668144769701 	0.968479017924502 	0.00454131728263123
9.99999999993194e-07 	1.43534318625653 	1.04083408558608e-17 	-0.0384229563330641 	0.00426601555289613 	0.92209013582613 	0.0046275250821325
9.99999999996663e-07 	1.46267708162891 	1.04083408558608e-17 	-0.0374641324332192 	0.00411829259482706 	0.879249365274812 	0.00468445675463934
9.99999999994929e-07 	1.49087487677649 	1.38777878078145e-17 	-0.0364909307159998 	0.00395071989250648 	0.838988209162677 	0.00470897634867956
9.99999999989724e-07 	1.51996387586545 	2.08166817117217e-17 	-0.0355040758267687 	0.00376049472606862 	0.800546394140872 	0.00469687873635915
9.99999999988857e-07 	1.5499722460447 	2.08166817117217e-17 	-0.0345038651084073 	0.00354496346363832 	0.763363158597427 	0.00464261724217954
9.9999999998799e-07 	1.58092904472248 	2.08166817117217e-17 	-0.0334895059234512 	0.00330205056186131 	0.727118636653784 	0.00453912517758535
9.99999999986255e-07 	1.61286424770525 	3.46944695195361e-17 	-0.0324595699831863 	0.00303203641183025 	0.692055292434035 	0.00437803323472362
9.99999999981918e-07 	1.64580877822595 	3.46944695195361e-17 	-0.031415358584084 	0.00274115654208205 	0.65917809990952 	0.00415436879514416
9.99999999976714e-07 	1.67979453688995 	3.12250225675825e-17 	-0.0303615361292964 	0.0024405308461131 	0.628798319866134 	0.00387650073702969
9.99999999972377e-07 	1.71485443256753 	3.81639164714898e-17 	-0.0293006686428767 	0.00213950607960848 	0.599949791005816 	0.00356074029163042
9.99999999968908e-07 	1.75102241426293 	4.85722573273506e-17 	-0.0282319502844239 	0.00184283162826637 	0.571240554372624 	0.00321980458764955
9.99999999970642e-07 	1.78833350399068 	4.85722573273506e-17 	-0.0271552610384046 	0.0015528711902204 	0.541505654359017 	0.00286040809555694
9.99999999974979e-07 	1.8268238306914 	4.5102810375397e-17 	-0.0260720005735657 	0.00127245011687023 	0.510085252480113 	0.00248597460060344
9.99999999979316e-07 	1.86653066521945 	4.5102810375397e-17 	-0.0249834896035958 	0.00100566633173962 	0.476709102261532 	0.00209942879355147
9.99999999978449e-07 	1.90749245643677 	4.16333634234434e-17 	-0.0238909778787013 	0.000757753370740801 	0.441188004549884 	0.00170555909618224
9.99999999973245e-07 	1.9497488684476 	4.5102810375397e-17 	-0.0227959813607702 	0.000535335729139406 	0.403257391434147 	0.00131367896910977
9.99999999972377e-07 	1.99334081901029 	4.85722573273506e-17 	-0.0217002359220318 	0.000346978426487382 	0.363039263349265 	0.000940747884512855
9.9999999997151e-07 	2.03831051916332 	5.20417042793042e-17 	-0.020605658664992 	0.00020224380936459 	0.32260025649362 	0.000613343895106183
9.9999999996804e-07 	2.08470151410403 	6.24500451351651e-17 	-0.0195142727082861 	0.000106569602920962 	0.287082365063317 	0.000362497926819149
9.99999999965438e-07 	2.13255872535957 	6.59194920871187e-17 	-0.0184280906784219 	5.42269538855284e-05 	0.261339233489776 	0.000203821491354591
9.99999999968908e-07 	2.18192849429103 	5.55111512312578e-17 	-0.0173488165357131 	2.98104546229218e-05 	0.24468008103797 	0.000120603908794666
9.99999999976714e-07 	2.23285862697279 	5.55111512312578e-17 	-0.0162776112491547 	1.88795279545059e-05 	0.232955189000574 	8.05536686213659e-05
9.99999999978882e-07 	2.28539844049062 	5.55111512312578e-17 	-0.0152151500915154 	1.31256987332825e-05 	0.223299716777645 	5.84869159159171e-05
9.99999999980183e-07 	2.33959881070353 	5.20417042793042e-17 	-0.0141617908034645 	9.24845909395721e-06 	0.214465177815563 	4.2903993047346e-05
9.99999999983219e-07 	2.39551222151537 	5.55111512312578e-17 	-0.0131177902755485 	6.64289941204014e-06 	0.206030875168038 	3.2105983105301e-05
9.99999999984954e-07 	2.4531928157042 	5.89805981832114e-17 	-0.0120832712586664 	5.11070485185154e-06 	0.19800195879663 	2.57282294010166e-05
9.99999999984954e-07 	2.51269644735854 	6.59194920871187e-17 	-0.0110583325775057 	3.9993134455774e-06 	0.190371251377785 	2.09293167637764e-05
9.9999999998452e-07 	2.57408073597135 	6.24500451351651e-17 	-0.0100430190470925 	3.02908701579143e-06 	0.18301686969486 	1.64799414360407e-05
9.99999999983219e-07 	2.63740512224416 	5.55111512312578e-17 	-0.00903741978690963 	2.31690021883756e-06 	0.17589328699236 	1.31275439593983e-05
9.99999999980617e-07 	2.70273092565545 	5.89805981832114e-17 	-0.00804151901604708 	1.89217056860607e-06 	0.169033094883459 	1.11676347691213e-05
9.9999999997975e-07 	2.77012140384904 	5.20417042793042e-17 	-0.00705532990464098 	1.59489005954611e-06 	0.162423601431446 	9.79644224339696e-06
9.99999999978449e-07 	2.83964181390017 	3.81639164714898e-17 	-0.00607888168751754 	1.34496676247777e-06 	0.156026041937463 	8.59862715051944e-06
9.99999999977581e-07 	2.9113594755184 	3.46944695195361e-17 	-0.00511221396171703 	1.10445115526385e-06 	0.149838607436237 	7.34493304806742e-06
9.99999999978774e-07 	2.9853438362489 	3.12250225675825e-17 	-0.00415534083174357 	8.70736130799071e-07 	0.14385735430421 	6.02849661072669e-06
9.99999999979587e-07 	3.06166653873507 	1.38777878078145e-17 	-0.00320828680751457 	7.17796708769742e-07 	0.138063143178013 	5.19031721990874e-06
9.99999999979452e-07 	3.14040149010788 	1.04083408558608e-17 	-0.00227110296506135 	6.44409172249622e-07 	0.132439365553146 	4.86061604758752e-06
9.99999999979641e-07 	3.19267753632421 	2.08166817117217e-17 	-0.00166751423127982 	6.00719079147711e-07 	0.12886607634511 	4.65276401263581e-06
9.99999999979614e-07 	3.23391487208743 	1.38777878078145e-17 	-0.00120636934352985 	5.5379915638805e-07 	0.126175142745356 	4.37807666877054e-06
9.99999999979804e-07 	3.30539479813884 	3.46944695195361e-18 	-0.000426577309429141 	4.7719004036125e-07 	0.121688537672233 	3.90987942768579e-06
9.9999999997975e-07 	3.39181764061881 	-3.46944695195361e-18 	0.000480551142326133 	3.91492868747635e-07 	0.11659616791389 	3.34582366430049e-06
9.99999999979641e-07 	3.48097388668855 	-1.38777878078145e-17 	0.00137750756611218 	3.17710498425117e-07 	0.111690881384358 	2.83566854811038e-06
9.99999999979533e-07 	3.5729500553577 	-2.42861286636753e-17 	0.00226409267700495 	2.7909377579697e-07 	0.106928302294362 	2.60995612212996e-06
9.9999999997975e-07 	3.66783540851071 	-2.77555756156289e-17 	0.00314002459607608 	2.79629552848709e-07 	0.102304976023498 	2.7379976243724e-06
9.9999999997975e-07 	3.76572203814913 	-3.12250225675825e-17 	0.00400518049736011 	2.74737911640555e-07 	0.0978619711923808 	2.80492782991309e-06
9.99999999981051e-07 	3.86670495642806 	-3.46944695195361e-17 	0.00485932805856645 	2.34700397157795e-07 	0.0936206745018663 	2.49853889358354e-06
9.99999999981484e-07 	3.97088218857734 	-4.16333634234434e-17 	0.00570236956751214 	1.94895765078522e-07 	0.0896044395496773 	2.17173325535289e-06
9.99999999978882e-07 	4.07835486880143 	-5.55111512312578e-17 	0.00653386810344095 	1.71511517152583e-07 	0.0858181519531918 	1.99376192857291e-06
9.99999999975847e-07 	4.189227339255 	-6.59194920871187e-17 	0.00735371991465853 	1.33629473460165e-07 	0.0822480311627149 	1.61884007036377e-06
9.99999999976714e-07 	4.30360725219432 	-6.93889390390723e-17 	0.00816100630598997 	1.22568760873473e-07 	0.0789148251397464 	1.55638085511573e-06
9.9999999997975e-07 	4.42160567540825 	-6.93889390390723e-17 	0.00895604757975006 	1.35117736467769e-07 	0.0758818773215466 	1.78197769540661e-06
9.99999999978449e-07 	4.54333720103576 	-7.63278329429795e-17 	0.00973764912113818 	1.11566116704233e-07 	0.0732263132135919 	1.51697558545088e-06
9.99999999983653e-07 	4.66892005788089 	-7.97972798949331e-17 	0.0105065774576098 	6.17028579677862e-08 	0.0709766683667218 	8.62943063463187e-07
9.99999999987122e-07 	4.79847622733962 	-6.59194920871187e-17 	0.0112608905542089 	2.99157061522461e-08 	0.0691488092535919 	4.3082230886562e-07
