1.00000000000794e-06 	1.00664926447746 	0 	0.234013787312136 	-0.00198131892282395 	2.16439094473594e-20
1.00000000001661e-06 	1.02043412922891 	6.93889390390723e-18 	0.494332708270318 	-0.00557422150620529 	-3.92679679714751e-20
1.00000000001661e-06 	1.03465466889916 	6.93889390390723e-18 	0.607386451150826 	-0.00808860660336312 	-5.30879726610868e-20
1.00000000001141e-06 	1.04932465318813 	6.93889390390723e-18 	0.667527734995338 	-0.0100444609541746 	-1.50437412771244e-20
1.00000000000447e-06 	1.06445828699701 	6.93889390390723e-18 	0.707040601433685 	-0.01167836094634 	8.27162286855936e-21
9.99999999997531e-07 	1.08007022418341 	0 	0.736259728547933 	-0.0131366843588501 	2.59968001893178e-20
9.99999999994061e-07 	1.09617558175122 	0 	0.759390526249454 	-0.0144756451058937 	1.86323160228103e-20
9.99999999992326e-07 	1.11278995448899 	0 	0.778527243789455 	-0.0157221452502163 	1.26254477914129e-20
9.99999999988857e-07 	1.1299294300709 	0 	0.794855793200594 	-0.0168921622932466 	-9.79302680466277e-21
9.99999999988857e-07 	1.14761060463525 	0 	0.809113396251127 	-0.0179963865871499 	-1.41598329191848e-20
9.99999999990592e-07 	1.1658505988551 	-6.93889390390723e-18 	0.821792170755232 	-0.019042448553191 	1.6310141459e-20
9.99999999987122e-07 	1.18466707451705 	-1.38777878078145e-17 	0.833239137040996 	-0.0200360441772965 	2.01479088118789e-20
9.99999999985388e-07 	1.20407825162398 	-6.93889390390723e-18 	0.84370987804128 	-0.0209815962955302 	-3.80707059945484e-21
9.99999999980183e-07 	1.22410292603833 	3.46944695195361e-18 	0.853399416939516 	-0.0218826620491238 	-1.46466279021048e-20
9.99999999981918e-07 	1.24476048768315 	3.46944695195361e-18 	0.862461047468088 	-0.0227421923387629 	-6.54083555502157e-21
9.99999999985388e-07 	1.26607093931834 	0 	0.871018397694506 	-0.0235627027543064 	-6.11695420057863e-21
9.99999999988857e-07 	1.28805491591046 	0 	0.879173494291781 	-0.0243463890663972 	-3.91655370336758e-21
9.99999999995796e-07 	1.31073370461475 	6.93889390390723e-18 	0.887012348366214 	-0.0250952043896599 	4.68764210853236e-21
9.99999999997531e-07 	1.33412926538877 	1.04083408558608e-17 	0.894608923411072 	-0.0258109046947336 	-2.28065652607302e-21
9.99999999994061e-07 	1.35826425225759 	6.93889390390723e-18 	0.902027970320794 	-0.0264950634115136 	4.39081646912088e-21
9.99999999991459e-07 	1.38316203525113 	1.04083408558608e-17 	0.90932698200655 	-0.0271490537952604 	7.88161571864577e-21
9.99999999992326e-07 	1.40884672303499 	1.38777878078145e-17 	0.916557363174773 	-0.0277739869644943 	-7.7210466609331e-21
9.99999999993194e-07 	1.43534318625653 	1.04083408558608e-17 	0.923764820429367 	-0.0283705857335519 	-5.79991811162908e-21
9.99999999996663e-07 	1.46267708162891 	1.04083408558608e-17 	0.930989046929424 	-0.0289390532012431 	4.54147504978682e-21
9.99999999994929e-07 	1.49087487677649 	1.38777878078145e-17 	0.938263163186802 	-0.0294790736466412 	2.69167776299295e-21
9.99999999989724e-07 	1.51996387586545 	2.08166817117217e-17 	0.945613741096907 	-0.0299900647627215 	-2.04379564112341e-21
9.99999999988857e-07 	1.5499722460447 	2.08166817117217e-17 	0.953060291302022 	-0.0304703848522236 	-5.62697632498362e-22
9.9999999998799e-07 	1.58092904472248 	2.08166817117217e-17 	0.960610725381391 	-0.0309166321752478 	3.1086336553114e-22
9.99999999986255e-07 	1.61286424770525 	3.46944695195361e-17 	0.968245160024011 	-0.031322591387748 	-5.87437944839871e-22
9.99999999981918e-07 	1.64580877822595 	3.46944695195361e-17 	0.975879030743203 	-0.0316820669262824 	-2.41430504867361e-21
9.99999999976714e-07 	1.67979453688995 	3.12250225675825e-17 	0.98335390119789 	-0.0319915128754256 	3.03963863603246e-21
9.99999999972377e-07 	1.71485443256753 	3.81639164714898e-17 	0.990505655718352 	-0.0322552557467113 	6.72264501273854e-21
9.99999999968908e-07 	1.75102241426293 	4.85722573273506e-17 	0.997227603171187 	-0.0324839865341136 	-1.92192682842689e-21
9.99999999970642e-07 	1.78833350399068 	4.85722573273506e-17 	1.00346202189897 	-0.0326858925652949 	-2.08135121025406e-21
9.99999999974979e-07 	1.8268238306914 	4.5102810375397e-17 	1.00917086345743 	-0.0328626907060694 	6.50125853467263e-21
9.99999999979316e-07 	1.86653066521945 	4.5102810375397e-17 	1.01431722388589 	-0.0330140006787739 	2.28038222387768e-21
9.99999999978449e-07 	1.90749245643677 	4.16333634234434e-17 	1.01884632636425 	-0.0331388674184873 	-9.47478224291437e-21
9.99999999973245e-07 	1.9497488684476 	4.5102810375397e-17 	1.0226623254796 	-0.0332350675887849 	-4.40589013670759e-21
9.99999999972377e-07 	1.99334081901029 	4.85722573273506e-17 	1.02560833712434 	-0.03329925862834 	7.58985601201651e-21
9.9999999997151e-07 	2.03831051916332 	5.20417042793042e-17 	1.02748722495668 	-0.0333272279123772 	2.1664044384537e-21
9.9999999996804e-07 	2.08470151410403 	6.24500451351651e-17 	1.02819073927454 	-0.0333157697070998 	-5.62590015198122e-22
9.99999999965438e-07 	2.13255872535957 	6.59194920871187e-17 	1.02788668885245 	-0.0332663440510474 	2.84021416578654e-21
9.99999999968908e-07 	2.18192849429103 	5.55111512312578e-17 	1.0269868602821 	-0.0331854022549912 	-9.6202814914589e-22
9.99999999976714e-07 	2.23285862697279 	5.55111512312578e-17 	1.02585524758611 	-0.0330801255812405 	-1.22478349687118e-21
9.99999999978882e-07 	2.28539844049062 	5.55111512312578e-17 	1.02465921627109 	-0.0329549472715854 	-3.12911763350169e-21
9.99999999980183e-07 	2.33959881070353 	5.20417042793042e-17 	1.02344726375767 	-0.0328117728319818 	-2.87814636732121e-21
9.99999999983219e-07 	2.39551222151537 	5.55111512312578e-17 	1.02224584265624 	-0.0326524718622452 	1.309671728549e-21
9.99999999984954e-07 	2.4531928157042 	5.89805981832114e-17 	1.02106905338241 	-0.0324774721953243 	2.04159660413679e-21
9.99999999984954e-07 	2.51269644735854 	6.59194920871187e-17 	1.0199051200703 	-0.0322869604156885 	2.01396956971808e-22
9.9999999998452e-07 	2.57408073597135 	6.24500451351651e-17 	1.01875573719379 	-0.0320813365980669 	1.0888752034905e-22
9.99999999983219e-07 	2.63740512224416 	5.55111512312578e-17 	1.01763763711133 	-0.0318619058517064 	-2.52665048946368e-22
9.99999999980617e-07 	2.70273092565545 	5.89805981832114e-17 	1.01654820900738 	-0.031628072504016 	9.33200227930384e-22
9.9999999997975e-07 	2.77012140384904 	5.20417042793042e-17 	1.01546749993253 	-0.0313796997258889 	6.83528733276813e-22
9.99999999978449e-07 	2.83964181390017 	3.81639164714898e-17 	1.01441039408245 	-0.0311176922565709 	-1.37642557533955e-21
9.99999999977581e-07 	2.9113594755184 	3.46944695195361e-17 	1.01338856452926 	-0.0308424631309583 	-9.00483755063307e-22
9.99999999978774e-07 	2.9853438362489 	3.12250225675825e-17 	1.01238297304951 	-0.0305532330662861 	2.02683597621867e-22
9.99999999979587e-07 	3.06166653873507 	1.38777878078145e-17 	1.01137428191077 	-0.0302495767153111 	1.89324185051829e-22
9.99999999979452e-07 	3.14040149010788 	1.04083408558608e-17 	1.01036981168763 	-0.0299317580653605 	3.20246070103789e-22
9.99999999979641e-07 	3.19267753632421 	2.08166817117217e-17 	1.00973315218639 	-0.0297193412708282 	4.59438736493757e-22
9.99999999979614e-07 	3.23391487208743 	1.38777878078145e-17 	1.00926692017378 	-0.0295510365257896 	7.44674057353558e-23
9.99999999979804e-07 	3.30539479813884 	3.46944695195361e-18 	1.00850491458336 	-0.0292585670980307 	-1.37936452848148e-22
9.9999999997975e-07 	3.39181764061881 	-3.46944695195361e-18 	1.00763908689327 	-0.0289028801882491 	5.98701755740232e-23
9.99999999979641e-07 	3.48097388668855 	-1.38777878078145e-17 	1.00674029515167 	-0.0285309561585754 	2.54696265163967e-22
9.99999999979533e-07 	3.5729500553577 	-2.42861286636753e-17 	1.00579976958427 	-0.0281439009928198 	9.74903573429535e-23
9.9999999997975e-07 	3.66783540851071 	-2.77555756156289e-17 	1.00491266132076 	-0.027744303066423 	-2.64771530369299e-23
9.9999999997975e-07 	3.76572203814913 	-3.12250225675825e-17 	1.00411150649327 	-0.0273323735765376 	3.01303845414389e-22
9.99999999981051e-07 	3.86670495642806 	-3.46944695195361e-17 	1.00338412881057 	-0.0269082530021169 	-5.32742265083848e-23
9.99999999981484e-07 	3.97088218857734 	-4.16333634234434e-17 	1.00268942553065 	-0.0264699921116402 	1.61753019073307e-23
9.99999999978882e-07 	4.07835486880143 	-5.55111512312578e-17 	1.0019279911597 	-0.0260144062562315 	8.95938211586536e-22
9.99999999975847e-07 	4.189227339255 	-6.59194920871187e-17 	1.0011278359397 	-0.0255426505595366 	1.94315001301238e-22
9.99999999976714e-07 	4.30360725219432 	-6.93889390390723e-17 	1.00037169061343 	-0.025057972204349 	-4.3117432709801e-22
9.9999999997975e-07 	4.42160567540825 	-6.93889390390723e-17 	0.999741581652145 	-0.0245601940696725 	5.11215315318718e-22
9.99999999978449e-07 	4.54333720103576 	-7.63278329429795e-17 	0.999183476740367 	-0.0240520576313769 	-1.82726361134969e-21
9.99999999983653e-07 	4.66892005788089 	-7.97972798949331e-17 	0.998538826643819 	-0.0235185628338988 	-1.33668823238139e-22
9.99999999987122e-07 	4.79847622733962 	-6.59194920871187e-17 	0.99784938328565 	-0.022977922372899 	2.20716603754125e-21
