1 	0.609998707734988 	-6.93889390390723e-18 	-0.00490476500033436 	0.00316202556712758 	-3.52893970655275e-19
1 	0.615677669341748 	-6.93889390390723e-18 	-0.0144213603074937 	0.00936635927928128 	-3.91936040209798e-18
1 	0.621563396586334 	-1.38777878078145e-17 	-0.0237784645433681 	0.0153722489889382 	3.15866591775549e-18
1 	0.627663371400796 	-6.93889390390723e-18 	-0.032925123623317 	0.0211671604970517 	5.34917698639766e-19
1 	0.633985343163336 	0 	-0.0417747319900909 	0.0267201424423196 	5.3415699574818e-19
1 	0.640537338029282 	3.46944695195361e-18 	-0.0501864754218378 	0.031955631372115 	1.64002549261998e-19
1 	0.647327668572245 	6.93889390390723e-18 	-0.0579208021237357 	0.0367350051194104 	3.31477868326899e-18
1 	0.65436494374482 	1.04083408558608e-17 	-0.0646451141236949 	0.0408641783512623 	-3.64395605439752e-18
1 	0.661658079168369 	1.04083408558608e-17 	-0.0700467459483885 	0.0441646733688029 	-2.80446226355474e-19
1 	0.66921630776171 	3.46944695195361e-18 	-0.073999543400782 	0.0465754310900689 	8.15346704107972e-20
1 	0.677049190718746 	0 	-0.0766122924967199 	0.0481792546380544 	9.66849888799753e-20
1 	0.685166628845283 	3.46944695195361e-18 	-0.0781233413635734 	0.0491351927600318 	-9.91190430083121e-20
1 	0.693578874265574 	1.04083408558608e-17 	-0.0787766855300958 	0.0496022331457898 	-1.40744486195145e-18
1 	0.702296542509335 	1.04083408558608e-17 	-0.0787622477532876 	0.0497043461688074 	1.20601801268703e-18
1 	0.711330624990233 	0 	-0.0782070951657383 	0.0495272398105807 	-1.62063393364112e-20
1 	0.720692501887127 	-1.04083408558608e-17 	-0.0771850299237363 	0.0491262030837175 	-9.08057111450311e-19
1 	0.730393955439554 	-1.38777878078145e-17 	-0.0757271290687762 	0.0485344342512353 	8.36426087455049e-19
1 	0.740447183669264 	-2.08166817117217e-17 	-0.0738277285774465 	0.0477688866638583 	2.13092181725315e-20
1 	0.75086481453986 	-2.77555756156289e-17 	-0.071444706303333 	0.0468334562346099 	-3.24215303965434e-20
1 	0.761659920566846 	-2.77555756156289e-17 	-0.0684935305222126 	0.0457197019740602 	-7.10071021402125e-19
1 	0.772846033890729 	-2.77555756156289e-17 	-0.0648344732697727 	0.0444050649201111 	6.89998742430607e-19
1 	0.784437161826055 	-3.12250225675825e-17 	-0.0602566486484707 	0.0428511083992534 	-6.73702438957731e-19
1 	0.796447802899618 	-3.81639164714898e-17 	-0.0544784662656475 	0.0410096834926643 	-3.33540655770414e-18
1 	0.808892963391327 	-4.16333634234434e-17 	-0.0471696049837142 	0.0388342535710074 	-3.44808450621335e-18
1 	0.821788174391592 	-4.16333634234434e-17 	-0.037954444776333 	0.0362883414067418 	3.48751382318073e-18
1 	0.835149509389415 	-3.12250225675825e-17 	-0.0263982845742485 	0.0333567213632757 	2.87686047192586e-18
1 	0.848993602405718 	-2.77555756156289e-17 	-0.0120047008870346 	0.0300650506682756 	-1.59701555627138e-21
1 	0.863337666686782 	-3.12250225675825e-17 	0.00589529451474323 	0.0265373513177659 	-4.75766795436603e-23
1 	0.878199513973139 	-2.42861286636753e-17 	0.0283500930665161 	0.022815921458838 	1.35794138745578e-21
1 	0.893597574359564 	-2.42861286636753e-17 	0.0571977685952025 	0.0187609533884787 	9.14589991370384e-21
1 	0.909550916762347 	-3.12250225675825e-17 	0.0952393245652397 	0.0141600574836558 	8.85909537937401e-19
1 	0.926079270010412 	-3.33392168039293e-17 	0.144752140750953 	0.00887273910505663 	-8.84079823417634e-19
1 	0.943203044577384 	-3.19297539796981e-17 	0.205949870444845 	0.00314448194627918 	-2.01516600841536e-21
1 	0.96094335497223 	-3.51281503885303e-17 	0.276037924323003 	-0.0023861646144477 	2.40260281098304e-21
1 	0.979322042806652 	-3.00324001778485e-17 	0.351179122427025 	-0.00712099584525819 	1.01047242534695e-20
1 	0.998361700558027 	-2.03830008427275e-17 	0.427056756342392 	-0.010652953693166 	5.11239788298033e-21
1 	1.01808569604737 	-2.12503625807159e-17 	0.49962583795715 	-0.0128465980020255 	2.0343116248109e-21
1 	1.03851819765243 	-1.60461921527855e-17 	0.56568428125676 	-0.0137647237871451 	-5.07235513707647e-21
1 	1.05968420027697 	-1.04083408558608e-17 	0.622953233359169 	-0.0136727332384081 	-1.84633005050364e-21
1 	1.08160955209792 	-9.54097911787244e-18 	0.670408576176151 	-0.0129343093202991 	4.07965037249969e-21
1 	1.10432098211309 	-6.93889390390723e-18 	0.708363155725612 	-0.0118829569916766 	4.8101756174503e-21
1 	1.12784612851327 	-6.93889390390723e-18 	0.738079279243029 	-0.0108315702619757 	-2.25021523311575e-21
1 	1.15221356790332 	-7.80625564189563e-18 	0.7613828514879 	-0.00995935121660669 	-1.96298151511983e-21
1 	1.17745284539835 	-1.38777878078145e-17 	0.780245641097616 	-0.00934017281502812 	-1.36155304454931e-20
1 	1.20359450562215 	-1.64798730217797e-17 	0.796422069633616 	-0.00895431497041899 	-2.00953391187808e-19
1 	1.23067012463664 	-9.54097911787244e-18 	0.811221555775588 	-0.00873441944527815 	1.94721744106758e-19
1 	1.25871234283237 	-1.73472347597681e-18 	0.825475671948103 	-0.00860178227513278 	9.5977106476606e-21
1 	1.28775489881211 	4.33680868994202e-18 	0.83963466491032 	-0.00848689103491537 	-7.45931529191169e-21
1 	1.31783266430119 	5.20417042793042e-18 	0.853893203381135 	-0.00834278150642843 	1.67634426599481e-21
1 	1.34898168012017 	5.20417042793042e-18 	0.868298471108152 	-0.00814639632869238 	9.58678464120549e-21
1 	1.38123919325783 	6.93889390390723e-18 	0.882829878651312 	-0.00789222180249245 	6.18703511086117e-20
1 	1.41464369508463 	8.67361737988404e-18 	0.897449453063738 	-0.00758387332460964 	-7.42141535994935e-20
1 	1.44923496074941 	5.20417042793042e-18 	0.912124804763341 	-0.00722697898251234 	-4.84993625156655e-22
1 	1.48505408980478 	-3.46944695195361e-18 	0.926831086099097 	-0.00682510728427604 	1.18074668511391e-20
1 	1.52214354810991 	1.73472347597681e-18 	0.941541946715319 	-0.00637903412303164 	6.86033196157182e-21
1 	1.56054721106232 	3.46944695195361e-18 	0.956219097716674 	-0.00588831585584687 	-3.01049050296195e-21
1 	1.60031040821395 	-1.73472347597681e-18 	0.970806405451474 	-0.00535356861468709 	-6.61725575502291e-21
1 	1.64147996933068 	0 	0.985230012013296 	-0.00477817390234318 	2.41173869269806e-22
1 	1.68410427195819 	-6.93889390390723e-18 	0.999402880571987 	-0.00416890010780173 	-8.10235371363929e-22
1 	1.72823329056171 	-2.08166817117217e-17 	1.01323109207631 	-0.00353559714655331 	-9.8395853391442e-21
1 	1.77391864731173 	-3.12250225675825e-17 	1.02661974060114 	-0.0028903859323656 	-7.08888165312835e-21
1 	1.82121366459262 	-3.81639164714898e-17 	1.03947768705648 	-0.0022468425110223 	3.26035502954384e-21
1 	1.8701734193166 	-4.85722573273506e-17 	1.0517219813408 	-0.00161961231049558 	-7.10478641592642e-21
1 	1.92085479913089 	-5.55111512312578e-17 	1.06328116803081 	-0.00102562700612413 	4.13352358765594e-21
1 	1.97331656061211 	-6.59194920871187e-17 	1.07380773057741 	-0.000491882133923152 	6.70034754099519e-21
1 	2.02025965173185 	-7.28583859910259e-17 	1.08251986114163 	-6.3230191395729e-05 	1.53714479799252e-21
1 	2.06006301192217 	-6.93889390390723e-17 	1.08948993919337 	0.000265431165078829 	0
1 	2.09845978584128 	-7.28583859910259e-17 	1.09542892353322 	0.000529450279148141 	0
1 	2.13549967996946 	-7.63278329429795e-17 	1.10065089984709 	0.000740461779852005 	0
1 	2.17123064424048 	-7.63278329429795e-17 	1.10523478862544 	0.000905117862765427 	1.03006442574594e-16
1 	2.20569893411516 	-7.63278329429795e-17 	1.10924936720541 	0.0010289632595608 	1.79143368386637e-16
1 	2.23894917046123 	-7.97972798949331e-17 	1.11275380616878 	0.00111719678772068 	-1.82190980469382e-16
1 	2.27102439731726 	-8.67361737988404e-17 	1.11579841058128 	0.0011747071533303 	-1.03710955834795e-16
1 	2.30196613761522 	-9.0205620750794e-17 	1.11842545815759 	0.00120597116661206 	0
1 	2.33181444693392 	-9.0205620750794e-17 	1.12067005814053 	0.00121500632599575 	0
1 	2.3606079653529 	-9.0205620750794e-17 	1.12256097201224 	0.00120536965575807 	0
1 	2.38838396747391 	-8.67361737988404e-17 	1.12412135962713 	0.00118017749260306 	0
1 	2.41517841067461 	-7.97972798949331e-17 	1.12536943396283 	0.00114213628263526 	0
1 	2.44102598165722 	-7.63278329429795e-17 	1.12631902105082 	0.00109357903027027 	0
1 	2.46596014135208 	-7.63278329429795e-17 	1.12698003016729 	0.00103650353204843 	0
1 	2.49001316823444 	-7.28583859910259e-17 	1.12735884459637 	0.000972609834548197 	0
1 	2.51321620011054 	-6.93889390390723e-17 	1.12745864644863 	0.000903335398505458 	0
1 	2.535599274427 	-6.93889390390723e-17 	1.12727969100997 	0.000829887158396879 	0
1 	2.55719136715571 	-6.24500451351651e-17 	1.12681954746002 	0.00075327013050058 	0
1 	2.57802043030466 	-5.55111512312578e-17 	1.12607332379037 	0.000674312529188213 	0
1 	2.59811342810315 	-5.55111512312578e-17 	1.12503389435626 	0.000593687557244155 	0
1 	2.61749637190832 	-5.55111512312578e-17 	1.12369214844539 	0.000511932180191671 	0
1 	2.63619435387806 	-5.55111512312578e-17 	1.12203727705945 	0.000429463311103091 	0
1 	2.65423157945406 	-5.20417042793042e-17 	1.12005711235839 	0.000346591898081691 	0
1 	2.67163139869691 	-4.85722573273506e-17 	1.117738529329 	0.00026353544990428 	0
1 	2.68841633651388 	-4.85722573273506e-17 	1.11506791029604 	0.000180429576002206 	0
1 	2.70460812181851 	-5.20417042793042e-17 	1.11203166144934 	9.73392209747918e-05 	0
1 	2.72022771565972 	-5.55111512312578e-17 	1.10861675973167 	1.42702982817546e-05 	0
1 	2.73529533835695 	-5.55111512312578e-17 	1.10481129333818 	-6.88178023990042e-05 	2.19610809156876e-16
1 	2.74983049567625 	-4.85722573273506e-17 	1.10060494699999 	-0.000151998458332037 	2.110603982048e-16
1 	2.76385200408157 	-4.5102810375397e-17 	1.09598937605409 	-0.000235362561426469 	-2.36644351798583e-16
1 	2.77737801509344 	-4.85722573273506e-17 	1.09095841214646 	-0.000319001742075521 	-2.28093940846501e-16
1 	2.79042603878708 	-4.85722573273506e-17 	1.08550804972507 	-0.000402990315898727 	0
1 	2.80301296646003 	-5.20417042793042e-17 	1.07963617645128 	-0.000487366438972747 	0
1 	2.81515509249872 	-5.20417042793042e-17 	1.07334202923043 	-0.000572113039819417 	0
1 	2.82686813547237 	-4.85722573273506e-17 	1.0666253755336 	-0.000657139217431811 	0
1 	2.83816725848142 	-4.5102810375397e-17 	1.05948543423639 	-0.000742262835857084 	0
1 	2.84906708878691 	-3.46944695195361e-17 	1.0519195591946 	-0.000827195085278059 	0
0.999999999999999 	2.85958173674616 	-2.77555756156289e-17 	1.04392171077155 	-0.000911527582331913 	0
1 	2.86972481407933 	-2.42861286636753e-17 	1.03548073369879 	-0.000994722237311651 	0
1 	2.87950945149043 	-2.08166817117217e-17 	1.02657844218519 	-0.00107610403271343 	0
1 	2.88894831566566 	-2.42861286636753e-17 	1.01718748992818 	-0.00115485677386066 	0
1 	2.89805362567106 	-2.77555756156289e-17 	1.00726897717597 	-0.00123002186577778 	0
1 	2.90683716877067 	-2.77555756156289e-17 	0.996769716866336 	-0.00130050020664953 	0
1 	2.9153103156857 	-2.77555756156289e-17 	0.985619047801352 	-0.00136505756086376 	0
1 	2.92348403531448 	-2.77555756156289e-17 	0.973725047350623 	-0.00142233366993156 	0
1 	2.9313689089323 	-2.42861286636753e-17 	0.960969959451547 	-0.00147085397278413 	0
1 	2.93897514388925 	-2.42861286636753e-17 	0.947204613826783 	-0.00150904893500704 	0
1 	2.94631258682425 	-2.08166817117217e-17 	0.932241563589237 	-0.0015353210253646 	0
1 	2.95339073641193 	-1.04083408558608e-17 	0.915846564293269 	-0.0015482167045371 	0
1 	2.96021875565915 	-6.93889390390723e-18 	0.897711588387953 	-0.00154586197355443 	0
1 	2.96680548376697 	-1.04083408558608e-17 	0.877388477465181 	-0.00152513195797714 	0
1 	2.97315944757337 	-1.38777878078145e-17 	0.854254427362015 	-0.00148249459113499 	0
1 	2.97928887259171 	-1.38777878078145e-17 	0.82756532111957 	-0.0014147299632368 	0
1 	2.98520169365902 	-1.38777878078145e-17 	0.796496438617245 	-0.00132092693470105 	0
1 	2.99090556520806 	-1.38777878078145e-17 	0.760110616422189 	-0.00120265736556962 	0
1 	2.99640787117633 	-1.38777878078145e-17 	0.717306244117303 	-0.00106325905304382 	0
1 	3.00171573456492 	-1.38777878078145e-17 	0.666793868137073 	-0.000907720847410943 	0
1 	3.00683602665962 	-1.38777878078145e-17 	0.607112990001986 	-0.000742697373087315 	0
1 	3.01177537592612 	-1.04083408558608e-17 	0.536590643328007 	-0.00057583947439174 	0
1 	3.01654017659085 	-6.93889390390723e-18 	0.453735893570668 	-0.000414605868505289 	0
1 	3.02113659691864 	-6.93889390390723e-18 	0.359285670716789 	-0.000267689024526712 	0
1 	3.02557058719784 	-1.04083408558608e-17 	0.257599134618494 	-0.0001462165387003 	0
1 	3.02984788744324 	-1.04083408558608e-17 	0.153983319482475 	-5.99105078631558e-05 	0
