1 	0.609998707734988 	-6.93889390390723e-18 	0.0793546596712773 	8.10976187618335e-08 	2469.78176329301 	7.66263323105718e-10 	1.8177699731239e-38
1 	0.615677669341748 	-6.93889390390723e-18 	0.0793349192162487 	1.14496088342008e-06 	579.595258362492 	2.25833602774635e-08 	0
1 	0.621563396586334 	-1.38777878078145e-17 	0.0793136247404684 	6.87262322372683e-06 	161.838166756709 	2.68799807311637e-07 	0
1 	0.627663371400796 	-6.93889390390723e-18 	0.0792924138649027 	2.44188023549158e-05 	70.591152865557 	1.63350251041826e-06 	0
1 	0.633985343163336 	0 	0.0792705131973853 	6.38301374237083e-05 	38.1678816574375 	6.26418837781468e-06 	0
1 	0.640537338029282 	3.46944695195361e-18 	0.0792475432212298 	0.000136943840753986 	23.3684994205148 	1.70937418984515e-05 	0
1 	0.647327668572245 	6.93889390390723e-18 	0.0792233894917507 	0.000254679022404099 	15.4943791263467 	3.47387663402159e-05 	0
1 	0.65436494374482 	1.04083408558608e-17 	0.0791980718600027 	0.000422350949357352 	10.8584243046257 	5.27886487605247e-05 	0
1 	0.661658079168369 	1.04083408558608e-17 	0.0791718520466634 	0.000635803959461718 	7.94638167033097 	5.9569439451207e-05 	0
1 	0.66921630776171 	3.46944695195361e-18 	0.0791452701693853 	0.000882858293028036 	6.04842193653329 	4.99263556198184e-05 	0
1 	0.677049190718746 	0 	0.0791190061046336 	0.00115070297106945 	4.78511177711353 	3.09201628496676e-05 	0
1 	0.685166628845283 	3.46944695195361e-18 	0.0790936819920627 	0.00143052663350136 	3.93008609772625 	1.31536913142308e-05 	0
1 	0.693578874265574 	1.04083408558608e-17 	0.0790697548533355 	0.00171827976382028 	3.34168602153717 	2.88108964298924e-06 	0
1 	0.702296542509335 	1.04083408558608e-17 	0.0790475396170173 	0.00201345070043953 	2.93121540555285 	1.8930931755139e-06 	0
1 	0.711330624990233 	0 	0.0790273088050476 	0.00231782577445423 	2.64387554179941 	1.01248083798725e-05 	0
1 	0.720692501887127 	-1.04083408558608e-17 	0.0790093966723633 	0.00263481917509804 	2.44639033786238 	2.74476262702718e-05 	0
1 	0.730393955439554 	-1.38777878078145e-17 	0.0789942823286175 	0.00296931171224199 	2.31932479221276 	5.44917781372975e-05 	0
1 	0.740447183669264 	-2.08166817117217e-17 	0.0789826536136721 	0.00332791030497373 	2.25269229880301 	9.31329580544238e-05 	0
1 	0.75086481453986 	-2.77555756156289e-17 	0.0789754399240901 	0.0037196055801633 	2.24383646062838 	0.000147113633352445 	0
1 	0.761659920566846 	-2.77555756156289e-17 	0.0789737214508884 	0.00415690754794742 	2.296989296008 	0.000223108019240117 	0
1 	0.772846033890729 	-2.77555756156289e-17 	0.0789783904213579 	0.00465719682963288 	2.42357082531981 	0.000332144447825609 	0
1 	0.784437161826055 	-3.12250225675825e-17 	0.078989997691896 	0.00523883896449846 	2.63451815196315 	0.000490404742305673 	0
1 	0.796447802899618 	-3.81639164714898e-17 	0.0790095287642396 	0.00591538513068158 	2.9169418553582 	0.00072146816047932 	0
1 	0.808892963391327 	-4.16333634234434e-17 	0.0790386864422992 	0.00671029881100131 	3.25231067272112 	0.00105807841211547 	0
1 	0.821788174391592 	-4.16333634234434e-17 	0.0790800259607304 	0.00766218666091916 	3.64373437461066 	0.00154074477407309 	0
1 	0.835149509389415 	-3.12250225675825e-17 	0.0791400141758301 	0.00881366630598432 	4.09507238859112 	0.00222264550569823 	0
1 	0.848993602405718 	-2.77555756156289e-17 	0.07923394134397 	0.0102095592631903 	4.61023188285478 	0.00320032631506226 	0
1 	0.863337666686782 	-3.12250225675825e-17 	0.0794006375266749 	0.0118809003152289 	5.19244656224011 	0.00468238593388391 	0
1 	0.878199513973139 	-2.42861286636753e-17 	0.0796531806584811 	0.0137994631195826 	5.84603065244806 	0.0071157521128872 	0
1 	0.893597574359564 	-2.42861286636753e-17 	0.079905394958385 	0.0159351444119872 	6.58399677615023 	0.0107573704101026 	0
1 	0.909550916762347 	-3.12250225675825e-17 	0.0801037118235824 	0.0182555198296058 	7.41356430351304 	0.0156246042423004 	0
1 	0.926079270010412 	-3.33392168039293e-17 	0.0803268731219457 	0.0206347963248869 	8.3025741293404 	0.0218097283280395 	0
1 	0.943203044577384 	-3.19297539796981e-17 	0.0806487101420699 	0.0227996118611955 	9.11096898578678 	0.0283640668566305 	0
1 	0.96094335497223 	-3.51281503885303e-17 	0.0810660843192857 	0.0245260787505404 	9.66788372286736 	0.0338361713600997 	0
1 	0.979322042806652 	-3.00324001778485e-17 	0.0815436152823363 	0.0257270178999068 	9.88176637882745 	0.0368247419203157 	0
1 	0.998361700558027 	-2.03830008427275e-17 	0.0820374021565227 	0.0264267013851978 	9.71898686588769 	0.0365261466739565 	0
1 	1.01808569604737 	-2.12503625807159e-17 	0.0824954844555421 	0.0267346039626484 	9.19902589214863 	0.0331544221141281 	0
1 	1.03851819765243 	-1.60461921527855e-17 	0.0828890539727957 	0.0268019930659106 	8.3828638084091 	0.0276844868836605 	0
1 	1.05968420027697 	-1.04083408558608e-17 	0.0832166855988948 	0.0267878282266506 	7.36767063823523 	0.0216938674872782 	0
1 	1.08160955209792 	-9.54097911787244e-18 	0.0834557732383467 	0.0268090171301264 	6.27235063829258 	0.0159586984768062 	0
1 	1.10432098211309 	-6.93889390390723e-18 	0.0836037659922922 	0.026940798788188 	5.20498165667093 	0.0113306017854918 	0
1 	1.12784612851327 	-6.93889390390723e-18 	0.0836717803390776 	0.0272053802632202 	4.24574483631545 	0.00802101485738333 	0
1 	1.15221356790332 	-7.80625564189563e-18 	0.0836548200227813 	0.0275831523339686 	3.44930032298795 	0.00588149073248257 	0
1 	1.17745284539835 	-1.38777878078145e-17 	0.0835643001499879 	0.0280297121156567 	2.85908037567089 	0.00461442457323185 	0
1 	1.20359450562215 	-1.64798730217797e-17 	0.0834381514287967 	0.0284998909019107 	2.4685138263951 	0.00393468657758112 	0
1 	1.23067012463664 	-9.54097911787244e-18 	0.0833315311410725 	0.028960284976678 	2.2219108742069 	0.00362339027529442 	0
1 	1.25871234283237 	-1.73472347597681e-18 	0.0832837895795025 	0.0293849096452048 	2.0625873187653 	0.00351362552756805 	0
1 	1.28775489881211 	4.33680868994202e-18 	0.0833061827990327 	0.0297506885060131 	1.95084477972223 	0.00348909308533042 	0
1 	1.31783266430119 	5.20417042793042e-18 	0.0833945690688498 	0.0300363845409177 	1.86241107756129 	0.0034797127594778 	0
1 	1.34898168012017 	5.20417042793042e-18 	0.0835415281712131 	0.0302232475517552 	1.78394096761998 	0.00345139717860953 	0
1 	1.38123919325783 	6.93889390390723e-18 	0.0837417350345804 	0.0302958518384586 	1.70928068999196 	0.00339381465752668 	0
1 	1.41464369508463 	8.67361737988404e-18 	0.0839937735941292 	0.030242436648213 	1.63647469612416 	0.00330875151924587 	0
1 	1.44923496074941 	5.20417042793042e-18 	0.0843001267851423 	0.0300547492882191 	1.56543548670386 	0.00320096381474922 	0
1 	1.48505408980478 	-3.46944695195361e-18 	0.0846658567338491 	0.0297277357147643 	1.49642946958019 	0.0030730513797702 	0
1 	1.52214354810991 	1.73472347597681e-18 	0.0850967256781089 	0.0292594083462155 	1.42940283737653 	0.00292445838492456 	0
1 	1.56054721106232 	3.46944695195361e-18 	0.0855976298962987 	0.0286509919888387 	1.36393067531321 	0.00275315376974822 	0
1 	1.60031040821395 	-1.73472347597681e-18 	0.08617181170263 	0.0279072173842794 	1.29946307219205 	0.00255801359257458 	0
1 	1.64147996933068 	0 	0.0868207718970728 	0.027036532537047 	1.23559511815023 	0.00234044947510914 	0
1 	1.68410427195819 	-6.93889390390723e-18 	0.0875445179617285 	0.0260510423061664 	1.17221873040805 	0.00210477730020006 	0
1 	1.72823329056171 	-2.08166817117217e-17 	0.0883418385383932 	0.0249660902440438 	1.10953396294555 	0.00185759225160822 	0
1 	1.77391864731173 	-3.12250225675825e-17 	0.0892104660440164 	0.0237995378886349 	1.04796888865451 	0.00160673820779987 	0
1 	1.82121366459262 	-3.81639164714898e-17 	0.0901468750911781 	0.0225712332313244 	0.988145563376554 	0.00136030045865183 	0
1 	1.8701734193166 	-4.85722573273506e-17 	0.0911455480780353 	0.0213029915323365 	0.93102534580103 	0.00112559741304562 	0
1 	1.92085479913089 	-5.55111512312578e-17 	0.0921983353162222 	0.020014836516585 	0.877510747268769 	0.000908833567420369 	0
1 	1.97331656061211 	-6.59194920871187e-17 	0.093268060776903 	0.0187559075443121 	0.828968647651378 	0.000718762800767858 	0
1 	2.02025965173185 	-7.28583859910259e-17 	0.094258679495385 	0.0176450275004262 	0.788997913486862 	0.000567790854193897 	0
1 	2.06006301192217 	-6.93889390390723e-17 	0.0951244357725716 	0.0167147821854543 	0.757662057362992 	0.000454212428916572 	0
1 	2.09845978584128 	-7.28583859910259e-17 	0.0959226373739928 	0.0158936841682488 	0.731889068711871 	0.000363614517859351 	0
1 	2.13549967996946 	-7.63278329429795e-17 	0.0966844984070345 	0.0151441757155498 	0.710221960666378 	0.000288927201007276 	0
1 	2.17123064424048 	-7.63278329429795e-17 	0.0974089017993718 	0.0144580186797233 	0.692283531853484 	0.000227687013852509 	0
1 	2.20569893411516 	-7.63278329429795e-17 	0.0980957030143301 	0.0138277066231035 	0.677760679634355 	0.000177561534598233 	0
1 	2.23894917046123 	-7.97972798949331e-17 	0.0987455170314879 	0.0132466488856878 	0.666399417201333 	0.000136581776668775 	0
1 	2.27102439731726 	-8.67361737988404e-17 	0.0993592640592954 	0.012709213964744 	0.658000570664416 	0.000103128867956275 	0
1 	2.30196613761522 	-9.0205620750794e-17 	0.0999380518359686 	0.0122106697692215 	0.652416202229972 	7.59051390507812e-05 	0
1 	2.33181444693392 	-9.0205620750794e-17 	0.100483126084321 	0.0117470840475233 	0.649546533037192 	5.3897247955053e-05 	0
1 	2.3606079653529 	-9.0205620750794e-17 	0.100995822539842 	0.011315218315494 	0.649337385478714 	3.63371849529243e-05 	0
1 	2.38838396747391 	-8.67361737988404e-17 	0.101477527655755 	0.010912426846291 	0.651778208465415 	2.26658889330833e-05 	0
1 	2.41517841067461 	-7.97972798949331e-17 	0.101929649300552 	0.0105365661865511 	0.65690073184339 	1.25019395046501e-05 	0
1 	2.44102598165722 	-7.63278329429795e-17 	0.102353594889726 	0.0101859169979985 	0.66477826203473 	5.6160692728506e-06 	0
1 	2.46596014135208 	-7.63278329429795e-17 	0.102750755015098 	0.00985911796455801 	0.675525590839538 	1.91130823716044e-06 	0
1 	2.49001316823444 	-7.28583859910259e-17 	0.103122491347358 	0.00955511041359541 	0.689299445899591 	1.40808938770771e-06 	0
1 	2.51321620011054 	-6.93889390390723e-17 	0.1034701279135 	0.00927309176149243 	0.706299364217995 	4.23339720089191e-06 	0
1 	2.535599274427 	-6.93889390390723e-17 	0.103794945053193 	0.00901247565821301 	0.72676881796204 	1.06129020278574e-05 	0
1 	2.55719136715571 	-6.24500451351651e-17 	0.1040981755144 	0.00877285663155097 	0.750996363746469 	2.08649192314631e-05 	0
1 	2.57802043030466 	-5.55111512312578e-17 	0.104381002266048 	0.00855397704989684 	0.779316524207664 	3.53949291817728e-05 	0
1 	2.59811342810315 	-5.55111512312578e-17 	0.10464455769022 	0.00835569431220261 	0.812110049634914 	5.46892940436539e-05 	0
1 	2.61749637190832 	-5.55111512312578e-17 	0.104889923877381 	0.00817794634867003 	0.849803159557201 	7.9306742201405e-05 	0
1 	2.63619435387806 	-5.55111512312578e-17 	0.105118133796035 	0.00802071384856183 	0.892865348898628 	0.000109866209521693 	0
1 	2.65423157945406 	-5.20417042793042e-17 	0.105330173082761 	0.00788398022515884 	0.941805380486994 	0.000147029843738253 	0
1 	2.67163139869691 	-4.85722573273506e-17 	0.105526982209126 	0.00776768660064947 	0.997165213443874 	0.000191480420389138 	0
1 	2.68841633651388 	-4.85722573273506e-17 	0.105709458996766 	0.00767167508406022 	1.05951189683725 	0.000243893141276259 	0
1 	2.70460812181851 	-5.20417042793042e-17 	0.105878461303782 	0.00759563940872898 	1.12942784344174 	0.000304903169655166 	0
1 	2.72022771565972 	-5.55111512312578e-17 	0.106034809542761 	0.00753907661062429 	1.2075004089022 	0.000375071286179865 	0
1 	2.73529533835695 	-5.55111512312578e-17 	0.106179288936123 	0.00750124242853996 	1.2943123588282 	0.000454851692046278 	0
1 	2.74983049567625 	-4.85722573273506e-17 	0.106312651443161 	0.0074811181184053 	1.39043544369486 	0.000544567114372528 	0
1 	2.76385200408157 	-4.5102810375397e-17 	0.106435617287917 	0.00747739369986922 	1.49642982518384 	0.000644396918855371 	0
1 	2.77737801509344 	-4.85722573273506e-17 	0.106548876070446 	0.0074884712884567 	1.61285239800398 	0.000754383689629196 	0
1 	2.79042603878708 	-4.85722573273506e-17 	0.106653087429762 	0.00751249017522966 	1.74027703742205 	0.00087446242503099 	0
1 	2.80301296646003 	-5.20417042793042e-17 	0.106748881291748 	0.00754737513435561 	1.87932944302994 	0.00100451469306298 	0
1 	2.81515509249872 	-5.20417042793042e-17 	0.106836857824153 	0.00759090537286127 	2.03073863746255 	0.00114444797180141 	0
1 	2.82686813547237 	-4.85722573273506e-17 	0.106917587128005 	0.00764079542923146 	2.19540656492035 	0.00129429824343371 	0
1 	2.83816725848142 	-4.5102810375397e-17 	0.106991608638238 	0.00769478075627916 	2.374496853736 	0.00145435289720743 	0
1 	2.84906708878691 	-3.46944695195361e-17 	0.107059430199438 	0.00775070129045282 	2.56954387203383 	0.00162529072669423 	0
0.999999999999999 	2.85958173674616 	-2.77555756156289e-17 	0.10712152688098 	0.00780657643510236 	2.7825839484344 	0.00180833681986104 	0
1 	2.86972481407933 	-2.42861286636753e-17 	0.107178339738879 	0.00786066500875625 	3.01631224946449 	0.00200543277695854 	0
1 	2.87950945149043 	-2.08166817117217e-17 	0.107230274497464 	0.00791150381852894 	3.2742714580311 	0.00221942588395922 	0
1 	2.88894831566566 	-2.42861286636753e-17 	0.107277700052826 	0.00795792300925028 	3.56108207824486 	0.00245428425793164 	0
1 	2.89805362567106 	-2.77555756156289e-17 	0.107320946987092 	0.00799903791831284 	3.88272896939193 	0.00271534808406807 	0
1 	2.90683716877067 	-2.77555756156289e-17 	0.107360306329409 	0.00803421596525188 	4.24692494294219 	0.00300962954719047 	0
1 	2.9153103156857 	-2.77555756156289e-17 	0.107396028797772 	0.00806301665424003 	4.66358044785364 	0.00334617429920744 	0
1 	2.92348403531448 	-2.77555756156289e-17 	0.107428325190012 	0.00808510141437207 	5.14541941999298 	0.00373649282527325 	0
1 	2.9313689089323 	-2.42861286636753e-17 	0.107457368640888 	0.0081001070669031 	5.70879710168987 	0.00419505785082559 	0
1 	2.93897514388925 	-2.42861286636753e-17 	0.107483295026004 	0.00810747311775035 	6.37479935426785 	0.0047398395805716 	0
1 	2.94631258682425 	-2.08166817117217e-17 	0.107506191626509 	0.00810621029911051 	7.17074432798703 	0.00539281706266843 	0
1 	2.95339073641193 	-1.04083408558608e-17 	0.107526106694453 	0.00809459797680699 	8.13227602189323 	0.00618649884633663 	0
1 	2.96021875565915 	-6.93889390390723e-18 	0.107543281702134 	0.00806946357724716 	9.30704605109602 	0.00716738714371457 	0
1 	2.96680548376697 	-1.04083408558608e-17 	0.107558220206337 	0.00802463759975545 	10.7608847384602 	0.00837961972945426 	0
1 	2.97315944757337 	-1.38777878078145e-17 	0.10757092758576 	0.00794924963655613 	12.5818857583553 	0.00987119792738876 	0
1 	2.97928887259171 	-1.38777878078145e-17 	0.107580848070984 	0.00782564374522754 	14.8790582780042 	0.0116715871446634 	0
1 	2.98520169365902 	-1.38777878078145e-17 	0.107587729579598 	0.00762722531268926 	17.7843336452341 	0.0137589252670087 	0
1 	2.99090556520806 	-1.38777878078145e-17 	0.107591772208424 	0.00731699718450759 	21.4669900520033 	0.0160355445109159 	0
1 	2.99640787117633 	-1.38777878078145e-17 	0.107593380289159 	0.00684734512105756 	26.1661796771347 	0.0182755931449704 	0
1 	3.00171573456492 	-1.38777878078145e-17 	0.107593054041473 	0.00616339749995959 	32.2652881559441 	0.020042037731119 	0
1 	3.00683602665962 	-1.38777878078145e-17 	0.107591340972896 	0.00521510318393998 	40.4951140031629 	0.0206119712716545 	0
1 	3.01177537592612 	-1.04083408558608e-17 	0.107588841258495 	0.00398321178266735 	52.556374302306 	0.0186159990248716 	0
1 	3.01654017659085 	-6.93889390390723e-18 	0.107586230591868 	0.00256802199722044 	73.2885541849726 	0.0130156951911087 	0
1 	3.02113659691864 	-6.93889390390723e-18 	0.107584030093292 	0.00128352913786989 	119.698356767229 	0.00616405993862584 	0
1 	3.02557058719784 	-1.04083408558608e-17 	0.107582249348034 	0.000453282234298794 	270.13606903373 	0.00172397894266336 	0
1 	3.02984788744324 	-1.04083408558608e-17 	0.107580596599619 	0.000100305536187719 	1163.672192234 	0.000234769517362267 	0
