6 	0.00273779077457386 	1.04083408558608e-17 	-0.0182473161662215 	-2.38900511409857e-05 	4.31204486761638e-22
6 	0.00831366561724397 	1.38777878078145e-17 	-0.0497801579352437 	-0.00016933032967895 	1.06205583604118e-21
6 	0.0140938010840031 	1.38777878078145e-17 	-0.0718022705264371 	-0.000460931928556729 	1.70375927266523e-21
6 	0.0200856798396764 	1.38777878078145e-17 	-0.0835161334744293 	-0.00088753369112869 	2.49056656500716e-22
6 	0.0262970586610136 	2.08166817117217e-17 	-0.0867331805354882 	-0.00141187232638356 	-5.61117408980543e-22
6 	0.0327359784782122 	3.12250225675825e-17 	-0.0853753708201833 	-0.00198985067405923 	2.35147522121872e-16
6 	0.0394107747842904 	3.46944695195361e-17 	-0.0822867526767269 	-0.0026088186308077 	4.41044819257096e-16
6 	0.0463300884257853 	3.12250225675825e-17 	-0.0786109245715793 	-0.00326773431183418 	-2.39117865868189e-16
5.99999999999999 	0.0535028767887471 	2.77555756156289e-17 	-0.0747044254666963 	-0.0039636455638614 	-2.34664322303147e-16
5.99999999999999 	0.060938425394508 	2.08166817117217e-17 	-0.070673707538957 	-0.00469362064034455 	6.12231778093133e-17
5.99999999999999 	0.0686463599202387 	2.08166817117217e-17 	-0.0665467044843504 	-0.0054561714741076 	6.3649414362098e-17
5.99999999999999 	0.0766366586598531 	2.42861286636753e-17 	-0.0623243086481567 	-0.00625081303851351 	-3.26737993361378e-17
5.99999999999999 	0.0849196654413916 	1.73472347597681e-17 	-0.0579971399757929 	-0.00707754884330292 	-1.46833014435017e-17
5.99999999999999 	0.0935061030176071 	1.38777878078145e-17 	-0.053551511786547 	-0.00793663466670415 	-1.34942713069922e-22
5.99999999999999 	0.102407086947087 	1.38777878078145e-17 	-0.0489716695864888 	-0.00882848198012975 	5.02642290762098e-17
5.99999999999999 	0.11163413998388 	1.04083408558608e-17 	-0.0442406225462883 	-0.00975360629288166 	1.29207453750517e-16
5.99999999999999 	0.121199206994261 	3.46944695195361e-18 	-0.0393404038187102 	-0.0107125926143604 	-1.14693446204514e-16
5.99999999999999 	0.131114670419936 	-3.46944695195361e-18 	-0.0342520853425311 	-0.011706070626005 	-4.61434987100016e-17
5.99999999999999 	0.141393366307709 	-6.93889390390723e-18 	-0.02895568156776 	-0.0127346956934942 	1.82897337620419e-22
5.99999999999999 	0.152048600926373 	-6.93889390390723e-18 	-0.0234299997838815 	-0.0137991330414019 	7.61208412010618e-17
5.99999999999999 	0.163094167992309 	0 	-0.0176524622149554 	-0.0149000433275573 	1.42380382464483e-16
5.99999999999999 	0.174544366526125 	6.93889390390723e-18 	-0.0115989112403417 	-0.0160380685544077 	-1.34296016635217e-16
5.99999999999999 	0.186414019363427 	1.38777878078145e-17 	-0.00524340431510297 	-0.0172138172414137 	-7.26020147907773e-17
5.99999999999999 	0.198718492343699 	1.38777878078145e-17 	0.00144199928222456 	-0.0184278480447184 	-3.45140916161967e-22
5.99999999999999 	0.21147371420212 	1.04083408558608e-17 	0.00848746135954451 	-0.0196806519614812 	-8.66299843080511e-22
5.99999999999999 	0.224696197190089 	2.08166817117217e-17 	0.0159256006596244 	-0.0209726323424164 	-6.86444668661601e-22
5.99999999999999 	0.238403058451124 	2.77555756156289e-17 	0.0237917513642796 	-0.0223040838328518 	2.36656197367936e-22
5.99999999999999 	0.25261204217984 	2.08166817117217e-17 	0.0321242373183326 	-0.0236751697403518 	-5.71565966931253e-23
5.99999999999999 	0.267341542592663 	1.73472347597681e-17 	0.0409646496369039 	-0.0250858944255034 	-3.56529819646095e-22
5.99999999999999 	0.282610627740031 	2.42861286636753e-17 	0.0503581283110832 	-0.0265360712062853 	1.13786557352901e-22
5.99999999999999 	0.298439064190912 	3.12250225675825e-17 	0.0603536483231352 	-0.0280252851030732 	2.22119459130949e-22
5.99999999999999 	0.31484734262158 	2.77555756156289e-17 	0.0710043064545072 	-0.0295528497615937 	5.89352572334876e-22
5.99999999999999 	0.331856704341783 	2.08166817117217e-17 	0.0823676025462245 	-0.0311177577354453 	4.43402812750152e-22
5.99999999999999 	0.349489168792654 	1.38777878078145e-17 	0.0945057067938036 	-0.0327186230878597 	1.11261027517432e-21
5.99999999999999 	0.367767562051933 	6.93889390390723e-18 	0.107485701974098 	-0.034353615317935 	7.86290482572373e-22
5.99999999999999 	0.386715546383436 	1.38777878078145e-17 	0.121379786205047 	-0.0360203842598356 	-1.05883841401504e-21
5.99999999999999 	0.406357650868994 	1.38777878078145e-17 	0.136265417767569 	-0.0377159749944855 	-9.76876480221217e-22
5.99999999999999 	0.426719303162536 	-3.46944695195361e-18 	0.152225378095844 	-0.039436721209839 	2.07277815786104e-22
5.99999999999999 	0.447826862407422 	-1.38777878078145e-17 	0.169347721483211 	-0.0411780901298959 	-1.62838807008621e-21
5.99999999999999 	0.46970765335962 	-1.73472347597681e-17 	0.187725574340661 	-0.042934554726282 	-4.51088021828674e-22
5.99999999999999 	0.49239000176093 	-1.73472347597681e-17 	0.207456760292731 	-0.0446999715570884 	-3.42774513765623e-17
5.99999999999999 	0.515903271008024 	-1.38777878078145e-17 	0.228643321679441 	-0.0464684545587643 	-1.4932352850298e-16
5.99999999999999 	0.540277900164782 	-6.93889390390723e-18 	0.251397548050942 	-0.0482292251052933 	1.57076678073586e-16
5.99999999999999 	0.565545443367136 	6.93889390390723e-18 	0.27592943339679 	-0.0499562520438258 	3.36741828223475e-17
5.99999999999999 	0.591738610671418 	1.04083408558608e-17 	0.302699690884727 	-0.0516267271787753 	-2.51573961164434e-22
5.99999999999999 	0.618891310399115 	1.04083408558608e-17 	0.332196307244231 	-0.0532101347937293 	5.91396663601631e-22
5.99999999999999 	0.647038693032827 	1.38777878078145e-17 	0.3645612095353 	-0.0546727107489238 	-2.84385333470429e-21
5.99999999999999 	0.676217196720268 	1.38777878078145e-17 	0.399659094094942 	-0.0559934471859988 	-2.06121265975547e-21
5.99999999999999 	0.70646459444521 	1.73472347597681e-17 	0.437256485715427 	-0.0571579541355604 	-5.36019697342166e-22
5.99999999999999 	0.737820042926436 	2.08166817117217e-17 	0.477129877651968 	-0.0581495103528638 	-1.82325686058602e-21
5.99999999999999 	0.770324133308008 	1.38777878078145e-17 	0.519088291426932 	-0.0589470062822846 	-4.57221240417293e-23
5.99999999999999 	0.80401894370646 	6.93889390390723e-18 	0.562937496020123 	-0.0595268649149997 	-1.32219600848589e-21
5.99999999999999 	0.838948093682959 	1.04083408558608e-17 	0.608427257399659 	-0.0598665057298718 	6.88907507808956e-22
5.99999999999999 	0.875156800710938 	6.93889390390723e-18 	0.655213344508939 	-0.0599476071831698 	1.4362132084162e-20
5.99999999999999 	0.912691938712295 	3.46944695195361e-18 	0.702848510480465 	-0.0597578476583546 	-2.92674024458864e-21
5.99999999999999 	0.951602098737954 	3.46944695195361e-18 	0.750803670566017 	-0.0592905592216439 	-1.99037092108995e-21
5.99999999999999 	0.991937651871331 	6.93889390390723e-18 	0.798519046596958 	-0.0585410871342534 	-1.29427588456231e-20
5.99999999999999 	1.03375081443614 	1.38777878078145e-17 	0.845447123307715 	-0.0574954202468369 	-1.02292857350307e-20
5.99999999999999 	1.07709571559294 	1.38777878078145e-17 	0.890844023318844 	-0.0561247928153642 	1.25424446528994e-20
5.99999999999999 	1.12202846741195 	1.73472347597681e-17 	0.933548097314414 	-0.0544065411710215 	-7.88294529686615e-21
5.99999999999999 	1.16860723751286 	2.42861286636753e-17 	0.972539338711721 	-0.0523601846753337 	1.25411768527058e-20
5.99999999999999 	1.2168923243656 	2.42861286636753e-17 	1.00784638675732 	-0.050014264370874 	1.08475689135136e-21
5.99999999999999 	1.26694623534961 	1.73472347597681e-17 	1.03965470792692 	-0.0474014281151696 	1.22875869410889e-20
5.99999999999999 	1.31883376767273 	1.04083408558608e-17 	1.06748424257037 	-0.0445856517179413 	1.49673910801889e-20
5.99999999999999 	1.37262209225426 	6.93889390390723e-18 	1.09035444969188 	-0.0416975637329435 	2.59752205237893e-20
5.99999999999999 	1.41220272459524 	6.93889390390723e-18 	1.10417684055966 	-0.0395299428009926 	1.67055592656558e-21
5.99999999999999 	1.43617694926586 	1.04083408558608e-17 	1.11187674322607 	-0.0381286125327849 	0
5.99999999999999 	1.45930396367274 	1.04083408558608e-17 	1.11807670204705 	-0.0368534984587215 	0
5.99999999999999 	1.48161370685419 	6.93889390390723e-18 	1.12339255782617 	-0.0356264766071999 	0
5.99999999999999 	1.50313505985141 	6.93889390390723e-18 	1.12794708149756 	-0.034443364379708 	0
5.99999999999999 	1.52389588309638 	6.93889390390723e-18 	1.13183652574682 	-0.0333012949315056 	0
5.99999999999999 	1.54392305247857 	3.46944695195361e-18 	1.13513602716349 	-0.0321975954938241 	0
5.99999999999999 	1.56324249413703 	-3.46944695195361e-18 	1.13790390046958 	-0.0311296356129048 	0
5.99999999999999 	1.58187921802306 	-6.93889390390723e-18 	1.14018494512135 	-0.0300949176333788 	0
5.99999999999999 	1.59985735027679 	-6.93889390390723e-18 	1.14201294548272 	-0.0290911050431823 	0
5.99999999999999 	1.61720016445966 	-6.93889390390723e-18 	1.14341253170253 	-0.0281160120477827 	0
5.99999999999999 	1.63393011168312 	-6.93889390390723e-18 	1.1444005420356 	-0.0271675857577256 	0
5.99999999999999 	1.65006884967273 	-6.93889390390723e-18 	1.14498699914814 	-0.0262438878755044 	0
5.99999999999999 	1.66563727080512 	-6.93889390390723e-18 	1.14517578868106 	-0.0253430770952467 	0
5.99999999999999 	1.68065552915414 	-6.93889390390723e-18 	1.1449651097109 	-0.0244633933192665 	0
5.99999999999999 	1.69514306658136 	-6.93889390390723e-18 	1.1443477537791 	-0.0236031446386837 	0
5.99999999999999 	1.70911863790442 	0 	1.14331126141794 	-0.0227606977790709 	0
5.99999999999999 	1.7226003351761 	6.93889390390723e-18 	1.14183800206176 	-0.0219344726365624 	0
5.99999999999999 	1.73560561110536 	6.93889390390723e-18 	1.13990522431686 	-0.0211229415777772 	0
5.99999999999999 	1.74815130165068 	0 	1.13748512800528 	-0.0203246342547645 	0
5.99999999999999 	1.76025364781502 	-6.93889390390723e-18 	1.13454501599041 	-0.0195381487178756 	0
5.99999999999999 	1.77192831667064 	-6.93889390390723e-18 	1.13104759057633 	-0.0187621695178164 	0
5.99999999999999 	1.78319042164083 	-1.04083408558608e-17 	1.12695146326288 	-0.0179954931877333 	0
5.99999999999999 	1.79405454206499 	-1.38777878078145e-17 	1.12221194378863 	-0.0172370609067793 	0
5.99999999999999 	1.80453474207227 	-1.04083408558608e-17 	1.11678216005356 	-0.0164859972230575 	0
5.99999999999999 	1.81464458878828 	-6.93889390390723e-18 	1.11061453063744 	-0.015741652480271 	0
5.99999999999999 	1.8243971698984 	-6.93889390390723e-18 	1.10366256476522 	-0.0150036451641432 	0
5.99999999999999 	1.83380511059041 	-6.93889390390723e-18 	1.09588290412721 	-0.0142718990673928 	0
5.99999999999999 	1.84288058989839 	-6.93889390390723e-18 	1.08723745664571 	-0.0135466698607487 	0
5.99999999999999 	1.85163535646909 	-3.46944695195361e-18 	1.07769541922724 	-0.0128285575047403 	0
5.99999999999999 	1.86008074377113 	0 	1.06723496145174 	-0.0121185001823443 	0
5.99999999999999 	1.8682276847667 	0 	1.05584435744128 	-0.0114177233801497 	0
5.99999999999999 	1.8760867260648 	0 	1.04352241023975 	-0.0107275990113396 	0
5.99999999999999 	1.88366804157438 	-3.46944695195361e-18 	1.03027803844881 	-0.0100496792168487 	0
5.99999999999999 	1.8909814456749 	-1.04083408558608e-17 	1.01612143853529 	-0.00938645834754564 	0
5.99999999999999 	1.89803640592158 	-1.38777878078145e-17 	1.00100738261539 	-0.00873862423541029 	0
5.99999999999999 	1.90484205530155 	-1.04083408558608e-17 	0.98479424800976 	-0.00810506256222657 	0
5.99999999999999 	1.91140720405698 	-6.93889390390723e-18 	0.967393733081769 	-0.00748559973877911 	0
5.99999999999999 	1.91774035109035 	-3.46944695195361e-18 	0.948880561121138 	-0.0068846733277057 	0
5.99999999999999 	1.9238496949667 	0 	0.929401645572647 	-0.00630579138029353 	0
5.99999999999999 	1.92974314452705 	0 	0.909108149777592 	-0.00575155121399752 	0
5.99999999999999 	1.9354283291268 	0 	0.888124086360347 	-0.0052239046903537 	0
5.99999999999999 	1.9409126085123 	-3.46944695195361e-18 	0.86653696727563 	-0.00472417988358882 	0
5.99999999999999 	1.94620308234835 	-3.46944695195361e-18 	0.844398260663796 	-0.00425313868712819 	0
5.99999999999999 	1.95130659940914 	-3.46944695195361e-18 	0.821726379075883 	-0.00381108319951459 	0
5.99999999999999 	1.95622976644424 	-6.93889390390723e-18 	0.798508954413735 	-0.00339796179677848 	0
5.99999999999999 	1.96097895673142 	-6.93889390390723e-18 	0.774703367986514 	-0.00301345510037593 	0
5.99999999999999 	1.96556031832711 	-6.93889390390723e-18 	0.750235526284556 	-0.00265704292539833 	0
5.99999999999999 	1.96997978202541 	-1.04083408558608e-17 	0.724997074560533 	-0.00232805829986765 	0
5.99999999999999 	1.97424306903575 	-1.38777878078145e-17 	0.698840800929638 	-0.0020257308058724 	0
5.99999999999999 	1.9783556983893 	-1.73472347597681e-17 	0.671573691439423 	-0.00174922166047453 	0
5.99999999999999 	1.98232299408358 	-2.08166817117217e-17 	0.64294613311958 	-0.00149762221121422 	0
5.99999999999999 	1.98615009197469 	-2.08166817117217e-17 	0.61263086537753 	-0.00126980039666458 	0
5.99999999999999 	1.98984194642589 	-2.08166817117217e-17 	0.58018095597915 	-0.00106385208056937 	0
5.99999999999999 	1.99340333672126 	-1.73472347597681e-17 	0.544995128541475 	-0.000878026509529562 	0
5.99999999999999 	1.99683887325273 	-1.38777878078145e-17 	0.506339743541663 	-0.000710498911254202 	0
5.99999999999999 	2.00015300348844 	-1.38777878078145e-17 	0.463389940616493 	-0.000560426696224813 	0
5.99999999999999 	2.00335001773022 	-1.73472347597681e-17 	0.415351005555124 	-0.000427320384562061 	0
5.99999999999999 	2.00643405466757 	-2.08166817117217e-17 	0.361874270982751 	-0.000311268366421582 	0
5.99999999999999 	2.00940910673542 	-2.08166817117217e-17 	0.303770063820456 	-0.000213301607629528 	0
5.99999999999999 	2.01227902528252 	-1.73472347597681e-17 	0.243390739867708 	-0.000134880053591567 	0
5.99999999999999 	2.01504752555717 	-2.08166817117217e-17 	0.183716515402858 	-7.63405611805011e-05 	0
5.99999999999999 	2.01771819151684 	-2.08166817117217e-17 	0.126837850058235 	-3.62230921352842e-05 	0
5.99999999999999 	2.02029448046774 	-2.08166817117217e-17 	0.0735407260216898 	-1.21931061314313e-05 	0
5.99999999999999 	2.02277972754047 	-2.77555756156289e-17 	0.0237812232474466 	-1.39888060480838e-06 	0
