8 	0.449800494007594 	1.04083408558608e-17 	0.194522310895193 	0.0234609520957748 	1.48063729712521 	0.00270117913256311 	0
8 	0.474114843779107 	1.38777878078145e-17 	0.194416741072224 	0.0241865752929669 	1.49053233123215 	0.00290194090612661 	0
8 	0.499319391073293 	1.73472347597681e-17 	0.194304416435169 	0.024908361274247 	1.50330127803308 	0.00311272241985545 	0
8 	0.525446707722053 	1.73472347597681e-17 	0.194184076087612 	0.0256224722528906 	1.51867613500218 	0.00333258302001036 	0
8 	0.552530555779473 	2.08166817117217e-17 	0.194054271130573 	0.0263242647146724 	1.53637111742845 	0.0035601154714237 	0
8 	0.580605930890188 	1.38777878078145e-17 	0.193913367383509 	0.0270082487007044 	1.55607769168805 	0.0037934860631036 	0
8 	0.609709107227805 	3.46944695195361e-18 	0.193758457806266 	0.0276680750774595 	1.57746276562241 	0.00404474793776729 	0
8 	0.639877684059386 	0 	0.193582857324032 	0.0282975790628658 	1.60020150855876 	0.0043441808046777 	0
8 	0.67115063399385 	6.93889390390723e-18 	0.193379150483865 	0.0288927835016106 	1.62394738540718 	0.00468198437960356 	0
8 	0.703568352974193 	1.38777878078145e-17 	0.193145604815574 	0.029445633399998 	1.64779554116507 	0.00505967241674525 	0
8 	0.737172712075406 	2.08166817117217e-17 	0.192881817812536 	0.0299324983969302 	1.66972187069492 	0.00542699160088115 	0
8 	0.772007111172108 	2.77555756156289e-17 	0.192582397564881 	0.0303193500875323 	1.6869325473066 	0.00572891969012471 	0
8 	0.808116534542015 	2.42861286636753e-17 	0.192239050936654 	0.030572579273992 	1.69662018976616 	0.00593731990467396 	0
8 	0.845547608473645 	2.25514051876985e-17 	0.191844180624077 	0.0306660135694275 	1.69655120823399 	0.00604691231661672 	0
8 	0.88434866094888 	2.08166817117217e-17 	0.191391708212905 	0.0305829943615798 	1.6852853919647 	0.00606382104545662 	0
8 	0.924569783473378 	2.08166817117217e-17 	0.190876245158867 	0.0303155415318539 	1.66212657975294 	0.00599575581585792 	0
8 	0.966262895130215 	2.60208521396521e-17 	0.190292147168081 	0.0298631877302195 	1.6270019348342 	0.00584773472585512 	0
8 	1.00948180893461 	2.94902990916057e-17 	0.18963315048505 	0.0292328190453164 	1.58038710612447 	0.00562305961228275 	0
8 	1.05428230057009 	2.77555756156289e-17 	0.188892647404755 	0.0284393526518436 	1.52328819840069 	0.00532686815946842 	0
8 	1.10072217958909 	2.08166817117217e-17 	0.188064346078609 	0.0275062581429295 	1.45723488788389 	0.00496933871688488 	0
8 	1.1488613631635 	1.99493199737333e-17 	0.187142980393865 	0.0264650071842806 	1.38422713770056 	0.00456666197508471 	0
8 	1.19876195247359 	2.25514051876985e-17 	0.18612481274182 	0.0253535183969293 	1.30659363549283 	0.00413953621625821 	0
8 	1.25048831182624 	2.86229373536173e-17 	0.185008092186537 	0.0242120287602919 	1.22679196134358 	0.00370971336674616 	0
8 	1.30410715059639 	3.68628738645072e-17 	0.183793169278582 	0.0230799005586557 	1.14816572807394 	0.00329667727026299 	0
8 	1.35968760808855 	3.68628738645072e-17 	0.182482413618173 	0.021989504097091 	1.07324540992574 	0.00291521453348818 	0
8 	1.41730134141771 	3.46944695195361e-17 	0.181076436386768 	0.0209592765473686 	1.00255279178039 	0.00257472530430292 	0
8 	1.4770226165126 	3.81639164714898e-17 	0.179583101390803 	0.0199954706467961 	0.936158424361778 	0.00227702051403207 	0
8 	1.5389284023465 	3.81639164714898e-17 	0.178009927567987 	0.0190977781253367 	0.874242980062855 	0.0020194616709186 	0
8 	1.60309846850441 	3.81639164714898e-17 	0.17636371004141 	0.0182611941220407 	0.817018333844518 	0.00179723095321381 	0
8 	1.66961548619803 	4.16333634234434e-17 	0.174651363879869 	0.0174774712233116 	0.764598229101112 	0.00160475844701168 	0
8 	1.73856513284325 	4.16333634234434e-17 	0.172880237846281 	0.0167362839266314 	0.716832889779781 	0.00143661638750189 	0
8 	1.81003620031769 	3.81639164714898e-17 	0.17105867273976 	0.0160253908854476 	0.673114158692898 	0.00128783002376009 	0
8 	1.88412070701905 	3.12250225675825e-17 	0.169193451422571 	0.015332104081986 	0.632697904545149 	0.00115406966395947 	0
8 	1.96091401384792 	2.77555756156289e-17 	0.167289707155358 	0.0146467206428211 	0.595218786132352 	0.00103182874483523 	0
8 	2.04004996790234 	2.08166817117217e-17 	0.165401139940055 	0.0139671377272775 	0.560652367897218 	0.000918902745570656 	0
8 	2.11873460271874 	1.38777878078145e-17 	0.163552474047676 	0.013304426494101 	0.529066329338094 	0.000815766726484006 	0
8 	2.19463865000284 	1.38777878078145e-17 	0.161814777726486 	0.0126705574548285 	0.500627821832562 	0.000722294441796616 	0
8 	2.26786037121375 	1.38777878078145e-17 	0.160190639702028 	0.012069417475095 	0.475456885724688 	0.000636873151304361 	0
8 	2.33849455540975 	1.38777878078145e-17 	0.158672516826303 	0.011504298686577 	0.453560937038495 	0.000558576440826603 	0
8 	2.40663264195736 	1.38777878078145e-17 	0.157258429135532 	0.0109780069241554 	0.43480255261504 	0.000488436059393295 	0
8 	2.47236283890404 	1.38777878078145e-17 	0.155951358034851 	0.0104895052222185 	0.418893072036027 	0.000428374405168144 	0
8 	2.5357702371677 	1.38777878078145e-17 	0.154755170916641 	0.0100308046808882 	0.405367933416377 	0.000375087630915455 	0
8 	2.59693692069107 	1.38777878078145e-17 	0.153657793623158 	0.00959422061331348 	0.393834784664519 	0.000328098894348661 	0
8 	2.65594207270333 	1.38777878078145e-17 	0.152641579892272 	0.00917778383235631 	0.384132144181668 	0.000284905833873367 	0
8 	2.71286207822658 	1.38777878078145e-17 	0.151698986222551 	0.00878213507993981 	0.376204774808165 	0.000244252523934661 	0
8 	2.76777062295999 	1.38777878078145e-17 	0.150825394121819 	0.00840793044533737 	0.370017874091177 	0.000206432736696215 	0
8 	2.82073878866949 	1.38777878078145e-17 	0.150016048806381 	0.00805542452300989 	0.365544483860334 	0.000171836599439245 	0
8 	2.87183514520654 	1.38777878078145e-17 	0.149266387495406 	0.00772454897012962 	0.362768218497594 	0.000140622111253965 	0
8 	2.92112583927514 	6.93889390390723e-18 	0.14857215596468 	0.00741500274601892 	0.361686421004525 	0.000112801534027508 	0
8 	2.96867468006189 	0 	0.1479293856981 	0.00712633585798182 	0.362312999125219 	8.83066993146151e-05 	0
