8 	0.449781918030828 	8.67361737988404e-18 	0.306809908425686 	0.0360716130381099 	1.74716868823152 	0.00451729741359362 	0
8 	0.474081006202548 	1.38777878078145e-17 	0.306723106214855 	0.0370671025467832 	1.75717618860356 	0.0048464209480791 	0
8 	0.499270241132363 	1.56125112837913e-17 	0.306636995149257 	0.038049933838307 	1.77015062496903 	0.0051922224750714 	0
8 	0.525382231502763 	1.38777878078145e-17 	0.306550922364864 	0.0390137022314352 	1.78572635774214 	0.00555334484922552 	0
8 	0.552450780547767 	1.38777878078145e-17 	0.306464101190403 	0.0399506662777606 	1.80350278428523 	0.00592769352781224 	0
8 	0.580510929812849 	2.08166817117217e-17 	0.306375622181583 	0.0408516193130491 	1.82303236946517 	0.00631227593527185 	0
8 	0.60959900451791 	2.25514051876985e-17 	0.306284204921047 	0.04170577813191 	1.84380920727131 	0.00670308474583784 	0
8 	0.639752660582033 	1.73472347597681e-17 	0.306187384262806 	0.042500701666912 	1.86525855696375 	0.00709508690748928 	0
8 	0.671010933370886 	1.82145964977565e-17 	0.306082771580665 	0.0432222535288381 	1.88672803659747 	0.00749043295303486 	0
8 	0.7034142882299 	1.82145964977565e-17 	0.305980033005324 	0.0438547172663373 	1.90748368699627 	0.00795605659169907 	0
8 	0.737004672868606 	2.51534904016637e-17 	0.305914124912722 	0.044381588389169 	1.92668313266644 	0.00844463862888674 	0
8 	0.771825571663976 	3.03576608295941e-17 	0.305877919695046 	0.0447798700314445 	1.94278381934702 	0.008944800175245 	0
8 	0.807922061953053 	3.29597460435593e-17 	0.30581182778312 	0.0450088584451203 	1.95307189718533 	0.00937199388495472 	0
8 	0.845340872387742 	3.81639164714898e-17 	0.305688525101318 	0.0450220781956007 	1.95446186680417 	0.00963216666600001 	0
8 	0.884130443427309 	4.20670442924376e-17 	0.305509537140778 	0.0447835642496106 	1.9445342595788 	0.00970006480379505 	0
7.99999999999999 	0.924340990046897 	4.27175655959289e-17 	0.305282862960973 	0.0442735320137794 	1.92195928788584 	0.00959220057047947 	0
7.99999999999999 	0.966024566743241 	3.4477629085039e-17 	0.305012932961152 	0.043486662696116 	1.88638569924721 	0.00933540809695095 	0
7.99999999999999 	1.00923513492173 	2.86229373536173e-17 	0.304697970669821 	0.0424267077474925 	1.83807213794975 	0.0089493247633703 	0
7.99999999999999 	1.05402863275205 	3.12250225675825e-17 	0.304332888348489 	0.0411103475246463 	1.77794782371876 	0.00844784119060793 	0
7.99999999999999 	1.10046304758287 	3.46944695195361e-17 	0.303912648833539 	0.039569135623675 	1.70761502325974 	0.00784647603434032 	0
8 	1.14859849100923 	3.81639164714898e-17 	0.303431336821498 	0.0378433835605595 	1.62904487335832 	0.00716568557027764 	0
8 	1.19849727668994 	3.81639164714898e-17 	0.30288423449275 	0.0359843042956982 	1.54473364811692 	0.00643317226215459 	0
8 	1.25022400101563 	3.12250225675825e-17 	0.302267813596599 	0.0340579168852889 	1.45882908250323 	0.00568265426849812 	0
8 	1.30384562673185 	2.08166817117217e-17 	0.30158031481768 	0.0321358516828148 	1.37556753883927 	0.0049500824265517 	0
8 	1.35943156962565 	1.04083408558608e-17 	0.300822940866791 	0.0302695320409381 	1.29620626893885 	0.00426630150551174 	0
8 	1.41705378838762 	3.46944695195361e-18 	0.29999910734029 	0.0284885713009327 	1.22068101981888 	0.00365252378256124 	0
7.99999999999999 	1.47678687776592 	3.46944695195361e-18 	0.299112780653257 	0.0268089450940011 	1.14916212590632 	0.0031203456633883 	0
7.99999999999999 	1.53870816513277 	1.04083408558608e-17 	0.298173219145245 	0.0252267764237958 	1.08098739106123 	0.00267202717659797 	0
7.99999999999999 	1.60289781058851 	1.73472347597681e-17 	0.297204435807243 	0.0237141263714265 	1.01393664154193 	0.00228480992524846 	0
7.99999999999999 	1.66943891073266 	2.08166817117217e-17 	0.296204701951989 	0.0222482719485449 	0.947212162543768 	0.00193748198256312 	0
7.99999999999999 	1.73841760623657 	2.42861286636753e-17 	0.295158403037429 	0.0208275735583544 	0.88286334214006 	0.00162163354081941 	0
7.99999999999999 	1.80992319335659 	2.08166817117217e-17 	0.294068981806437 	0.019459078595092 	0.824483585123585 	0.0013335295052098 	0
7.99999999999999 	1.88404823953248 	1.38777878078145e-17 	0.292939610900293 	0.0181439666069339 	0.774600492284917 	0.00107508544096544 	0
7.99999999999999 	1.96088870322037 	1.04083408558608e-17 	0.291853577226623 	0.0169401831571766 	0.735695318579996 	0.000857875030389239 	0
7.99999999999999 	2.02025965173184 	6.93889390390723e-18 	0.290985137194816 	0.0160050956612921 	0.710523799895143 	0.000702566833883989 	0
7.99999999999999 	2.06006301192217 	1.04083408558608e-17 	0.290337713569244 	0.0153273272153546 	0.69558563184645 	0.000598229089626134 	0
7.99999999999999 	2.09845978584128 	1.38777878078145e-17 	0.289785346142686 	0.0147519986972556 	0.685253580815581 	0.000515514245803272 	0
7.99999999999999 	2.13549967996945 	1.73472347597681e-17 	0.289260414643643 	0.0142091377885895 	0.67761194595455 	0.000441997186375074 	0
7.99999999999999 	2.17123064424048 	2.08166817117217e-17 	0.288761827528248 	0.0136958869768422 	0.672487808159131 	0.000376161911945654 	0
7.99999999999999 	2.20569893411515 	2.08166817117217e-17 	0.28828908167784 	0.0132098935905516 	0.669764129036579 	0.000317179459017017 	0
7.99999999999999 	2.23894917046122 	2.08166817117217e-17 	0.287841278118258 	0.0127492179613816 	0.66937188626277 	0.000264389578147427 	0
7.99999999999999 	2.27102439731725 	1.73472347597681e-17 	0.2874174336344 	0.0123122615257251 	0.671284417195572 	0.000217265117856671 	0
7.99999999999999 	2.30196613761521 	1.38777878078145e-17 	0.287016570703017 	0.0118977118574964 	0.675513714818522 	0.000175395388928765 	0
7.99999999999999 	2.33181444693391 	1.04083408558608e-17 	0.286637719511207 	0.0115045011465449 	0.68210840652342 	0.000138471443515153 	0
7.99999999999999 	2.3606079653529 	3.46944695195361e-18 	0.286279921865427 	0.0111317754448465 	0.691153206693628 	0.000106276579811034 	0
7.99999999999999 	2.3883839674739 	0 	0.285942238495289 	0.0107788724614513 	0.702769683611836 	7.86815588958211e-05 	0
7.99999999999999 	2.41517841067461 	-3.46944695195361e-18 	0.285623754737028 	0.010445306068523 	0.717118225523527 	5.56436132072958e-05 	0
7.99999999999999 	2.44102598165722 	-3.46944695195361e-18 	0.285323584377887 	0.0101307560027691 	0.734401126625756 	3.72086913980012e-05 	0
7.99999999999999 	2.46596014135207 	3.46944695195361e-18 	0.285040872217736 	0.0098350614849122 	0.754866736747056 	2.35166268936732e-05 	0
7.99999999999999 	2.49001316823443 	6.93889390390723e-18 	0.28477479562381 	0.00955821762365141 	0.778814624174841 	1.48090241499964e-05 	0
7.99999999999999 	2.51321620011054 	1.04083408558608e-17 	0.284524565233498 	0.00930037351691481 	0.806601684461066 	1.14396830626636e-05 	0
7.99999999999999 	2.535599274427 	1.38777878078145e-17 	0.284289424932435 	0.00906183091128036 	0.838649082771444 	1.38873234735674e-05 	0
7.99999999999999 	2.55719136715571 	1.73472347597681e-17 	0.284068651215981 	0.00884304213210646 	0.875449835844694 	2.27702086783192e-05 	0
7.99999999999999 	2.57802043030465 	2.08166817117217e-17 	0.283861552026492 	0.00864460576045131 	0.917576713906872 	3.88619793616021e-05 	0
7.99999999999999 	2.59811342810315 	2.42861286636753e-17 	0.283667465151148 	0.00846725822936643 	0.965689966651099 	6.3107581872981e-05 	0
7.99999999999999 	2.61749637190832 	2.77555756156289e-17 	0.283485756266393 	0.00831185918438306 	1.02054414991736 	9.66376061067033e-05 	0
7.99999999999999 	2.63619435387806 	2.77555756156289e-17 	0.283315816724628 	0.00817936817548568 	1.08299306188863 	0.000140778668236363 	0
7.99999999999999 	2.65423157945406 	3.12250225675825e-17 	0.28315706119527 	0.00807081013488048 	1.15399152002671 	0.0001970567628047 	0
7.99999999999999 	2.67163139869691 	3.12250225675825e-17 	0.283008925292649 	0.00798722730035759 	1.23459248129759 	0.000267189916411124 	0
7.99999999999999 	2.68841633651388 	2.42861286636753e-17 	0.282870863341881 	0.00792961594472754 	1.32593792047856 	0.000353066223988386 	0
7.99999999999999 	2.7046081218185 	2.08166817117217e-17 	0.282742346443681 	0.00789884762498365 	1.42924205557488 	0.00045670371121751 	0
7.99999999999999 	2.72022771565972 	2.42861286636753e-17 	0.282622860995544 	0.00789557673827989 	1.54576607489413 	0.000580189702968432 	0
7.99999999999999 	2.73529533835694 	2.42861286636753e-17 	0.28251190780966 	0.00792013885737506 	1.67678457237984 	0.000725599631226217 	0
7.99999999999999 	2.74983049567625 	2.08166817117217e-17 	0.282409001898683 	0.00797244726128551 	1.82354543780765 	0.000894898392295143 	0
7.99999999999999 	2.76385200408156 	2.08166817117217e-17 	0.282313672745197 	0.00805189767035307 	1.98722682556346 	0.00108983104730377 	0
7.99999999999999 	2.77737801509343 	2.08166817117217e-17 	0.282225464676375 	0.00815729268115771 	2.16889671210584 	0.00131181316831875 	0
7.99999999999999 	2.79042603878708 	2.08166817117217e-17 	0.28214393895383 	0.00828679708157578 	2.36948198555129 	0.00156183369475468 	0
7.99999999999999 	2.80301296646003 	2.42861286636753e-17 	0.282068683657831 	0.00843793274460184 	2.58975451739781 	0.00184038381375565 	0
7.99999999999999 	2.81515509249872 	2.77555756156289e-17 	0.281999319502684 	0.00860761733712162 	2.83034093977188 	0.00214742461043929 	0
7.99999999999999 	2.82686813547237 	2.77555756156289e-17 	0.281935396221657 	0.00879224536223322 	3.09176091260551 	0.00248663887891786 	0
7.99999999999999 	2.83816725848142 	2.42861286636753e-17 	0.281876245305605 	0.0089878736371267 	3.37482967764584 	0.00286749902900605 	0
7.99999999999999 	2.84906708878691 	1.73472347597681e-17 	0.281821196959454 	0.00919048166094302 	3.68141766339722 	0.00329567288625465 	0
7.99999999999999 	2.85958173674616 	1.73472347597681e-17 	0.281770064883994 	0.00939545970143595 	4.01372313274492 	0.00376938527084593 	0
7.99999999999999 	2.86972481407933 	1.73472347597681e-17 	0.281723134105063 	0.00959604324645791 	4.37169280485346 	0.00427751049555104 	0
7.99999999999999 	2.87950945149043 	1.38777878078145e-17 	0.281680600787849 	0.00978306315932922 	4.75217125037638 	0.00479647980456533 	0
7.99999999999999 	2.88894831566566 	1.38777878078145e-17 	0.281642273991773 	0.0099470336581957 	5.15106502709114 	0.0053048452394956 	0
7.99999999999999 	2.89805362567106 	1.73472347597681e-17 	0.281607766427995 	0.0100801124479853 	5.56574461374749 	0.00579309944759741 	0
7.99999999999999 	2.90683716877067 	1.73472347597681e-17 	0.281576712306431 	0.0101766606270536 	5.99621057973784 	0.00625946678205097 	0
7.99999999999999 	2.91531031568569 	1.73472347597681e-17 	0.281548820187264 	0.0102330059316511 	6.44544044381029 	0.0067064525147805 	0
7.99999999999999 	2.92348403531448 	2.42861286636753e-17 	0.281523857498228 	0.0102468925749555 	6.91941638395967 	0.00713872691048433 	0
7.99999999999999 	2.93136890893229 	2.77555756156289e-17 	0.281501625990795 	0.0102169277212374 	7.42720506477405 	0.00756224665439913 	0
7.99999999999999 	2.93897514388925 	2.77555756156289e-17 	0.281481951815168 	0.0101421318814696 	7.98131935954705 	0.00798441995039578 	0
7.99999999999999 	2.94631258682425 	3.12250225675825e-17 	0.281464720351412 	0.0100215545033258 	8.59853976949528 	0.00841554431379132 	0
7.99999999999999 	2.95339073641193 	3.81639164714898e-17 	0.281449978222855 	0.00985382222612124 	9.30144207013313 	0.00887183140427271 	0
7.99999999999999 	2.96021875565915 	4.16333634234434e-17 	0.281437946025623 	0.0096363445006742 	10.1208922137731 	0.00937048959766521 	0
7.99999999999999 	2.96680548376697 	4.16333634234434e-17 	0.281428702833443 	0.00936445198893129 	11.0992531610167 	0.00992832966416489 	0
7.99999999999999 	2.97315944757337 	4.5102810375397e-17 	0.28142191678176 	0.00903080414680134 	12.2944046023328 	0.0105639292820797 	0
7.99999999999999 	2.97928887259171 	4.85722573273506e-17 	0.28141711546636 	0.00862454320971613 	13.7871537349674 	0.011285806978676 	0
7.99999999999999 	2.98520169365902 	4.85722573273506e-17 	0.281413997716155 	0.00812992542711906 	15.6954884592744 	0.0120866281564137 	0
7.99999999999999 	2.99090556520806 	4.16333634234434e-17 	0.28141235442434 	0.00752452041185514 	18.19917754297 	0.0129282433263369 	0
7.99999999999999 	2.99640787117633 	3.12250225675825e-17 	0.281411940973202 	0.00677750473042887 	21.5839812539933 	0.0136861775410879 	0
7.99999999999999 	3.00171573456492 	2.77555756156289e-17 	0.281412459436793 	0.00585103480661884 	26.3309908671632 	0.0140396998877051 	0
7.99999999999999 	3.00683602665962 	2.77555756156289e-17 	0.281413552451294 	0.00471492715053291 	33.3305728155496 	0.0133382234257585 	0
7.99999999999999 	3.01177537592612 	2.77555756156289e-17 	0.281414820247489 	0.00339658347782049 	44.5259087018021 	0.0108218010019089 	0
7.99999999999999 	3.01654017659085 	3.12250225675825e-17 	0.281415923317172 	0.00205928587130555 	65.2285182401779 	0.00672186028043469 	0
7.99999999999999 	3.02113659691864 	3.46944695195361e-17 	0.281416740075074 	0.000978871521428383 	113.486010912823 	0.00283481996625016 	0
7.99999999999999 	3.02557058719784 	3.46944695195361e-17 	0.281417401968927 	0.000336825644959212 	270.9983801116 	0.000710095607545198 	0
7.99999999999999 	3.02984788744324 	3.46944695195361e-17 	0.28141808173016 	7.49434029788037e-05 	1214.59768439477 	8.80911094451108e-05 	0
