7 	0.00273779077457381 	-3.46944695195361e-18 	-0.00598479712908328 	-5.36055689102506e-05 	-7.0159841387636e-23
7 	0.00831366561724391 	6.93889390390723e-18 	-0.011532573901417 	-0.000121377272752671 	-1.53568815044449e-20
7 	0.0140938010840031 	1.04083408558608e-17 	-0.0101577981744254 	-0.000340467143328068 	1.389430051454e-20
7 	0.0200856798396764 	6.93889390390723e-18 	-0.00286636487078602 	-0.00070213122525629 	-4.98392044895208e-23
7 	0.0262970586610136 	2.08166817117217e-17 	0.00608305469485581 	-0.00114212797338239 	1.28325686079448e-20
7 	0.0327359784782122 	3.12250225675825e-17 	0.013980798857074 	-0.00161900346177268 	-5.85141008422346e-18
7 	0.0394107747842905 	2.08166817117217e-17 	0.0206965976602623 	-0.00213286593414915 	-8.04456448478266e-18
7 	0.0463300884257853 	6.93889390390723e-18 	0.0266146135687367 	-0.00268308354537208 	3.04185324704881e-18
7 	0.0535028767887471 	6.93889390390723e-18 	0.0320316646047637 	-0.00326555836843593 	5.26836432360948e-18
7 	0.0609384253945081 	6.93889390390723e-18 	0.0371368280045781 	-0.00387743130714765 	-4.92674052432997e-23
7 	0.0686463599202388 	0 	0.0420519511458321 	-0.00451743255080085 	-3.96837324433272e-21
7 	0.0766366586598532 	0 	0.046859687722284 	-0.00518511421121268 	3.57286212985141e-18
7 	0.0849196654413917 	-3.46944695195361e-18 	0.0516194397688442 	-0.00588040748255353 	1.5728762270533e-16
7 	0.0935061030176072 	-1.04083408558608e-17 	0.0563763713379032 	-0.00660345561508053 	-1.38841935387462e-16
7 	0.102407086947087 	-1.38777878078145e-17 	0.0611666821484667 	-0.00735454036744725 	-3.84550300158418e-18
7 	0.11163413998388 	-1.38777878078145e-17 	0.0660208293357167 	-0.00813403650014188 	2.72942755376435e-25
7 	0.121199206994262 	-1.38777878078145e-17 	0.0709655847646948 	-0.00894238009300357 	3.03740144262349e-23
7 	0.131114670419936 	-6.93889390390723e-18 	0.0760254073550853 	-0.00978004569255165 	9.81165882011522e-22
7 	0.141393366307709 	0 	0.0812233989106734 	-0.0106475286937957 	1.6841695615273e-23
7 	0.152048600926373 	-3.46944695195361e-18 	0.0865819994355605 	-0.0115453305621569 	0
7 	0.163094167992309 	0 	0.0921235157728451 	-0.0124739454430955 	-3.13252132980067e-23
7 	0.174544366526125 	1.04083408558608e-17 	0.0978705418612079 	-0.0134338472275697 	-8.09432826964006e-23
7 	0.186414019363427 	1.04083408558608e-17 	0.103846307893349 	-0.0144254764063155 	-1.58602382436314e-21
7 	0.198718492343699 	6.93889390390723e-18 	0.11007498283554 	-0.0154492261893306 	-8.83224452976066e-23
7 	0.211473714202121 	6.93889390390723e-18 	0.116581946687481 	-0.0165054274462985 	-1.31571945038786e-21
7 	0.224696197190089 	6.93889390390723e-18 	0.123394043596184 	-0.0175943320634756 	5.85077431602423e-23
7 	0.238403058451124 	0 	0.130539823369486 	-0.0187160943264987 	1.12176318422032e-21
7 	0.25261204217984 	-3.46944695195361e-18 	0.138049776395721 	-0.019870749935379 	-2.39264221817073e-22
7 	0.267341542592663 	-3.46944695195361e-18 	0.145956565052046 	-0.0210581922433129 	-2.68035686648547e-21
7 	0.282610627740032 	-1.04083408558608e-17 	0.154295253107732 	-0.0222781452887603 	-2.7020145405709e-21
7 	0.298439064190913 	-1.38777878078145e-17 	0.163103533219406 	-0.0235301331636587 	-9.00938590422123e-23
7 	0.31484734262158 	-1.04083408558608e-17 	0.172421951242409 	-0.0248134452325826 	1.57457808550286e-22
7 	0.331856704341784 	-1.04083408558608e-17 	0.182294124645745 	-0.0261270966913289 	9.4057659030936e-23
7 	0.349489168792654 	-1.38777878078145e-17 	0.192766950734269 	-0.0274697839330024 	-2.37758816070612e-22
7 	0.367767562051934 	-1.38777878078145e-17 	0.203890798577202 	-0.0288398341814942 	-2.64696564067003e-21
7 	0.386715546383437 	-1.04083408558608e-17 	0.2157196764486 	-0.0302351488630845 	-2.29691001583421e-21
7 	0.406357650868994 	-6.93889390390723e-18 	0.228311364138016 	-0.0316531402117255 	-1.67955054390568e-21
7 	0.426719303162537 	-6.93889390390723e-18 	0.241727496625351 	-0.0330906606276607 	7.7625968333074e-22
7 	0.447826862407422 	-3.46944695195361e-18 	0.256033582280855 	-0.0345439244769257 	7.05846008448817e-21
7 	0.46970765335962 	-3.46944695195361e-18 	0.271298934943725 	-0.0360084229483237 	-1.48490640653874e-22
7 	0.49239000176093 	-6.93889390390723e-18 	0.287596494997322 	-0.0374788337971735 	-9.83037911719426e-21
7 	0.515903271008024 	-1.38777878078145e-17 	0.305002509592015 	-0.0389489205809551 	-5.89181641947002e-21
7 	0.540277900164783 	-2.08166817117217e-17 	0.323596035105078 	-0.0404113901390174 	3.8940871000552e-21
7 	0.565545443367137 	-2.08166817117217e-17 	0.343458217958719 	-0.0418577284524665 	7.48925656268425e-22
7 	0.591738610671419 	-1.73472347597681e-17 	0.36467132917715 	-0.0432784753918648 	7.98198264451559e-22
7 	0.618891310399116 	-1.04083408558608e-17 	0.387317637177094 	-0.0446645355475835 	4.10604289886348e-21
7 	0.647038693032828 	-1.04083408558608e-17 	0.411481792992427 	-0.046004074014789 	-1.40770134439316e-21
7 	0.676217196720269 	-1.38777878078145e-17 	0.437321393595295 	-0.0472642446685064 	8.36614317855882e-21
7 	0.706464594445211 	-1.73472347597681e-17 	0.465254505132808 	-0.0484139995422312 	3.17566461319726e-21
7 	0.737820042926437 	-2.08166817117217e-17 	0.495713216448975 	-0.0494134207825829 	1.30885201157117e-20
7 	0.770324133308009 	-2.08166817117217e-17 	0.528747761167802 	-0.050229011410143 	-4.60699174875958e-21
7 	0.804018943706461 	-2.08166817117217e-17 	0.564141128680067 	-0.0508481583807592 	-1.01056384424172e-22
7 	0.838948093682961 	-2.77555756156289e-17 	0.601578448906536 	-0.0512656999942074 	-2.08310652712772e-20
7 	0.87515680071094 	-3.46944695195361e-17 	0.640737381271325 	-0.051472162719175 	-1.60137670158016e-20
7 	0.912691938712296 	-3.46944695195361e-17 	0.681289489989162 	-0.0514510715227346 	-1.43716416022297e-20
7 	0.951602098737955 	-3.81639164714898e-17 	0.722848152425416 	-0.0511813959699357 	-5.68068317163392e-23
7 	0.991937651871333 	-4.5102810375397e-17 	0.764914247499823 	-0.050641347473906 	5.93288399801459e-21
7 	1.03375081443614 	-4.85722573273506e-17 	0.806857312764748 	-0.0498107221205898 	4.27280582751338e-21
7 	1.07709571559294 	-5.55111512312578e-17 	0.847925600944694 	-0.0486722606124107 	-2.49035069290449e-20
7 	1.12202846741195 	-6.24500451351651e-17 	0.887310740869484 	-0.0472166255840942 	-1.35442647612392e-20
7 	1.16860723751286 	-6.24500451351651e-17 	0.924371750874916 	-0.0454542614404682 	1.43564396653476e-20
7 	1.2168923243656 	-6.93889390390723e-17 	0.958942354805437 	-0.0434116191847126 	-1.04871589393216e-20
7 	1.26694623534961 	-7.63278329429795e-17 	0.991212990530807 	-0.0411095448696671 	-1.41982834986676e-20
7 	1.31883376767273 	-7.63278329429795e-17 	1.02117784362992 	-0.0385771954794734 	-2.77571617517816e-21
7 	1.37262209225426 	-6.59194920871187e-17 	1.04683726603563 	-0.0360380904310759 	-7.52020444584739e-23
7 	1.41220272459524 	-5.55111512312578e-17 	1.0648157548973 	-0.033994166869155 	0
7 	1.43617694926586 	-5.55111512312578e-17 	1.07621702475085 	-0.0325407680829479 	0
7 	1.45930396367274 	-5.55111512312578e-17 	1.0849908170327 	-0.031314417819825 	0
7 	1.48161370685419 	-5.20417042793042e-17 	1.09280458333507 	-0.0301240302464643 	0
7 	1.50313505985141 	-4.16333634234434e-17 	1.09973531859513 	-0.0289715070307458 	0
7 	1.52389588309638 	-3.46944695195361e-17 	1.10585143681855 	-0.0278568854114523 	0
7 	1.54392305247857 	-3.46944695195361e-17 	1.11121295173385 	-0.0267792914203412 	0
7 	1.56324249413703 	-3.46944695195361e-17 	1.11587177973733 	-0.0257375578379314 	0
7 	1.58187921802306 	-3.81639164714898e-17 	1.11987212040326 	-0.0247303277856809 	0
7 	1.59985735027679 	-3.81639164714898e-17 	1.12325086824965 	-0.0237560938749839 	0
7 	1.61720016445966 	-3.46944695195361e-17 	1.12603801991896 	-0.0228132493797936 	0
7 	1.63393011168312 	-3.12250225675825e-17 	1.12825705365071 	-0.0219001330261204 	0
7 	1.65006884967273 	-2.42861286636753e-17 	1.12992526856333 	-0.0210150622980355 	0
7 	1.66563727080512 	-2.42861286636753e-17 	1.13105408004568 	-0.0201563582924896 	0
7 	1.68065552915414 	-2.77555756156289e-17 	1.13164927517256 	-0.01932236502036 	0
7 	1.69514306658136 	-2.77555756156289e-17 	1.13171123900377 	-0.0185114651644279 	0
6.99999999999999 	1.70911863790442 	-3.12250225675825e-17 	1.13123516927105 	-0.0177220939357442 	0
6.99999999999999 	1.7226003351761 	-3.46944695195361e-17 	1.13021130347902 	-0.0169527524546711 	0
6.99999999999999 	1.73560561110536 	-3.46944695195361e-17 	1.1286251887086 	-0.0162020218602713 	0
6.99999999999999 	1.74815130165068 	-3.46944695195361e-17 	1.12645802984048 	-0.0154685790954791 	0
6.99999999999999 	1.76025364781502 	-3.46944695195361e-17 	1.12368715540685 	-0.0147512149981805 	0
6.99999999999999 	1.77192831667064 	-3.81639164714898e-17 	1.1202866401728 	-0.0140488549131579 	0
6.99999999999999 	1.78319042164083 	-4.16333634234434e-17 	1.11622811779299 	-0.0133605815003814 	0
6.99999999999999 	1.79405454206499 	-3.81639164714898e-17 	1.11148180345523 	-0.0126856587537005 	0
6.99999999999999 	1.80453474207227 	-3.46944695195361e-17 	1.10601772404687 	-0.0120235555095014 	0
6.99999999999999 	1.81464458878828 	-3.12250225675825e-17 	1.09980712252154 	-0.0113739660248963 	0
6.99999999999999 	1.8243971698984 	-3.12250225675825e-17 	1.09282396687521 	-0.0107368247018028 	0
6.99999999999999 	1.83380511059041 	-4.16333634234434e-17 	1.08504645844844 	-0.0101123119140579 	0
6.99999999999999 	1.84288058989839 	-4.85722573273506e-17 	1.07645840728249 	-0.00950084831439566 	0
6.99999999999999 	1.85163535646909 	-5.20417042793042e-17 	1.06705033219053 	-0.00890307600286147 	0
6.99999999999999 	1.86008074377113 	-5.55111512312578e-17 	1.05682015554832 	-0.00831982639699649 	0
6.99999999999999 	1.8682276847667 	-5.55111512312578e-17 	1.04577339781345 	-0.00775207629443042 	0
6.99999999999999 	1.8760867260648 	-5.89805981832114e-17 	1.03392282858125 	-0.00720089540978332 	0
7 	1.88366804157438 	-6.24500451351651e-17 	1.0212875889826 	-0.00666739078529558 	0
7 	1.8909814456749 	-6.59194920871187e-17 	1.0078918522774 	-0.00615265291082232 	0
7 	1.89803640592158 	-6.93889390390723e-17 	0.993763125420781 	-0.00565769419364103 	0
7 	1.90484205530155 	-6.93889390390723e-17 	0.978930308670434 	-0.00518335385416361 	0
7 	1.91140720405698 	-6.59194920871187e-17 	0.9634215979766 	-0.00473031449105621 	0
7 	1.91774035109035 	-6.24500451351651e-17 	0.947254534300146 	-0.00429946272135347 	0
7 	1.9238496949667 	-6.24500451351651e-17 	0.930418771219344 	-0.0038918520719792 	0
7 	1.92974314452705 	-6.24500451351651e-17 	0.912888346122688 	-0.00350848985774377 	0
7 	1.9354283291268 	-6.24500451351651e-17 	0.894666750490395 	-0.00315053875905974 	0
7 	1.9409126085123 	-5.89805981832114e-17 	0.875800735646304 	-0.0028188446504839 	0
7 	1.94620308234835 	-5.20417042793042e-17 	0.856347648092342 	-0.00251347542369226 	0
7 	1.95130659940914 	-4.5102810375397e-17 	0.836340762890428 	-0.00223391362217531 	0
7 	1.95622976644424 	-4.16333634234434e-17 	0.815765253916449 	-0.00197894914396597 	0
7 	1.96097895673142 	-4.5102810375397e-17 	0.794543890216659 	-0.00174661755183231 	-2.37383573764086e-15
7 	1.96556031832711 	-4.5102810375397e-17 	0.772549350825956 	-0.00153467623210109 	-2.23828092411231e-15
7 	1.96997978202541 	-4.16333634234434e-17 	0.749629160809301 	-0.00134119531692299 	2.64487675005346e-15
7 	1.97424306903575 	-4.16333634234434e-17 	0.725605840567035 	-0.00116477716296123 	2.50932193652501e-15
7 	1.9783556983893 	-3.81639164714898e-17 	0.700256300372505 	-0.00100429742703831 	0
7 	1.98232299408358 	-3.46944695195361e-17 	0.673292673008134 	-0.000858650523608517 	0
7 	1.98615009197469 	-3.46944695195361e-17 	0.64434338146208 	-0.000726744009302822 	0
7 	1.98984194642589 	-3.46944695195361e-17 	0.612928742634302 	-0.000607528750346663 	0
7 	1.99340333672126 	-3.12250225675825e-17 	0.578432819145476 	-0.000500020704697857 	0
7 	1.99683887325273 	-2.77555756156289e-17 	0.540081471005856 	-0.00040333286817037 	0
7 	2.00015300348844 	-2.77555756156289e-17 	0.496960569493845 	-0.000316741305727184 	0
7 	2.00335001773022 	-2.77555756156289e-17 	0.448163341093432 	-0.000239831661645089 	0
7 	2.00643405466757 	-2.42861286636753e-17 	0.39321452610991 	-0.000172758524642868 	0
7 	2.00940910673542 	-1.73472347597681e-17 	0.332763672762117 	-0.00011639492378818 	0
7 	2.01227902528252 	-1.38777878078145e-17 	0.268959771997281 	-7.18629305102006e-05 	0
7 	2.01504752555717 	-1.38777878078145e-17 	0.204742936321131 	-3.95029552609644e-05 	0
7 	2.01771819151684 	-1.38777878078145e-17 	0.142488647831328 	-1.8304513524359e-05 	0
7 	2.02029448046774 	-1.38777878078145e-17 	0.0833413282574771 	-6.31333363312455e-06 	0
7 	2.02277972754047 	-1.38777878078145e-17 	0.0273051748010413 	-1.17085226813479e-06 	0
