5 	0.00391112967796274 	1.73472347597681e-18 	-0.0362180208700754 	-6.26371396585729e-05 	1.12217751277282e-20
5 	0.0118766651674915 	6.93889390390723e-18 	-0.0878187411922374 	-0.000319738818778803 	-1.4904384531384e-21
5 	0.020134001548576 	0 	-0.108441092808558 	-0.000854734369463679 	-1.54300691327046e-20
5 	0.0286938283423949 	-6.93889390390723e-18 	-0.112075689392334 	-0.00146856961393764 	-9.02308456368527e-21
5 	0.0375672266585909 	1.73472347597681e-18 	-0.110602928733785 	-0.00211886844650297 	-7.50534751105704e-22
5 	0.0467656835403033 	1.04083408558608e-17 	-0.107779069014111 	-0.0028145320921793 	-2.21717320756957e-22
5 	0.0563011068347008 	1.04083408558608e-17 	-0.104470918278572 	-0.00355006504286984 	-2.27497349413337e-21
5 	0.0661858406082649 	3.46944695195361e-18 	-0.100910056609287 	-0.00431983110593801 	-1.82618015755022e-21
5 	0.0764326811267816 	5.20417042793042e-18 	-0.0971690057225795 	-0.00512182318647416 	-2.49803449604101e-21
5 	0.0870548934207257 	1.21430643318376e-17 	-0.0932692392991571 	-0.00595559026246724 	2.25182699720515e-21
5 	0.0980662284574838 	1.21430643318376e-17 	-0.0892122744767889 	-0.00682116759532574 	-3.94222031300735e-21
5 	0.109480940942647 	1.04083408558608e-17 	-0.0849904615904945 	-0.00771881406759887 	-1.24261517261792e-22
5 	0.121313807773416 	1.04083408558608e-17 	-0.0805912295268821 	-0.00864892808025703 	5.84154253574904e-17
5 	0.13358014716801 	1.04083408558608e-17 	-0.0759988826934213 	-0.00961199355928627 	6.13749723206264e-17
5 	0.146295838495839 	8.67361737988404e-18 	-0.0711953721446756 	-0.010608542587035 	-5.01447346210547e-17
5 	0.159477342834115 	8.67361737988404e-18 	-0.0661605957859008 	-0.0116391290317966 	-5.30614640252183e-17
5 	0.173141724277517 	1.21430643318376e-17 	-0.0608724643244376 	-0.0127043077147179 	-1.64309428592734e-21
5 	0.18730667202848 	1.21430643318376e-17 	-0.0553068411941887 	-0.0138046159471433 	1.09891666175516e-21
5 	0.201990523296728 	1.21430643318376e-17 	-0.049437408779324 	-0.0149405556897202 	-2.49943480323542e-21
5 	0.217212287037675 	1.56125112837913e-17 	-0.0432354874751688 	-0.0161125751631625 	-1.12208205036607e-22
5 	0.232991668560441 	2.25514051876985e-17 	-0.0366698217406562 	-0.0173210489944208 	2.20804877662099e-21
5 	0.249349095037321 	3.12250225675825e-17 	-0.0297063412740438 	-0.0185662561026187 	-2.01155388875752e-22
5 	0.266305741947753 	3.46944695195361e-17 	-0.0223079026445181 	-0.0198483545632537 	-2.9205202287713e-22
5 	0.283883560490998 	2.60208521396521e-17 	-0.0144340156760527 	-0.0211673525994668 	-3.81004064186466e-22
5 	0.30210530600303 	1.73472347597681e-17 	-0.00604055891820064 	-0.0225230746541847 	-4.82836835993873e-21
5 	0.320994567414413 	2.25514051876985e-17 	0.00292051031263776 	-0.0239151222327947 	1.82605921956438e-22
5 	0.340575797787321 	2.42861286636753e-17 	0.012501442560175 	-0.0253428288312879 	2.74001581421289e-21
5 	0.360874345971201 	2.60208521396521e-17 	0.0227589809029686 	-0.0268052044041785 	-2.23769473058698e-21
5 	0.38191648941809 	2.42861286636753e-17 	0.0337546162693621 	-0.0283008720738652 	7.86006701827423e-25
5 	0.403729468200045 	1.73472347597681e-17 	0.0455548073204594 	-0.0298279953413786 	-1.07064706332443e-24
5 	0.426341520272733 	2.08166817117217e-17 	0.0582311426171472 	-0.0313841941489434 	4.65950029367447e-21
5 	0.449781918030829 	1.90819582357449e-17 	0.0718604175672715 	-0.0329664301583491 	-6.6684976980268e-21
4.99999999999999 	0.474081006202548 	1.56125112837913e-17 	0.0865245883262015 	-0.034570821090969 	-1.15208523669686e-21
5 	0.499270241132363 	1.56125112837913e-17 	0.102310562316607 	-0.0361926632057819 	-5.98270936344133e-21
5 	0.525382231502762 	1.56125112837913e-17 	0.119309878923529 	-0.0378276226645349 	-3.22755701377125e-22
5 	0.552450780547767 	2.25514051876985e-17 	0.137623476487406 	-0.0394705728501639 	-6.43481392531052e-22
5 	0.580510929812849 	3.20923843055709e-17 	0.157424592475367 	-0.0410965352183031 	-6.36118084890313e-21
5 	0.60959900451791 	3.98986399474666e-17 	0.17919155616417 	-0.0426895586985519 	1.46843196375335e-20
5 	0.639752660582032 	3.90312782094782e-17 	0.203473349984484 	-0.0442245056551123 	1.25774109050919e-21
5 	0.671010933370886 	3.72965547335014e-17 	0.230407962144809 	-0.0456696405048115 	9.30537173562168e-22
4.99999999999999 	0.7034142882299 	3.29597460435593e-17 	0.259855661490139 	-0.0470071781703127 	6.12904027275683e-22
4.99999999999999 	0.737004672868605 	2.68882138776405e-17 	0.291578960858425 	-0.0482222250425232 	1.88220386460663e-20
4.99999999999999 	0.771825571663975 	3.12250225675825e-17 	0.325356808464551 	-0.0492973893327455 	1.42269046431187e-21
4.99999999999999 	0.807922061953053 	2.68882138776405e-17 	0.361009888276899 	-0.0502115294123594 	-1.90855502037757e-20
4.99999999999999 	0.845340872387742 	1.21430643318376e-17 	0.39836268796819 	-0.0509409609415218 	1.92285426957933e-20
5 	0.884130443427308 	1.30104260698261e-18 	0.437184816133633 	-0.0514623020190905 	2.12953715031005e-20
5 	0.924340990046897 	3.90312782094782e-18 	0.477145013152361 	-0.0517558062452451 	-1.87720418368553e-20
5 	0.966024566743241 	6.93889390390723e-18 	0.517794758605904 	-0.0518082461417418 	4.3916524025525e-20
5 	1.00923513492173 	6.50521303491303e-18 	0.558584610600641 	-0.051614935147038 	4.94970770348875e-24
5 	1.05402863275205 	1.2793585635329e-17 	0.598908408372956 	-0.0511808516186569 	-4.69418660287111e-22
5 	1.10046304758287 	1.99493199737333e-17 	0.638166767284769 	-0.0505208657801744 	-4.37114178497312e-20
5 	1.14859849100923 	2.71050543121376e-17 	0.675838059971169 	-0.0496588354964583 	-4.27262743387273e-20
5 	1.19849727668994 	2.82976767018717e-17 	0.711540086749048 	-0.0486249267400507 	4.20026661657573e-20
5 	1.25022400101563 	2.35271871429354e-17 	0.745059617288917 	-0.0474509733181224 	4.04798810834338e-20
5 	1.30384562673185 	2.42861286636753e-17 	0.776347192194727 	-0.0461649890696714 	-2.56801585814185e-22
5 	1.35943156962565 	3.12250225675825e-17 	0.805543618071615 	-0.0447913733575914 	-3.47539339341547e-20
5 	1.41705378838762 	3.12250225675825e-17 	0.832847871537794 	-0.0433439150591606 	3.4955838132555e-20
5 	1.47678687776592 	2.08166817117217e-17 	0.858469400864867 	-0.0418310259100028 	-2.82799511752645e-20
5 	1.53870816513277 	1.73472347597681e-17 	0.882593431996424 	-0.040252972706696 	1.5388960062628e-21
5 	1.60289781058851 	2.08166817117217e-17 	0.905378603387275 	-0.038580295218862 	5.6079281911625e-20
5 	1.66943891073266 	2.08166817117217e-17 	0.926896972542907 	-0.0368198811733864 	5.44562746823984e-20
5 	1.73841760623657 	2.42861286636753e-17 	0.947152473568574 	-0.0349777924974396 	4.64204407873883e-21
5 	1.80992319335659 	3.46944695195361e-17 	0.966191874619398 	-0.0330759722063987 	4.40851708545505e-20
5 	1.88404823953248 	4.5102810375397e-17 	0.984087413449668 	-0.031115370816604 	-1.81633535485814e-21
5 	1.96088870322037 	5.20417042793042e-17 	1.0005878580744 	-0.0291386069030075 	-3.9364329602963e-21
5 	2.02024009608345 	5.55111512312578e-17 	1.01234634666281 	-0.0275847463308235 	-2.09280812175087e-21
5 	2.06000503604194 	5.55111512312578e-17 	1.02004779411994 	-0.0265107470761329 	0
5 	2.09836474743796 	5.55111512312578e-17 	1.02682019819447 	-0.0255099629431153 	0
5 	2.13536888877257 	5.55111512312578e-17 	1.03299615045172 	-0.0245455987083535 	0
5 	2.17106536369584 	5.20417042793042e-17 	1.03862315516589 	-0.0236165443321356 	0
5 	2.20550038302044 	5.20417042793042e-17 	1.04374284229904 	-0.0227214527863635 	0
5 	2.23871852454378 	5.55111512312578e-17 	1.04839182578562 	-0.0218590893850958 	0
5 	2.27076279075613 	5.89805981832114e-17 	1.05260235166068 	-0.0210282849999437 	0
5 	2.3016746645094 	6.24500451351651e-17 	1.05640279884356 	-0.0202279078133262 	0
5 	2.33149416271872 	5.89805981832114e-17 	1.05981807186162 	-0.0194568548901978 	0
5 	2.36025988816626 	4.85722573273506e-17 	1.06286991345735 	-0.0187140466932925 	0
5 	2.38800907947441 	3.46944695195361e-17 	1.06557715624009 	-0.0179984234372571 	0
5 	2.41477765931295 	3.46944695195361e-17 	1.06795592647581 	-0.0173089430780814 	0
5 	2.44060028090272 	4.16333634234434e-17 	1.07001980909661 	-0.0166445803435839 	0
5 	2.46551037287586 	4.16333634234434e-17 	1.07177998036794 	-0.0160043263505009 	0
5 	2.48954018255081 	4.16333634234434e-17 	1.07324531292866 	-0.0153871885087763 	0
5 	2.512720817678 	3.46944695195361e-17 	1.07442245682426 	-0.0147921905113635 	0
5 	2.53508228671037 	2.77555756156289e-17 	1.07531589949362 	-0.0142183722759546 	0
5 	2.55665353765073 	2.77555756156289e-17 	1.07592800732062 	-0.0136647897543615 	0
5 	2.57746249552636 	3.46944695195361e-17 	1.07625905124518 	-0.0131305145612526 	0
5 	2.59753609853934 	4.16333634234434e-17 	1.07630721899162 	-0.0126146334015374 	0
5 	2.61690033293929 	4.5102810375397e-17 	1.0760686166812 	-0.0121162472990544 	0
5 	2.63558026666389 	4.16333634234434e-17 	1.07553726291697 	-0.0116344706516086 	0
5 	2.65360008179049 	3.46944695195361e-17 	1.07470507882934 	-0.011168430161368 	0
5 	2.67098310584102 	3.81639164714898e-17 	1.07356187800218 	-0.0107172637170323 	0
5 	2.68775184198056 	4.16333634234434e-17 	1.07209536060203 	-0.0102801193360849 	0
5 	2.70392799814879 	4.16333634234434e-17 	1.07029111632586 	-0.00985615431191666 	0
5 	2.71953251516198 	4.16333634234434e-17 	1.06813264087111 	-0.00944453475035575 	0
5 	2.73458559382185 	4.16333634234434e-17 	1.06560137041107 	-0.00904443572010982 	0
5 	2.74910672106653 	3.81639164714898e-17 	1.0626767379327 	-0.00865504227664365 	0
5 	2.76311469519732 	3.12250225675825e-17 	1.05933625419265 	-0.00827555164176681 	0
5 	2.776627650214 	3.46944695195361e-17 	1.0555556144512 	-0.00790517682257559 	0
5 	2.78966307929018 	3.81639164714898e-17 	1.05130883009887 	-0.00754315192364085 	0
5 	2.80223785741904 	4.16333634234434e-17 	1.04656838190608 	-0.00718873933696244 	0
5 	2.81436826325886 	4.16333634234434e-17 	1.04130538905186 	-0.00684123888060984 	0
5 	2.82607000020647 	3.46944695195361e-17 	1.03548978545484 	-0.00649999880290378 	0
5 	2.83735821672613 	3.46944695195361e-17 	1.02909049228478 	-0.00616442838975918 	0
5 	2.8482475259599 	4.16333634234434e-17 	1.02207557279015 	-0.00583401171461072 	0
5 	2.85875202464506 	4.16333634234434e-17 	1.01441235253064 	-0.00550832185412136 	0
5 	2.86888531136304 	3.81639164714898e-17 	1.00606748459581 	-0.00518703508938978 	0
5 	2.87866050414343 	4.85722573273506e-17 	0.997006935763064 	-0.0048699461091971 	0
5 	2.88809025744591 	4.85722573273506e-17 	0.987195867254293 	-0.00455698092357288 	0
5 	2.89718677854204 	4.5102810375397e-17 	0.976598381272529 	-0.00424818389739996 	0
5 	2.90596184331818 	4.85722573273506e-17 	0.965176412646122 	-0.00394369674018212 	0
5 	2.91442681151997 	4.85722573273506e-17 	0.952876901966203 	-0.00364412960634451 	0
5 	2.922592641458 	4.85722573273506e-17 	0.939549566432447 	-0.00334858603170035 	0
5 	2.93046990419394 	4.16333634234434e-17 	0.925010766456826 	-0.00305583633906377 	0
5 	2.93806879722526 	3.81639164714898e-17 	0.909184235562929 	-0.00276688101099943 	0
5 	2.94539915768638 	4.85722573273506e-17 	0.892051722120038 	-0.00248334855501329 	0
5 	2.95247047508334 	4.85722573273506e-17 	0.873606625440108 	-0.00220734925983527 	0
5 	2.9592919035784 	4.16333634234434e-17 	0.85382501317191 	-0.00194114571033623 	0
5 	2.96587227384055 	4.5102810375397e-17 	0.832646233496402 	-0.00168687906730169 	0
5 	2.97222010447726 	5.20417042793042e-17 	0.809956093739038 	-0.00144646455076503 	0
5 	2.97834361306218 	5.55111512312578e-17 	0.785566418886257 	-0.00122157238690536 	0
5 	2.98425072677325 	5.55111512312578e-17 	0.759184733905199 	-0.00101362837915305 	0
5 	2.98994909265477 	5.55111512312578e-17 	0.730366134294952 	-0.0008238123832807 	0
5 	2.99544608751689 	5.55111512312578e-17 	0.698435193809345 	-0.000653052637907856 	0
5 	3.00074882748522 	4.85722573273506e-17 	0.662357620730709 	-0.000502014713578337 	0
5 	3.00586417721304 	4.16333634234434e-17 	0.620526369981488 	-0.000371084610312124 	0
5 	3.01079875876789 	4.16333634234434e-17 	0.570398699758956 	-0.000260403917514558 	0
5 	3.01555896020417 	4.16333634234434e-17 	0.507843878399564 	-0.000169976130662752 	0
5 	3.02015094383281 	4.16333634234434e-17 	0.426132322864837 	-9.823467575032e-05 	0
5 	3.02458065419861 	4.85722573273506e-17 	0.318476435713536 	-4.49290573530632e-05 	0
5 	3.02885382577582 	4.85722573273506e-17 	0.191264833838818 	-1.24345194945298e-05 	0
5 	3.03297599039165 	3.98986399474666e-17 	0.0625072608443649 	-5.28979534630539e-07 	0
