/*--------------------------------*- C++ -*----------------------------------*\
  =========                 |
  \\      /  F ield         | OpenFOAM: The Open Source CFD Toolbox
   \\    /   O peration     | Website:  https://openfoam.org
    \\  /    A nd           | Version:  7
     \\/     M anipulation  |
\*---------------------------------------------------------------------------*/
FoamFile
{
    version     2.0;
    format      ascii;
    class       volVectorField;
    location    "20000";
    object      C;
}
// * * * * * * * * * * * * * * * * * * * * * * * * * * * * * * * * * * * * * //

dimensions      [0 1 0 0 0 0 0];

internalField   nonuniform List<vector> 
15600
(
(0.0459696473015551 0.9999912569191 1.9606302401165e-18)
(0.132511924311751 0.976966159443465 4.28465531445943e-18)
(0.202675470262047 0.920553807936117 2.80975834292408e-17)
(0.257416785782307 0.846700342265985 2.96882509255082e-18)
(0.305936471752424 0.768505718963588 0)
(0.352741203463249 0.689312944409038 9.22711468570567e-20)
(0.400102965220869 0.610470274697217 4.79375066315208e-18)
(0.448671985301225 0.532341985167283 -9.31122561921053e-20)
(0.498174394619873 0.454780756579694 -1.14641557442395e-15)
(0.548278179985229 0.377590101001895 -1.14505738378448e-15)
(0.599246601146621 0.300973685149338 -1.17335577427679e-17)
(0.652373648120213 0.225870993372555 -5.90245557675926e-18)
(0.709890339099005 0.154180660105066 5.33486344476747e-18)
(0.774839298844804 0.0894465823630215 2.33270662772012e-18)
(0.850163081687666 0.0380296860389687 -2.05829740381952e-18)
(0.936019774756279 0.0102966929331975 -3.98788897470424e-18)
(1.02739652766098 0.00391090191792224 0)
(1.11953683736992 0.00391090191792225 0)
(1.21167714707887 0.00391090191792213 0)
(1.30381745678781 0.00391090191792213 0)
(1.39595776649676 0.00391090191792204 0)
(1.4880980762057 0.00391090191792224 0)
(1.58023838591464 0.00391090191792215 4.01376680808357e-18)
(1.67237869562359 0.00391090191792225 -2.05507016742668e-18)
(1.76451900533253 0.00391090191792212 0)
(1.85665931504147 0.00391090191792232 -2.05507016742673e-18)
(1.94879962475042 0.00391090191792225 -2.28430440058924e-16)
(2.04093993445936 0.00391090191792218 -2.33148661542057e-16)
(2.13308024416831 0.00391090191792237 0)
(2.22522055387725 0.00391090191792218 -2.05507016742674e-18)
(2.31736086358619 0.00391090191792222 9.63735267699758e-20)
(2.40950117329513 0.00391090191792217 -2.38320296788982e-16)
(2.50164148300407 0.00391090191792214 -2.43884065642562e-16)
(2.59378179271302 0.00391090191792222 9.63735267699755e-20)
(2.68592210242196 0.00391090191792213 9.63735267699746e-20)
(2.7780624121309 0.00391090191792224 9.6373526769976e-20)
(2.87020272183985 0.00391090191792207 9.63735267699779e-20)
(2.96234303154879 0.00391090191792219 9.63735267699735e-20)
(3.05448334125773 0.00391090191792225 2.36457973675091e-16)
(3.14662365096667 0.00391090191792228 2.31803401926696e-16)
(3.23876396067562 0.0039109019179223 0)
(3.33090427038456 0.00391090191792228 4.11014033485365e-18)
(3.4230445800935 0.00391090191792223 6.16521050228013e-18)
(3.51518488980244 0.0039109019179223 -2.0550701674266e-18)
(3.60732519951139 0.00391090191792225 0)
(3.69946550922033 0.00391090191792222 0)
(3.79160581892928 0.00391090191792216 -2.38416670315752e-16)
(3.88374612863822 0.00391090191792214 -2.38905558440892e-16)
(3.97588643834717 0.0039109019179222 -1.95869664065688e-18)
(4.06802674805611 0.00391090191792204 0)
(4.16016705776505 0.00391090191792217 9.63735267699759e-20)
(4.25230736747399 0.00391090191792225 0)
(4.34444767718294 0.00391090191792219 -2.32540580393779e-16)
(4.43658798689188 0.00391090191792225 -2.32387900105471e-16)
(4.52872829660082 0.00391090191792236 0)
(4.62086860630976 0.00391090191792236 -2.05507016742683e-18)
(4.71300891601871 0.00391090191792212 0)
(4.80514922572765 0.00391090191792221 -9.63735267699764e-20)
(4.89728953543659 0.00391090191792212 -4.01376680808355e-18)
(4.98942984514554 0.00391090191792214 -9.63735267699766e-20)
(5.08157015485448 0.00391090191792212 0)
(5.17371046456342 0.00391090191792209 0)
(5.26585077427236 0.00391090191792221 -1.9586966406568e-18)
(5.35799108398131 0.00391090191792212 4.01376680808356e-18)
(5.45013139369025 0.00391090191792237 0)
(5.54227170339919 0.00391090191792224 0)
(5.63441201310813 0.00391090191792228 -4.01376680808327e-18)
(5.72655232281708 0.00391090191792228 2.1514436941968e-18)
(5.81869263252602 0.00391090191792223 0)
(5.91083294223496 0.00391090191792226 0)
(6.0029732519439 0.00391090191792207 2.05507016742677e-18)
(6.09511356165284 0.00391090191792227 -4.11014033485355e-18)
(6.18725387136179 0.00391090191792213 2.32347833340251e-16)
(6.27939418107073 0.00391090191792226 4.72319864777218e-16)
(6.37153449077967 0.00391090191792207 2.33889145182791e-16)
(6.46367480048862 0.00391090191792213 0)
(6.55581511019756 0.00391090191792237 0)
(6.6479554199065 0.00391090191792224 0)
(6.74009572961544 0.00391090191792228 -2.05507016742683e-18)
(6.83223603932439 0.00391090191792222 2.34402903507665e-16)
(6.92437634903333 0.00391090191792226 2.33879678213474e-16)
(7.01651665874227 0.00391090191792224 -4.01376680808328e-18)
(7.10865696845121 0.00391090191792215 4.01376680808381e-18)
(7.20079727816016 0.00391090191792214 9.63735267699745e-20)
(7.2929375878691 0.0039109019179222 -2.05507016742688e-18)
(7.38507789757804 0.00391090191792223 0)
(7.47721820728699 0.00391090191792215 0)
(7.56935851699592 0.00391090191792219 0)
(7.66149882670487 0.00391090191792224 -2.05507016742662e-18)
(7.75363913641381 0.00391090191792217 -2.05507016742673e-18)
(7.84577944612276 0.00391090191792226 -9.63735267699744e-20)
(7.9379197558317 0.00391090191792234 -9.63735267699754e-20)
(8.03006006554065 0.00391090191792217 0)
(8.12220037524959 0.00391090191792233 0)
(8.21434068495853 0.00391090191792211 9.6373526769978e-20)
(8.30648099466747 0.00391090191792208 9.63735267699752e-20)
(8.39862130437641 0.00391090191792206 0)
(8.49076161408535 0.00391090191792223 4.84475380140615e-16)
(8.5829019237943 0.00391090191792218 4.7417103716849e-16)
(8.67504223350324 0.00391090191792219 -4.11014033485375e-18)
(8.76718254321218 0.00391090191792219 2.05507016742665e-18)
(8.85932285292113 0.00391090191792218 4.0137668080835e-18)
(8.95146316263007 0.00391090191792224 -1.95869664065687e-18)
(9.04360347233901 0.00391090191792224 0)
(9.13499189702863 0.010227404880518 0)
(9.22088855248932 0.0378370722588685 0)
(9.29626585249031 0.0891711761974962 -6.89583632206355e-18)
(9.36125674467439 0.153861042146189 9.82148925538733e-20)
(9.41880023890713 0.225528474392028 -5.99355413629752e-18)
(9.47194147416664 0.300620260186265 0)
(9.5229158626151 0.377232111557652 3.47065775773034e-18)
(9.57302231816132 0.454421058348912 -3.7416789224723e-18)
(9.62252825186019 0.531980259009971 8.45320906901196e-18)
(9.67110230435732 0.610105233708324 -6.90879681292237e-18)
(9.71846925180857 0.688944687341793 1.05014289634548e-17)
(9.7652729042203 0.768138351447382 1.00827454670378e-19)
(9.81377687178828 0.846343022557805 -4.35192830016528e-18)
(9.86847126987274 0.920233145688535 0)
(9.93854719163773 0.976777783964202 4.3840008518762e-18)
(10.0250339931186 0.999949441660118 2.05726575459115e-18)
(0.0459537661013232 1.00398185423316 9.63886113849178e-20)
(0.132486630183469 0.981048679417645 2.11185412905484e-18)
(0.202705773968303 0.924862313126572 5.37661254516148e-18)
(0.257563648714397 0.851304352057915 0)
(0.306224600647585 0.773421878255923 -3.10652949799933e-18)
(0.353177377176328 0.694544837257351 5.14836641789359e-18)
(0.400684930177244 0.616016434370878 0)
(0.449394934521812 0.538199676650767 -8.04833701633652e-18)
(0.499034618720148 0.460947801260662 1.18480901486686e-15)
(0.549273292200501 0.384065071008784 1.03896033711911e-15)
(0.600373142220721 0.307754273832021 1.44928294388561e-17)
(0.653622981151634 0.232951127413443 -2.69910025227831e-18)
(0.71124491172738 0.161546707018923 -1.90874297652851e-19)
(0.776269400372228 0.0970708147378038 -9.38239739485972e-18)
(0.851627225149447 0.0458590400071483 -6.34184554060031e-18)
(0.937475781257867 0.0182367242475906 2.07036787383664e-18)
(1.02882261892836 0.0118764203276543 0)
(1.12093014493 0.0118764203276542 -2.08291456813245e-18)
(1.21303767093165 0.0118764203276543 2.08291456813241e-18)
(1.3051451969333 0.0118764203276541 1.92762572515817e-19)
(1.39725272293494 0.0118764203276542 0)
(1.48936024893659 0.0118764203276542 -1.92762572515815e-19)
(1.58146777493824 0.0118764203276543 0)
(1.67357530093989 0.0118764203276544 4.16582913626448e-18)
(1.76568282694154 0.0118764203276543 0)
(1.85779035294319 0.0118764203276543 0)
(1.94989787894484 0.0118764203276542 2.27316185807653e-16)
(2.04200540494648 0.0118764203276542 2.22577623147618e-16)
(2.13411293094813 0.0118764203276543 0)
(2.22622045694978 0.0118764203276543 0)
(2.31832798295142 0.0118764203276542 0)
(2.41043550895307 0.0118764203276541 2.33564929512044e-16)
(2.50254303495471 0.0118764203276542 2.36958843326869e-16)
(2.59465056095636 0.0118764203276542 2.08291456813244e-18)
(2.68675808695801 0.0118764203276542 4.16582913626506e-18)
(2.77886561295966 0.0118764203276542 0)
(2.8709731389613 0.0118764203276542 -1.92762572515813e-19)
(2.96308066496295 0.0118764203276544 0)
(3.05518819096459 0.0118764203276544 -2.23728644388914e-16)
(3.14729571696624 0.0118764203276543 -2.24995783634059e-16)
(3.23940324296789 0.0118764203276542 -2.08291456813245e-18)
(3.33151076896953 0.0118764203276543 -2.27567714064837e-18)
(3.42361829497118 0.0118764203276544 6.05598113188159e-18)
(3.51572582097283 0.0118764203276542 0)
(3.60783334697448 0.0118764203276542 0)
(3.69994087297613 0.0118764203276543 0)
(3.79204839897777 0.0118764203276542 2.35262318935129e-16)
(3.88415592497942 0.0118764203276541 2.35596761565456e-16)
(3.97626345098107 0.0118764203276542 -1.92762572515816e-19)
(4.06837097698272 0.0118764203276542 -2.08291456813239e-18)
(4.16047850298436 0.0118764203276541 0)
(4.25258602898601 0.0118764203276543 -2.08291456813252e-18)
(4.34469355498766 0.0118764203276544 2.22031254965809e-16)
(4.43680108098931 0.0118764203276543 2.19724888531443e-16)
(4.52890860699095 0.0118764203276542 0)
(4.6210161329926 0.0118764203276543 -6.05598113188187e-18)
(4.71312365899424 0.0118764203276543 0)
(4.80523118499589 0.0118764203276541 1.92762572515821e-19)
(4.89733871099754 0.0118764203276542 0)
(4.98944623699918 0.0118764203276542 -1.89015199561649e-18)
(5.08155376300083 0.0118764203276541 -6.05598113188165e-18)
(5.17366128900247 0.0118764203276542 -3.78030399123337e-18)
(5.26576881500412 0.0118764203276541 -2.08291456813228e-18)
(5.35787634100577 0.0118764203276542 4.16582913626506e-18)
(5.44998386700742 0.0118764203276542 -1.92762572515822e-19)
(5.54209139300906 0.0118764203276543 -3.58754141871768e-18)
(5.63419891901071 0.0118764203276544 0)
(5.72630644501236 0.0118764203276544 0)
(5.818413971014 0.0118764203276544 3.78030399123344e-18)
(5.91052149701565 0.0118764203276542 -1.92762572515812e-19)
(6.0026290230173 0.0118764203276541 -5.86321855936584e-18)
(6.09473654901894 0.0118764203276541 0)
(6.18684407502059 0.0118764203276542 -2.15589748688928e-16)
(6.27895160102223 0.0118764203276542 -4.50178758815984e-16)
(6.37105912702388 0.0118764203276542 -2.25124792034744e-16)
(6.46316665302552 0.0118764203276542 6.05598113188175e-18)
(6.55527417902718 0.0118764203276543 0)
(6.64738170502882 0.0118764203276543 -5.86321855936605e-18)
(6.73948923103047 0.0118764203276543 0)
(6.83159675703211 0.0118764203276542 -2.25811558957066e-16)
(6.92370428303376 0.0118764203276544 -2.23127165211239e-16)
(7.01581180903541 0.0118764203276543 0)
(7.10791933503705 0.0118764203276543 0)
(7.2000268610387 0.0118764203276542 -2.08291456813237e-18)
(7.29213438704035 0.0118764203276543 0)
(7.384241913042 0.0118764203276542 2.08291456813244e-18)
(7.47634943904364 0.0118764203276542 2.08291456813254e-18)
(7.56845696504528 0.0118764203276543 2.27567714064821e-18)
(7.66056449104693 0.0118764203276542 -3.78030399123327e-18)
(7.75267201704858 0.0118764203276542 -1.92762572515817e-19)
(7.84477954305023 0.0118764203276543 4.16582913626468e-18)
(7.93688706905188 0.0118764203276543 1.92762572515816e-19)
(8.02899459505353 0.0118764203276542 0)
(8.12110212105517 0.0118764203276542 6.05598113188143e-18)
(8.21320964705682 0.0118764203276542 -6.24874370439764e-18)
(8.30531717305847 0.0118764203276542 0)
(8.39742469906011 0.0118764203276543 -6.05598113188139e-18)
(8.48953222506176 0.0118764203276542 -4.50466542479023e-16)
(8.5816397510634 0.0118764203276541 -4.59163629395206e-16)
(8.67374727706505 0.0118764203276543 3.97306656374902e-18)
(8.7658548030667 0.0118764203276541 0)
(8.85796232906835 0.0118764203276543 0)
(8.95006985506999 0.0118764203276543 -1.92762572515806e-19)
(9.04217738107164 0.0118764203276542 5.86321855936569e-18)
(9.133535845893 0.0181677127518496 0)
(9.21942420459775 0.0456671947662843 1.79136106513167e-18)
(9.294835332405 0.0967965071003287 0)
(9.3599015858893 0.161228363715492 1.94566859106456e-19)
(9.41755021254506 0.232609974451181 1.24914450468201e-18)
(9.47081418302469 0.307402258514057 -3.37222594314712e-18)
(9.52191997641885 0.383708509569463 -1.95428234118919e-19)
(9.57216130944728 0.460589537729788 5.74507299705718e-18)
(9.62180450402803 0.537839392936334 -6.03349796340262e-18)
(9.67051952078347 0.615652848556128 4.63067981795349e-18)
(9.71803223874983 0.694178047678776 -2.28176871108935e-18)
(9.76498394001305 0.773055975789933 0)
(9.81362923591509 0.850948459826928 -5.51655076054597e-18)
(9.86844037944703 0.924542935626692 5.1837078436961e-18)
(9.93857224444246 0.980861056883237 0)
(10.025049857465 1.0039402058325 0)
(0.0459373031275091 1.00811863849639 1.72940160353357e-18)
(0.132460409457609 0.985280753986612 -2.22776966078335e-18)
(0.202737187726992 0.929328642797629 3.15532095307884e-18)
(0.25771589104173 0.856077000647986 -1.11857848428094e-17)
(0.30652328331024 0.77851810974169 5.06567074180032e-18)
(0.353629527830015 0.699968373111179 -2.38661641075865e-18)
(0.401288213028107 0.621765754811261 6.78503069844468e-18)
(0.450144366502346 0.544271944529089 -6.00209583406918e-18)
(0.499926354518191 0.467340756896742 5.53668257228357e-18)
(0.550304857582025 0.390777233519704 1.89945229031356e-19)
(0.601540951258546 0.314783252115597 5.93417519510864e-18)
(0.654918080607549 0.240290625780621 7.15230994321473e-18)
(0.712649106233006 0.169182593340531 -5.14942997458125e-18)
(0.777751890714734 0.104974345115106 9.06299075845332e-18)
(0.85314500441969 0.0539752058491509 -2.10819457328582e-18)
(0.938985125412192 0.026467621456126 -3.81697019067866e-18)
(1.03030095197717 0.0201337383446564 0)
(1.12237449331102 0.0201337383446564 1.92763146983502e-19)
(1.21444803464488 0.0201337383446564 0)
(1.30652157597874 0.0201337383446565 0)
(1.3985951173126 0.0201337383446565 -1.92763146983501e-19)
(1.49066865864646 0.0201337383446564 1.82403009498485e-18)
(1.58274219998032 0.0201337383446566 0)
(1.67481574131418 0.0201337383446565 0)
(1.76688928264804 0.0201337383446566 -4.03358648393695e-18)
(1.8589628239819 0.0201337383446564 -2.01679324196835e-18)
(1.95103636531576 0.0201337383446564 -1.92763146983502e-19)
(2.04310990664961 0.0201337383446565 -1.82403009498494e-18)
(2.13518344798347 0.0201337383446564 -1.92763146983507e-19)
(2.22725698931733 0.0201337383446565 0)
(2.31933053065119 0.0201337383446565 -2.01679324196852e-18)
(2.41140407198504 0.0201337383446565 -3.84082333695353e-18)
(2.5034776133189 0.0201337383446565 -5.85761657892148e-18)
(2.59555115465276 0.0201337383446564 0)
(2.68762469598662 0.0201337383446565 0)
(2.77969823732048 0.0201337383446564 3.8408233369534e-18)
(2.87177177865434 0.0201337383446566 0)
(2.96384531998819 0.0201337383446566 0)
(3.05591886132205 0.0201337383446566 -3.84082333695335e-18)
(3.14799240265591 0.0201337383446565 1.92763146983502e-19)
(3.24006594398977 0.0201337383446565 0)
(3.33213948532362 0.0201337383446564 2.01679324196858e-18)
(3.42421302665748 0.0201337383446564 1.82403009498485e-18)
(3.51628656799134 0.0201337383446564 0)
(3.6083601093252 0.0201337383446563 -3.84082333695321e-18)
(3.70043365065906 0.0201337383446565 -2.0167932419686e-18)
(3.79250719199292 0.0201337383446565 0)
(3.88458073332678 0.0201337383446565 0)
(3.97665427466064 0.0201337383446564 -1.92763146983502e-19)
(4.0687278159945 0.0201337383446564 -4.0335864839367e-18)
(4.16080135732836 0.0201337383446564 0)
(4.25287489866221 0.0201337383446566 0)
(4.34494843999607 0.0201337383446565 -1.92763146983508e-19)
(4.43702198132993 0.0201337383446566 2.01679324196848e-18)
(4.52909552266379 0.0201337383446564 0)
(4.62116906399764 0.0201337383446565 0)
(4.7132426053315 0.0201337383446564 -2.01679324196847e-18)
(4.80531614666536 0.0201337383446565 -5.85761657892184e-18)
(4.89738968799922 0.0201337383446564 0)
(4.98946322933308 0.0201337383446564 1.92763146983503e-19)
(5.08153677066694 0.0201337383446564 1.92763146983503e-19)
(5.17361031200079 0.0201337383446564 0)
(5.26568385333465 0.0201337383446564 1.92763146983505e-19)
(5.35775739466851 0.0201337383446564 0)
(5.44983093600237 0.0201337383446565 -3.84082333695338e-18)
(5.54190447733622 0.0201337383446564 1.92763146983501e-19)
(5.63397801867008 0.0201337383446565 5.85761657892165e-18)
(5.72605156000394 0.0201337383446566 -5.85761657892232e-18)
(5.8181251013378 0.0201337383446566 3.84082333695347e-18)
(5.91019864267166 0.0201337383446564 4.03358648393694e-18)
(6.00227218400552 0.0201337383446565 0)
(6.09434572533937 0.0201337383446564 2.20955638895205e-18)
(6.18641926667323 0.0201337383446565 -1.82403009498495e-18)
(6.27849280800709 0.0201337383446564 4.03358648393693e-18)
(6.37056634934094 0.0201337383446564 1.92763146983504e-19)
(6.4626398906748 0.0201337383446565 1.92763146983496e-19)
(6.55471343200866 0.0201337383446564 -2.01679324196837e-18)
(6.64678697334252 0.0201337383446564 0)
(6.73886051467638 0.0201337383446564 0)
(6.83093405601023 0.0201337383446565 4.03358648393689e-18)
(6.92300759734409 0.0201337383446564 1.92763146983507e-19)
(7.01508113867795 0.0201337383446567 1.92763146983498e-19)
(7.10715468001181 0.0201337383446566 -5.85761657892234e-18)
(7.19922822134566 0.0201337383446566 2.01679324196849e-18)
(7.29130176267952 0.0201337383446564 0)
(7.38337530401338 0.0201337383446565 -3.84082333695339e-18)
(7.47544884534724 0.0201337383446564 -4.03358648393712e-18)
(7.5675223866811 0.0201337383446564 0)
(7.65959592801496 0.0201337383446564 0)
(7.75166946934881 0.0201337383446565 3.64806018996992e-18)
(7.84374301068268 0.0201337383446564 0)
(7.93581655201654 0.0201337383446564 -5.66485343193838e-18)
(8.0278900933504 0.0201337383446565 0)
(8.11996363468425 0.0201337383446564 -2.01679324196855e-18)
(8.21203717601811 0.0201337383446565 1.92763146983504e-19)
(8.30411071735197 0.0201337383446565 -1.92763146983504e-19)
(8.39618425868583 0.0201337383446566 0)
(8.48825780001969 0.0201337383446566 -1.92763146983492e-19)
(8.58033134135354 0.0201337383446564 -2.01679324196856e-18)
(8.6724048826874 0.0201337383446564 -1.92763146983499e-19)
(8.76447842402126 0.0201337383446564 0)
(8.85655196535511 0.0201337383446565 3.8408233369534e-18)
(8.94862550668897 0.0201337383446564 -1.82403009498495e-18)
(9.04069904802283 0.0201337383446565 0)
(9.1320264554696 0.0263988966482104 -7.63491216449913e-18)
(9.21790621340939 0.0537841572984996 5.74596461669068e-18)
(9.29335240817158 0.104701176248121 0)
(9.3584967837535 0.168865571391488 -1.94564826515017e-19)
(9.41625439435861 0.23995088888491 5.95646729034514e-18)
(9.46964559644086 0.314432698089709 -3.06089663203449e-18)
(9.52088760870251 0.390422152404035 3.31252288320272e-18)
(9.57126876029212 0.466983980631668 -1.78162550144489e-18)
(9.6210542441796 0.543913156112063 -4.06924642641008e-18)
(9.66991538932588 0.621403677499477 -8.7343745083702e-18)
(9.71757921800245 0.699603104811044 0)
(9.76468439144065 0.778153726010694 -5.25173642018481e-18)
(9.8134761923354 0.855722588163634 -8.44471168503335e-18)
(9.8684083574773 0.929010597045757 -9.96985638473317e-18)
(9.93859821500432 0.985093911974651 0)
(10.0250663029675 1.008077163067 0)
(0.0459202370680859 1.01240696494083 -1.76192406883626e-18)
(0.132433228190236 0.989667861768142 0)
(0.202769752198369 0.933958577920921 -5.17519426219418e-18)
(0.257873709785657 0.861024464463668 -8.12475586923719e-18)
(0.306832906273733 0.783801008592414 1.88180555735318e-19)
(0.354098240613955 0.705590571305801 2.29666231461822e-18)
(0.401913594629594 0.627725677622478 6.54569094428697e-18)
(0.450921251315844 0.550566648812703 0)
(0.500850756322057 0.473967898854026 1.52680355636676e-18)
(0.55137421146647 0.397735277268219 0)
(0.602751539988725 0.322069719011443 -1.66524779390116e-18)
(0.656260623024469 0.247898989626219 0)
(0.714104740404397 0.177098204044056 -7.55223055891487e-18)
(0.779288689028637 0.113167405001898 3.99475730381333e-18)
(0.854718384331043 0.0623886903019733 -4.27376845080109e-18)
(0.940549761123857 0.0350000397747833 0)
(1.03183344056791 0.0286935453931388 1.76024534132477e-18)
(1.12387175227899 0.0286935453931388 1.92763742943456e-19)
(1.21591006399007 0.0286935453931388 0)
(1.30794837570116 0.0286935453931389 1.76024534132487e-18)
(1.39998668741224 0.0286935453931389 1.95300908426832e-18)
(1.49202499912332 0.0286935453931389 0)
(1.5840633108344 0.0286935453931388 -1.9276374294346e-19)
(1.67610162254549 0.0286935453931389 0)
(1.76813993425657 0.0286935453931388 0)
(1.86017824596766 0.0286935453931389 0)
(1.95221655767874 0.0286935453931389 0)
(2.04425486938983 0.0286935453931389 -1.95300908426823e-18)
(2.13629318110091 0.0286935453931389 3.71325442559319e-18)
(2.22833149281199 0.0286935453931388 -3.71325442559301e-18)
(2.32036980452307 0.028693545393139 0)
(2.41240811623415 0.028693545393139 -1.95300908426836e-18)
(2.50444642794524 0.0286935453931389 -1.92763742943459e-19)
(2.59648473965631 0.0286935453931388 -1.95300908426842e-18)
(2.6885230513674 0.0286935453931389 0)
(2.78056136307848 0.0286935453931388 -1.95300908426842e-18)
(2.87259967478956 0.0286935453931389 -3.90601816853646e-18)
(2.96463798650064 0.0286935453931389 2.14577282721178e-18)
(3.05667629821173 0.0286935453931388 -1.92763742943461e-19)
(3.14871460992281 0.0286935453931389 1.92763742943455e-19)
(3.24075292163389 0.0286935453931388 -3.71325442559297e-18)
(3.33279123334497 0.0286935453931389 0)
(3.42482954505606 0.0286935453931389 0)
(3.51686785676714 0.0286935453931389 0)
(3.60890616847822 0.0286935453931388 1.76024534132475e-18)
(3.7009444801893 0.0286935453931389 1.95300908426831e-18)
(3.79298279190039 0.0286935453931389 1.92763742943455e-19)
(3.88502110361148 0.0286935453931388 0)
(3.97705941532256 0.0286935453931389 3.71325442559318e-18)
(4.06909772703364 0.0286935453931388 0)
(4.16113603874472 0.0286935453931389 1.95300908426832e-18)
(4.25317435045581 0.0286935453931389 -2.80548577623076e-16)
(4.34521266216689 0.028693545393139 -2.889917062349e-16)
(4.43725097387797 0.0286935453931389 0)
(4.52928928558905 0.0286935453931389 0)
(4.62132759730014 0.0286935453931388 1.95300908426823e-18)
(4.71336590901122 0.0286935453931389 0)
(4.8054042207223 0.0286935453931389 5.47349976691775e-18)
(4.89744253243339 0.0286935453931389 5.85902725280498e-18)
(4.98948084414447 0.0286935453931388 0)
(5.08151915585555 0.0286935453931389 -1.95300908426833e-18)
(5.17355746756663 0.0286935453931389 2.14577282721177e-18)
(5.26559577927771 0.0286935453931389 0)
(5.35763409098879 0.0286935453931389 0)
(5.44967240269987 0.0286935453931388 0)
(5.54171071441095 0.0286935453931389 0)
(5.63374902612204 0.0286935453931388 0)
(5.72578733783312 0.028693545393139 2.84069068305739e-16)
(5.8178256495442 0.0286935453931389 2.85471215552237e-16)
(5.90986396125528 0.0286935453931389 -1.95300908426833e-18)
(6.00190227296637 0.0286935453931388 -1.76024534132479e-18)
(6.09394058467745 0.0286935453931389 0)
(6.18597889638853 0.0286935453931389 0)
(6.27801720809962 0.0286935453931389 0)
(6.3700555198107 0.0286935453931389 -1.9530090842683e-18)
(6.46209383152178 0.0286935453931388 -1.76024534132476e-18)
(6.55413214323286 0.0286935453931389 -1.95300908426822e-18)
(6.64617045494395 0.0286935453931389 0)
(6.73820876665503 0.0286935453931389 -1.95300908426834e-18)
(6.83024707836611 0.0286935453931389 -1.92763742943458e-19)
(6.92228539007719 0.0286935453931389 2.14577282721178e-18)
(7.01432370178827 0.0286935453931389 -1.76024534132476e-18)
(7.10636201349936 0.0286935453931389 -1.76024534132488e-18)
(7.19840032521044 0.0286935453931389 -1.95300908426823e-18)
(7.29043863692152 0.0286935453931389 5.47349976691807e-18)
(7.3824769486326 0.0286935453931389 5.47349976691778e-18)
(7.47451526034368 0.0286935453931389 1.92763742943458e-19)
(7.56655357205477 0.0286935453931388 0)
(7.65859188376585 0.0286935453931389 -1.95300908426831e-18)
(7.75063019547693 0.0286935453931388 0)
(7.84266850718802 0.0286935453931389 -5.47349976691778e-18)
(7.9347068188991 0.0286935453931389 0)
(8.02674513061018 0.0286935453931389 0)
(8.11878344232127 0.0286935453931389 1.92763742943455e-19)
(8.21082175403235 0.0286935453931389 2.14577282721176e-18)
(8.30286006574343 0.0286935453931388 0)
(8.39489837745451 0.0286935453931389 -1.9530090842683e-18)
(8.4869366891656 0.0286935453931388 0)
(8.57897500087667 0.0286935453931389 0)
(8.67101331258776 0.0286935453931388 1.95300908426822e-18)
(8.76305162429884 0.0286935453931389 1.92763742943451e-19)
(8.85508993600993 0.0286935453931389 -1.95300908426822e-18)
(8.94712824772101 0.0286935453931389 -1.95300908426831e-18)
(9.03916655943209 0.0286935453931389 1.92763742943462e-19)
(9.13046177179393 0.034931612156689 -1.93011228774423e-19)
(9.21633261381732 0.0621984676235524 2.23538120627478e-18)
(9.29181516007206 0.112895416622045 -8.56098544738782e-18)
(9.35704051969178 0.176782551859377 4.77743105685458e-18)
(9.41491110688075 0.247560720679301 0)
(9.46843420167978 0.321720679817001 -1.95188771788412e-19)
(9.51981742309069 0.397381730712008 0)
(9.57034351533481 0.473612664346867 -1.91148619322403e-18)
(9.62027650117012 0.550209410484772 0)
(9.66928912802977 0.627365164097472 8.21916772911619e-18)
(9.71710960325036 0.705226880046329 9.18145712598497e-18)
(9.76437387084905 0.783438199248822 0)
(9.81331754299099 0.860671585908717 1.97176488665535e-19)
(9.86837516251604 0.933641912634818 7.87780008203435e-18)
(9.93862513694345 0.989481828866147 0)
(10.0250833509156 1.01236566881964 -1.95493692041125e-18)
(0.0459025458304014 1.01685238497453 1.70031480609238e-18)
(0.13240505119392 0.994215682077477 0)
(0.202803509531891 0.938758111202114 4.99042372973352e-18)
(0.258037309182403 0.866153146111499 5.4669850008908e-18)
(0.307153870226185 0.789277411493543 0)
(0.354584122149192 0.711418708245512 -6.62974460989705e-18)
(0.402561884437672 0.633903916966679 3.76874410909684e-18)
(0.451726594567454 0.557091937410958 -1.98577906701799e-18)
(0.501809020721627 0.480837805621863 -6.4225442374653e-18)
(0.552482738104462 0.404948209259882 -1.89949054501612e-19)
(0.604006475516358 0.329623106838833 -1.61120085433638e-18)
(0.657652346353832 0.255786068148845 -1.90493415292634e-19)
(0.715613698620533 0.185303786216822 -2.3041942119205e-18)
(0.78088178477462 0.121660600715443 -6.43890104472737e-18)
(0.856349401693415 0.0711103849935014 -1.59231597575173e-18)
(0.942171713873962 0.0438450247472073 -3.56822497815447e-18)
(1.03342206856706 0.0375669224784084 0)
(1.12542386009425 0.0375669224784084 5.28890984959158e-18)
(1.21742565162144 0.0375669224784083 1.92764361216977e-19)
(1.30942744314864 0.0375669224784084 0)
(1.40142923467583 0.0375669224784084 -1.92764361216971e-19)
(1.49343102620303 0.0375669224784085 -3.59019468680003e-18)
(1.58543281773022 0.0375669224784085 1.8914795240085e-18)
(1.67743460925742 0.0375669224784084 0)
(1.76943640078461 0.0375669224784084 5.28890984959158e-18)
(1.86143819231181 0.0375669224784082 0)
(1.953439983839 0.0375669224784084 0)
(2.0454417753662 0.0375669224784084 0)
(2.13744356689339 0.0375669224784084 0)
(2.22944535842059 0.0375669224784085 0)
(2.32144714994778 0.0375669224784084 -1.8914795240086e-18)
(2.41344894147498 0.0375669224784084 1.92764361216971e-19)
(2.50545073300217 0.0375669224784083 0)
(2.59745252452936 0.0375669224784084 0)
(2.68945431605656 0.0375669224784082 0)
(2.78145610758375 0.0375669224784085 0)
(2.87345789911094 0.0375669224784084 -9.26463325882554e-18)
(2.96545969063813 0.0375669224784083 1.89147952400861e-18)
(3.05746148216533 0.0375669224784084 -1.89147952400851e-18)
(3.14946327369252 0.0375669224784084 0)
(3.24146506521972 0.0375669224784084 0)
(3.33346685674691 0.0375669224784083 -3.59019468680025e-18)
(3.4254686482741 0.0375669224784085 0)
(3.5174704398013 0.0375669224784085 -1.92764361216971e-19)
(3.60947223132849 0.0375669224784084 0)
(3.70147402285569 0.0375669224784084 -1.89147952400851e-18)
(3.79347581438289 0.0375669224784083 0)
(3.88547760591008 0.0375669224784084 0)
(3.97747939743728 0.0375669224784084 0)
(4.06948118896447 0.0375669224784084 0)
(4.16148298049166 0.0375669224784084 0)
(4.25348477201886 0.0375669224784084 2.76107570169744e-16)
(4.34548656354605 0.0375669224784083 2.76620848734328e-16)
(4.43748835507324 0.0375669224784084 -3.59019468680008e-18)
(4.52949014660044 0.0375669224784084 0)
(4.62149193812764 0.0375669224784084 -1.69871516279154e-18)
(4.71349372965483 0.0375669224784083 0)
(4.80549552118202 0.0375669224784084 0)
(4.89749731270922 0.0375669224784084 0)
(4.98949910423641 0.0375669224784083 0)
(5.0815008957636 0.0375669224784082 0)
(5.1735026872908 0.0375669224784084 0)
(5.26550447881799 0.0375669224784084 0)
(5.35750627034519 0.0375669224784085 0)
(5.44950806187238 0.0375669224784083 0)
(5.54150985339957 0.0375669224784084 0)
(5.63351164492676 0.0375669224784084 1.89147952400854e-18)
(5.72551343645396 0.0375669224784083 -2.72517375482961e-16)
(5.81751522798115 0.0375669224784084 -2.82295287306339e-16)
(5.90951701950834 0.0375669224784084 0)
(6.00151881103554 0.0375669224784084 0)
(6.09352060256274 0.0375669224784084 1.92764361216975e-19)
(6.18552239408993 0.0375669224784083 1.89147952400862e-18)
(6.27752418561712 0.0375669224784083 0)
(6.36952597714431 0.0375669224784083 0)