/*--------------------------------*- C++ -*----------------------------------*\
  =========                 |
  \\      /  F ield         | OpenFOAM: The Open Source CFD Toolbox
   \\    /   O peration     | Website:  https://openfoam.org
    \\  /    A nd           | Version:  7
     \\/     M anipulation  |
\*---------------------------------------------------------------------------*/
FoamFile
{
    version     2.0;
    format      ascii;
    class       volScalarField;
    location    "20000";
    object      k;
}
// * * * * * * * * * * * * * * * * * * * * * * * * * * * * * * * * * * * * * //

dimensions      [0 2 -2 0 0 0 0];

internalField   nonuniform List<scalar> 
15600
(
2.69855038211664e-06
6.53989848643052e-07
6.34805374704719e-08
1.30919141679533e-07
2.7695057775616e-08
2.43466953567706e-09
5.95041695440991e-09
9.34390110502565e-09
1.43165808275658e-08
2.20153786528719e-08
3.31479841806598e-08
4.74861838776693e-08
6.08120408128103e-08
6.25943145423858e-08
4.30322226165366e-08
2.17098039051308e-08
2.68519164916226e-08
5.08557217851273e-08
8.63109230995861e-08
1.40390961298836e-07
2.1555268836916e-07
3.11730055178534e-07
4.26444591692936e-07
5.56199054432719e-07
6.97587556589745e-07
8.47896797567571e-07
1.00511532425442e-06
1.16782352581268e-06
1.33498910111442e-06
1.50583115462711e-06
1.67970130437603e-06
1.85601261257848e-06
2.03419763690688e-06
2.21368610250729e-06
2.39389581715087e-06
2.57423913400869e-06
2.75414333585002e-06
2.93309270667476e-06
3.11070150182184e-06
3.28667187131973e-06
3.4609968276611e-06
3.63386647875372e-06
3.80352973472028e-06
3.96759903605885e-06
4.12482819475831e-06
4.2745750009706e-06
4.41624837493419e-06
4.54932296055443e-06
4.67333975078728e-06
4.78792017237063e-06
4.89276470576743e-06
4.98765665921749e-06
5.07246185474187e-06
5.14712352676124e-06
5.21165927586188e-06
5.26615495719429e-06
5.31075788054873e-06
5.34567120260115e-06
5.37114719770078e-06
5.38748025981196e-06
5.39500296612505e-06
5.39408163755262e-06
5.38510840962766e-06
5.36850388363041e-06
5.34469299747895e-06
5.31410784935825e-06
5.27712485421727e-06
5.23407934751458e-06
5.18520635585296e-06
5.13073075560532e-06
5.07097008406632e-06
5.00631741867716e-06
4.93721665947689e-06
4.86406902017024e-06
4.78722854555191e-06
4.70681192887104e-06
4.6230385886227e-06
4.53601418480965e-06
4.44591496342576e-06
4.35267930002573e-06
4.25687056429437e-06
4.15780822742459e-06
4.05609491837114e-06
3.95109503882918e-06
3.84271073700901e-06
3.73097355272527e-06
3.61539661370534e-06
3.49551806118449e-06
3.37083568572307e-06
3.24070184271991e-06
3.10422928703976e-06
2.96055624440642e-06
2.80855514348744e-06
2.65083678610683e-06
2.49282488695238e-06
2.32599653509342e-06
2.1481369656382e-06
1.95887805973133e-06
1.75724238565247e-06
1.54666776940636e-06
1.32734321579258e-06
1.11092892369951e-06
8.97789997369198e-07
6.94893700073172e-07
6.79907587889621e-07
9.93708219241333e-07
1.30786826967159e-06
1.64396958145205e-06
1.90311539468402e-06
2.02933613851596e-06
2.03922407977755e-06
1.90370307539087e-06
1.74655013376476e-06
1.6054984183014e-06
1.62591456262718e-06
1.99901532647399e-06
3.76102386843307e-06
1.19683281019947e-05
9.17266336420416e-06
3.77708842302085e-06
8.58307041985124e-05
2.1768871391105e-05
2.26617392229796e-06
4.28398648378729e-06
1.00040592945338e-06
9.99307530170651e-08
1.90248150892303e-07
2.9938874599303e-07
4.58142589487105e-07
7.0441469176372e-07
1.06196686589528e-06
1.5271209867269e-06
1.97052190161628e-06
2.0528870256184e-06
1.42668371975216e-06
7.11953002440276e-07
8.78912485153753e-07
1.66092185735677e-06
2.81498327376365e-06
4.5731267261032e-06
7.01289699149724e-06
1.01307681673191e-05
1.38457122510967e-05
1.80443697051967e-05
2.26167232473862e-05
2.74752929676124e-05
3.25552784551565e-05
3.78109645564906e-05
4.32091031274534e-05
4.87245408199744e-05
5.43363897188145e-05
6.00257458409952e-05
6.57743429445345e-05
7.15638366820485e-05
7.73755139365132e-05
8.31905025721141e-05
8.89904284148571e-05
9.4758770771422e-05
0.000100483214364546
0.00010615426599211
0.000111771826024197
0.000117342127451971
0.000122788705335739
0.000128032099396476
0.000133053540233454
0.000137832971940923
0.000142352006177441
0.000146594357715071
0.000150545876452179
0.000154194959179426
0.000157532506118005
0.000160552025992961
0.000163249612756422
0.000165623782566725
0.000167675369592286
0.000169407330171609
0.000170824528783175
0.000171933559947807
0.000172742535364981
0.00017326086901812
0.000173499153146547
0.000173469016090502
0.000173182887527712
0.000172654057154559
0.000171895954351604
0.000170922174840007
0.000169744592599997
0.000168373732302147
0.000166817018747253
0.000165081583065789
0.000163177431983071
0.000161116990503817
0.000158914202166131
0.00015658173706358
0.000154130732112876
0.000151564846959447
0.000148891070170613
0.000146112696802741
0.000143235334716608
0.000140256795190276
0.000137195215982739
0.000134028612728308
0.000130776382851136
0.00012741812856784
0.000123950593562733
0.000120374824018413
0.000116675238304175
0.000112836959270196
0.000108843947538129
0.000104675343291557
0.000100302754419832
9.56981528051771e-05
9.08247185989986e-05
8.57568197544177e-05
8.06585935413248e-05
7.52771064590443e-05
6.95393293127095e-05
6.34329995221461e-05
5.69254508469138e-05
5.0127333819084e-05
4.30422905855828e-05
3.60471212043969e-05
2.91541886766334e-05
2.26062148292017e-05
2.22491963988143e-05
3.28244376725669e-05
4.31618678584109e-05
5.39852108327445e-05
6.21729940653829e-05
6.6061908098437e-05
6.62195729552002e-05
6.1827325516855e-05
5.6821349023195e-05
5.24552683311949e-05
5.35243326178705e-05
6.67053616030064e-05
0.000126619977480932
0.000374252663843191
0.000290396480946311
0.000120274217683138
0.000618782855767926
0.000162952067736238
1.80117253472889e-05
3.12053349549598e-05
8.06151231256001e-06
9.0607053532093e-07
1.38539780044443e-06
2.17633309771102e-06
3.32368910353074e-06
5.10772946064031e-06
7.70095660104478e-06
1.10908043480693e-05
1.43735320172358e-05
1.51338553605169e-05
1.0670894279773e-05
5.28706840170631e-06
6.52724677965084e-06
1.22963666673359e-05
2.07744648330987e-05
3.3659519897572e-05
5.14646685424468e-05
7.41159528540843e-05
0.000100981184191579
0.000131205825040914
0.0001639750377675
0.000198647423345386
0.000234751888261112
0.000271958286937443
0.000310028210608618
0.000348782835585123
0.000388075253318467
0.000427774202330398
0.000467754531186028
0.000507892152697739
0.000548061954627546
0.000588139100511756
0.000628003172500464
0.00066754690959199
0.000706693405844359
0.000745383477574477
0.000783622541622918
0.000821123797339228
0.00085719386886305
0.000891825408871796
0.000924896295226111
0.000956293457581198
0.000985914901607171
0.00101367186799565
0.00103948894802436
0.00106330610771216
0.00108507825692546
0.00110477563497293
0.00112238343185125
0.00113790071713793
0.00115133969682456
0.00116272449132754
0.00117208986479711
0.00117948017606128
0.00118494813098632
0.0011885536101614
0.0011903629876581
0.00119044831568103
0.00118888613465765
0.00118575763705019
0.00118114476181718
0.00117512972242294
0.00116778449073558
0.00115917209310939
0.00114933713487089
0.00113832258744354
0.00112618865671888
0.00111301137063636
0.00109887514454482
0.00108385782650295
0.00106802751419204
0.0010514049570405
0.00103403431272635
0.00101593399240215
0.000997138876359861
0.000977628375625237
0.000957523618118302
0.000936672299777478
0.000915204599741432
0.000892980521052864
0.000869974709680671
0.000846191981675901
0.000821524341894897
0.000795877430455057
0.00076912468521936
0.000741117095364591
0.000711662165870345
0.000680554551478781
0.000647527711005083
0.000612832936718092
0.000577400418063642
0.000539894542852863
0.000499782571258123
0.000456943597637014
0.000411150854038703
0.000363057144283367
0.00031268740407846
0.000262658337412491
0.000213112489541119
0.000165755149997832
0.000163959536671315
0.000242799924313401
0.000317172037707
0.000392872610969726
0.000449417231617588
0.000476384178319503
0.000477780126971496
0.000448503748571823
0.000414478044460401
0.000385108754995309
0.000394948986757768
0.000493333606807581
0.000913906985381389
0.00237979953379913
0.00199616284988143
0.000845632197635859
0.00217649527239498
0.000622028544145611
7.32025235386501e-05
0.000115311870218378
3.3099479544724e-05
4.16918031189362e-06
5.22557093922149e-06
8.16018438022852e-06
1.24256286432464e-05
1.90634343432872e-05
2.86677830777404e-05
4.11639181680991e-05
5.32590204614505e-05
5.64199247956984e-05
4.05394041559014e-05
2.01400102575249e-05
2.51520095378314e-05
4.7028165824143e-05
7.88654036348074e-05
0.000126647828368
0.000191517672518013
0.000272388003500531
0.000366277489906083
0.000469674612218653
0.000579486518653012
0.000693419951821745
0.000809884329480942
0.000927830171803123
0.00104654821601452
0.00116554500522667
0.00128444345104233
0.00140292734075882
0.0015207093240637
0.00163751433855867
0.00175307223410524
0.00186711977132311
0.00197940872607967
0.0020897249603279
0.00219794949969964
0.00230399480065896
0.00240693081298916
0.00250527376350066
0.00259946043682423
0.00268931939358704
0.00277465572733596
0.00285529465978838
0.00293108350009469
0.00300189542129024
0.0030676294199181
0.00312821385938325
0.00318360519522386
0.00323378844320494
0.00327877601167397
0.00331860539250952
0.00335333754200392
0.00338305440248828
0.00340785644269787
0.00342786071258825
0.00344319844841175
0.00345401304730321
0.00346045894532307
0.00346270014334433
0.0034609083026404
0.00345526293767396
0.00344594410733382
0.00343313031248867
0.00341697773914485
0.00339762093595726
0.00337515421669797
0.00334966684917941
0.00332128429290428
0.00329017056486231
0.00325650534050522
0.00322045799617412
0.00318217657193218
0.00314169485690225
0.00309911201184228
0.00305445538518596
0.00300779851652889
0.00295905599148107
0.00290853434387248
0.00285580741838433
0.00280120689456829
0.0027444026086591
0.00268527245838601
0.00262367715367811
0.00255939096640296
0.00249212624431408
0.00242150087216597
0.00234705097143546
0.00226818501927983
0.0021842257289536
0.00209430048951552
0.00199785848673878
0.00189674432449618
0.00178842022496995
0.00167104206350471
0.00154368778690032
0.00140516875712904
0.00125655368927222
0.00109820684925346
0.000935789741483481
0.000770680099670211
0.000606329229759582
0.000597938636767291
0.000869507799083258
0.00112125395927818
0.00137423609741413
0.00156626210682713
0.00166688439190341
0.00168556245655629
0.00160592222844107
0.0015042118268084
0.00141457594952114
0.001457782569489
0.00180365783977534
0.00314565453593357
0.0068506534245281
0.0064199618487195
0.00282294563794891
0.00477624288910031
0.00160755599100022
0.000209790991520912
0.000296748576636233
9.50890071507824e-05
1.34165429217956e-05
1.40528584652366e-05
2.17109651643909e-05
3.29149518906282e-05
5.03056066604306e-05
7.51612113506932e-05
0.000106938019190642
0.000137015264479587
0.000144995783573282
0.000106770706247373
5.42431602613201e-05
6.94055690051891e-05
0.000127086628141661
0.000209258048105318
0.00032780337273017
0.00048157368108515
0.00066443201949702
0.000867325503222399
0.00108173603354234
0.00130130083206823
0.00152199179896403
0.00174144633566091
0.00195840634672639
0.00217221441665491
0.00238254491687004
0.00258921295365411
0.00279208334202163
0.00299102316992026
0.00318588286090641
0.00337649114215737
0.00356266264957115
0.00374421026470387
0.0039209650652393
0.00409293032826968
0.00425873082106362
0.00441672020646615
0.00456759002071516
0.00471137487565165
0.00484791595093162
0.00497705370597731
0.00509864934420898
0.0052125874747137
0.00531878114985607
0.00541717248867997
0.00550773700009417
0.00559048226712524
0.00566544852895727
0.00573270711219066
0.005792357649323
0.00584452599592899
0.00588936120662192
0.0059270325442679
0.00595772716629523
0.00598164712856457
0.00599900710270293
0.00601003300573066
0.00601496013691867
0.00601403118093671
0.00600749605883579
0.00599560375713911
0.00597859847111783
0.00595669567641297
0.00593008051643292
0.00589888634171712
0.00586323626440219
0.00582329596818353
0.00577928555308077
0.00573143943165044
0.00567998397306832
0.00562511891041791
0.00556688056855163
0.00550541212653536
0.00544073949333625
0.00537296349868924
0.00530192049455952
0.00522813569639789
0.00515110071256709
0.00507084405734969
0.00498711876977379
0.00489972209952386
0.00480840558131522
0.0047128256040062
0.00461252633024206
0.00450690614925399
0.00439521723517651
0.00427650923055282
0.00414964368061217
0.00401315577297502
0.00386502400131988
0.00370660275920376
0.00353525945855546
0.00334747264324471
0.00314052271598801
0.00291117407220997
0.0026586193966608
0.00238156071460751
0.00208691221817894
0.00177458674851766
0.00143860447727056
0.001405363417196
0.0019437244488419
0.00246440411063216
0.00299408179102256
0.00341528665528473
0.00367869807541916
0.00378564811672583
0.00370428785653643
0.00356146714501028
0.00342847271977367
0.00356693265109673
0.004332077648786
0.00692276118507765
0.0124427054115261
0.0128978567455309
0.00600740974973999
0.0076919844617279
0.00314516554111853
0.000488087713331842
0.000607768154927825
0.000218654497184465
3.46724806238153e-05
3.09309957736273e-05
4.70076904269559e-05
7.07755894258924e-05
0.000107354282594687
0.000158416958736568
0.000221351128268797
0.000277813612854481
0.000290750438580865
0.00022083759808275
0.000118620199588161
0.000155212228117971
0.000273276768176214
0.000433391003075277
0.000649954674196218
0.000913961866792395
0.00121125113710665
0.00152647528572648
0.00184769450866858
0.0021672715649207
0.00248119564622859
0.00278761891912203
0.00308595874513166
0.00337619389881806
0.00365855174070667
0.00393329843824309
0.00420066174946813
0.00446079782238908
0.00471378865435713
0.00495965025979147
0.00519835100559425
0.00542983027326981
0.00565398977336186
0.00587013625933725
0.00607606017138839
0.00627248222392075
0.00645963993059851
0.00663749328341288
0.00680593138232397
0.00696484682100196
0.00711415050528403
0.00725377516574681
0.00738368113863261
0.00750385790400537
0.00761432870416112
0.00771514966879328
0.0078064105072829
0.00788823285543608
0.00796076745475834
0.0080241918378193
0.00807870714889791
0.00812453491459928
0.00816191459143157
0.00819110019350987
0.00821235794161981
0.00822596463426207
0.00823220545782966
0.00823137201122139
0.00822376169469662
0.00820966978726367
0.00818938431801526
0.00816316250248835
0.00813122677955772
0.00809374342552657
0.00805086307380041
0.00800277816592158
0.0079497461733054
0.00789203354174113
0.00782990361100782
0.00776359302396041
0.00769314121602072
0.00761873195878998
0.00754039258678349
0.00745825952889906
0.00737242136725105
0.00728293955245748
0.00718952455554335
0.00709209827139489
0.0069904339861661
0.00688429278845787
0.006773376537647
0.0066572852645829
0.00653548395708552
0.00640726859330055
0.00627175358906579
0.00612781803880135
0.00597409174062271
0.00580882513663047
0.00562938893858649
0.00543571721541061
0.00522599422285835
0.00499560271173411
0.00474038643365053
0.00445553898383572
0.0041378234629611
0.0037837827305045
0.00339739563275506
0.00297863272234304
0.00250447576181639
0.00242586279679951
0.00316490657114496
0.00394572249167096
0.00474983769166055
0.00542580642715816
0.00590942154733321
0.00618739285109408
0.00622264337047434
0.00616473167376181
0.0061137246683133
0.00645607136268122
0.00769604959898743
0.0112832810990607
0.0174800490237747
0.019039184775293
0.00975521596956775
0.0105426662052801
0.00504163679124695
0.000994762143784671
0.00105595828500137
0.000428824342335233
7.69972564371134e-05
5.9651027499149e-05
8.85608085916913e-05
0.000131884106634528
0.000197364670318063
0.000285199420759489
0.000386895694257794
0.000470160939416385
0.000482505875342367
0.000379249693958704
0.000224914623807179
0.000294578664670595
0.000490314921034145
0.000739726409031001
0.00105702435590661
0.00142500059631946
0.00182348272266811
0.00223320179365133
0.0026409653343652
0.00303939717032805
0.00342547620166081
0.0037983848085641
0.00415844358374266
0.00450633789447867
0.00484283985383725
0.00516862825036236
0.00548424677701861
0.00579009543212565
0.00608644805232107
0.0063734743810353
0.00665126829433269
0.00691987781710293
0.00717913402150109
0.00742663275943492
0.00766277180462021
0.00788789401359939
0.00810208650977188
0.00830530450200945
0.00849747305757232
0.00867852242523536
0.0088483993389886
0.00900707136912206
0.00915453309574482
0.00929080844177284
0.00941595539397691
0.00953006560612795
0.00963326514891782
0.009725712829711
0.00980759739957505
0.00987913503152519
0.00994056606194117
0.00999215154280944
0.0100341706948463
0.0100669171660357
0.0100906966167262
0.0101058247927249
0.0101126249947906
0.0101114260789044
0.0101025614479867
0.0100863616002935
0.0100631482401283
0.0100332119169921
0.00999680618882646
0.00995412670115759
0.00990534801012194
0.00985068319496113
0.00979041909297094
0.00972484510291136
0.0096542531085971
0.00957891124806472
0.00949886168810015
0.00941432744250196
0.00932543424564566
0.00923237029171453
0.00913505506416126
0.00903351659786657
0.008927558530244
0.00881706391504502
0.0087018132488299
0.00858155266107432
0.00845596264564676
0.00832461867903341
0.00818695108221981
0.00804221136828131
0.00788945165366147
0.00772747660055972
0.00755480984555786
0.00736958230117533
0.00716921841127811
0.0069519077291256
0.00671713274518885
0.00645957961471963
0.00617422435342816
0.00585536750176515
0.00549798153031718
0.00509707284512203
0.00465320680596434
0.00416565808739694
0.00360379872149451
0.00347409997948031
0.00432262414051186
0.00530737881785565
0.00632644571864565
0.00722158282440168
0.00791151620149086
0.00837543358535498
0.00858478585301791
0.00869690199528951
0.00883512328862242
0.00945621409949104
0.0111240462750205
0.0152956674580038
0.0215500068932922
0.0237130356660416
0.0135916340273782
0.0133581537235561
0.00708277433469188
0.00182052318726018
0.00161433021171713
0.000740512081332741
0.000152288021280511
0.000104587824910744
0.000150446195620991
0.000220318753365394
0.00032269381053223
0.0004520861261813
0.000589351588644244
0.000689208186863578
0.00069346112306328
0.000562542557153048
0.00037835907171185
0.000486383645090944
0.000761188866272071
0.00109565738752727
0.0015040739762917
0.00196238634449937
0.00244547571892489
0.00293142932600182
0.00340739011283357
0.0038672971063515
0.00430955978125079
0.00473443871723539
0.00514302845644433
0.00553654708122403
0.00591614251482976
0.00628276375676843
0.00663715493203706
0.00697986859348776
0.00731129845349358
0.0076317110267672
0.00794127950949071
0.00824014694221843
0.00852694944797153
0.00880053700811911
0.00906160583013829
0.00931033598252117
0.00954675997933116
0.00977084137461
0.00998253086928578
0.0101817859382765
0.0103685795709921
0.01054290532695
0.0107047836853266
0.0108542649933372
0.0109914342288467
0.0111164109967821
0.0112293503205935
0.0113304409210471
0.0114199024471053
0.011497982742274
0.0115649545219651
0.0116211116850369
0.0116667667052493
0.0117022464890488
0.0117278898956585
0.0117440455014006
0.0117510687133441
0.0117493197060517
0.011739162121247
0.0117209561004016
0.011695052045605
0.0116617695697603
0.0116213902851321
0.011574137123173
0.011520206394952
0.0114598284708738
0.0113933156475265
0.0113209757958549
0.0112431249653475
0.0111600605832827
0.0110718255827512
0.010978768238082
0.0108810865750029
0.0107787625553421
0.0106717665859634
0.010560117010516
0.0104436666820511
0.0103222846281012
0.0101957563893616
0.0100638229057455
0.0099261563382622
0.00978232269964661
0.00963173840779744
0.00947363706339981
0.00930704382292047
0.00913073271403816
0.00894318049388966
0.00874247087434137
0.00852605651816731
0.00829131120344105
0.00803822609044149
0.0077612875505184
0.00745496300324933
0.00711303041722197
0.0067292197089678
0.00629743454110562
0.00581531346480095
0.00528116024734181
0.00466143022168956
0.0044864348018209
0.00538474428730717
0.00651572507060691
0.00769906289835227
0.00876569565363731
0.0096236418477905
0.0102499780167572
0.0106300656984485
0.0109237548177536
0.0112765345959067
0.0121782649500049
0.014203076323159
0.018698937018789
0.0248344824718068
0.0271997888356414
0.0172866373608355
0.0162420960443625
0.00918567585008534
0.00296421502917765
0.00223577435307461
0.00114641273391633
0.000273534644378835
0.000170254539111069
0.000235119795266795
0.000336241220841278
0.000477945378636007
0.000644126240347438
0.000804173816255567
0.000907965795986716
0.000901477359014742
0.000754717172700895
0.000569058001736739
0.000716797895231877
0.00106311832165384
0.00147521940719528
0.00196531308289474
0.00250150177440637
0.00305453864513577
0.00360185951579452
0.00413242694629576
0.00464193899828691
0.00513011337473714
0.0055980114723858
0.00604722484577398
0.00647928414649233
0.00689554599406707
0.00729710778823427
0.00768482445798641
0.00805933502520226
0.00842110355872574
0.00877045562278017
0.00910760923562397
0.00943255381805604
0.00974314819766042
0.0100396904457346
0.0103226048717052
0.0105919932502091
0.0108478675986174
0.0110902027097203
0.0113189697121021
0.011534147983052
0.011735731904677
0.011923736493717
0.0120982038319689
0.0122592065071173
0.0124068524323162
0.0125412851524654
0.0126626847086055
0.0127712658520706
0.0128672753010186
0.0129509887929023
0.013022707710213
0.0130827551251923
0.0131314731756436
0.0131692184772669
0.0131963595931894
0.0132132744925366
0.0132203472908836
0.0132179661017136
0.013206521539082
0.0131864002044733
0.0131579784074067
0.0131216023659772
0.0130775800382477
0.0130261603902727
0.0129675601390323
0.01290202479135
0.0128298900875571
0.0127514796505106
0.0126671310154736
0.0125771700809491
0.012481684046445
0.0123812136486831
0.0122757115499506
0.0121651875027133
0.0120496445266452
0.0119291015826128
0.0118034429216045
0.0116725344786193
0.0115361674682856
0.0113940832483364
0.0112459530448201
0.0110913421293231
0.0109296647657296
0.0107601513833548
0.0105818199860996
0.0103934379087047
0.0101934680556472
0.0099799857443206
0.00975046983110761
0.00950192153871861
0.00923449975543843
0.00894271378728474
0.00862074387416281
0.00826205063191303
0.0078595008035304
0.00740615928703114
0.00689729988616017
0.00633010688620906
0.00567059408113403
0.00545801726622551
0.00636857539814618
0.00760617695475318
0.00891525093895291
0.0101144176959024
0.0111053408319166
0.0118661071630786
0.0123962858442927
0.0128556656525858
0.0134097927597043
0.014562181448001
0.0168836336216147
0.021569063721047
0.0275580798366578
0.0299046904966351
0.0206912584395551
0.0192282345990679
0.0113313122344953
0.00437301345035089
0.00288860783473027
0.00161525614188641
0.000451078369507911
0.000260478543936747
0.000342208161284289
0.000474758662683442
0.000650986572250322
0.000842265612955408
0.00101161402613823
0.00111252513195251
0.00109830693521167
0.000948312339172194
0.000782474581308128
0.000970281850330414
0.00138099094252355
0.00186555774902968
0.00242923447680868
0.00303191574565031
0.00364269979994667
0.00424041092850334
0.00481640862093861
0.00536795335055549
0.00589568685772351
0.00640115109349691
0.00688619636771755
0.00735250353690667
0.00780152588428808
0.00823443266059521
0.00865213569715371
0.00905532192343881
0.00944449747371105
0.00982002636929106
0.0101821697167142
0.010530267250336
0.0108627014470266
0.0111801716910965
0.0114829565922647
0.0117711188619204
0.0120446643527795
0.0123035799034329
0.0125478545175843
0.0127774867224186
0.0129924897727194
0.0131928977483996
0.0133787720273116
0.0135502051397005
0.0137073256899357
0.0138502988968695
0.0139793275892949
0.0140946503227025
0.0141965386733124
0.0142852940720562
0.0143612443946151
0.0144247397067652
0.0144761496846596
0.0145158585211973
0.0145442623737496
0.0145617665235824
0.0145687817191941
0.0145657219320951
0.0145530027396852
0.0145310352285802
0.0145002199085217
0.014460928071692
0.0144134930087339
0.0143581889904779
0.0142952523025601
0.0142249420115533
0.0141476164013435
0.0140636129194886
0.0139732887822691
0.0138769977193017
0.0137750605251757
0.0136677894458382
0.0135551436287567
0.0134371541914299
0.0133138484824527
0.0131852511349019
0.0130512698041429
0.0129117730884321
0.0127665592454993
0.012615373894114
0.0124578923183801
0.0122936849908324
0.0121221718357133
0.0119425897598009
0.0117539625658155
0.0115550663113247
0.0113443714045299
0.011119969248286
0.0108793761189321
0.0106194384200115
0.0103403367207388
0.0100367141951039
0.00970260927517651
0.00933129446392699
0.00891504250695122
0.00844626631501414
0.00791837073616653
0.00732739366665197
0.00664024571826861
0.00639526888626
0.00729863312715627
0.00861385453977231
0.0100198728778578
0.0113223031702806
0.0124190614300604
0.0132911438010608
0.0139509635204012
0.0145568514619994
0.0152916884584402
0.0166624904594638
0.0192346817856827
0.024034227474294
0.029878479979003
0.0320961482689663
0.0237357151115602
0.0222516623887318
0.0135118224017878
0.0059781841933639
0.00357594798988151
0.00210827069715456
0.000688029727935585
0.000377414487985234
0.000468150731362672
0.000627279838539722
0.000828382649508116
0.00103273017779967
0.00120328034836946
0.00130057297984792
0.00128413059873641
0.00114158792802234
0.00100765646753415
0.00123651810480247
0.00170791270021607
0.00226102716473345
0.00289014621672223
0.0035491708931593
0.00420830418393692
0.00484880274569219
0.00546423497329362
0.00605300177442874
0.00661629526488939
0.00715589174189303
0.00767373652936601
0.0081715566324587
0.00865083344288983
0.00911276266240731
0.00955828171278988
0.00998810323631217
0.0104027591809518
0.0108026399312233
0.0111881137452462
0.0115574647170432
0.0119103751209799
0.0122473909786582
0.0125687066683342
0.0128743650704984
0.0131643727384529
0.0134387288926038
0.0136974391332379
0.0139405196609379
0.014168001247084
0.0143799357240064
0.0145764024794548
0.0147575126733597
0.0149234143182346
0.0150742929778101
0.0152103729701563
0.0153319153411128
0.0154392152169048
0.0155325984079606
0.0156124179847113
0.0156790496795354
0.0157328894289444
0.0157743476925141
0.0158038469222246
0.0158218184292443
0.015828698297504
0.0158249250407465
0.0158109379279116
0.0157871712628525
0.0157540486720727
0.0157119655368
0.0156612798779078
0.0156022909067677
0.0155352539932867
0.0154604404669599
0.0153782310595613
0.0152889754881659
0.0151930489495521
0.0150909692056843
0.0149830293602636
0.014869408955648
0.0147501137092863
0.014625193693853
0.0144946963631014
0.0143586549362869
0.0142169966696422
0.0140695963387524
0.0139162607490492
0.0137567427206984
0.0135907253627523
0.0134177888451466
0.0132373645221944
0.0130487028095035
0.0128508426656773
0.0126425799296427
0.0124224077293169
0.0121884507811992
0.011938277211864
0.011668696645484
0.0113798423002318
0.0110665566845088
0.0107228365010377
0.0103418562727507
0.00991549278563614
0.00943565509968076
0.00889429479846859
0.00828637116594277
0.00758044524595897
0.00730745484374711
0.00819308961940987
0.00956421506191312
0.011045284851776
0.012428827829183
0.0136108557861115
0.0145765232366094
0.0153493493199554
0.0160854774639095
0.0169824491518008
0.0185451861139032
0.0213326238644211
0.026196352211561
0.0318974402205599
0.0339347696538631
0.0264327393007778
0.0251771699449144
0.0156964065352337
0.00771175778059773
0.00432660050275241
0.00260023949819157
0.000978086099341007
0.000520993862545234
0.000607315774044508
0.000784784412387972
0.00100050588864514
0.00120969104640059
0.00137860771880089
0.00147457350317781
0.00146158785989923
0.00133475158613907
0.00123871479602747
0.0015106080796832
0.00204126064812729
0.00265843382845204
0.00334478867411959
0.00405177660113336
0.00475241501666923
0.00543055737072491
0.00608149474502491
0.0067043665391118
0.00730062875221416
0.00787212235019214
0.00842078046250823
0.00894831019152148
0.00945617863075616
0.00994558025563046
0.0104174591816191
0.0108725403149397
0.0113113714175638
0.0117343532107528
0.0121417060263351
0.0125313787949126
0.0129038037250685
0.0132594001116213
0.0135983130680028
0.0139205760119449
0.0142261998756294
0.0145151965203299
0.0147875875417554
0.0150434060472149
0.0152826996170532
0.0155055371496161
0.0157120153540697
0.0159022632960996
0.0160764477006641
0.016234773724455
0.0163774864626542
0.0165048687152241
0.0166172384294361
0.0167149450518245
0.0167983661195889
0.0168679022581432
0.0169239749463713
0.0169670201389653
0.0169974858182504
0.0170158285735957
0.0170225090421335
0.0170179894695358
0.0170027320287514
0.0169771934338376
0.0169418197453933
0.0168970298032348
0.0168432060222981
0.0167806724714746
0.0167097033887288
0.0166305811673131
0.0165437095769226
0.0164494489710467
0.0163482666009998
0.0162407738551753
0.0161271268762584
0.0160074956833978
0.0158819210754517
0.0157504707998606
0.0156132102286434
0.0154701831168557
0.0153213344965915
0.0151665477323246
0.0150056396342366
0.014838372630836
0.0146644407073505
0.0144834373707029
0.0142948099626907
0.0140978278968484
0.0138915524950614
0.0136748078779705
0.0134461214237564
0.0132036641804902
0.0129450703981453
0.0126671835277775
0.0123700502023113
0.0120487592136448
0.0116973358885554
0.0113089238093782
0.0108751534016407
0.0103875544751968
0.00983696962299229
0.00921740817587489
0.00849950164431702
0.00820257937748873
0.00906469903884735
0.0104750055893352
0.0120139052790963
0.0134612852589082
0.0147127762969309
0.0157585279561213
0.016631418221535
0.0174850054702906
0.0185290690534796
0.0202630536516991
0.023236528405927
0.0281258845596224
0.0336839361882326
0.0356281295330328
0.0288405182778815
0.0278623258765188
0.0178397879674564
0.009502600356089
0.00518096873517481
0.00308682569856698
0.00130836542610424
0.000689341970065767
0.000754042406428431
0.000940570552340857
0.00116279697951866
0.00137266848002516
0.00154008245713962
0.00163785411168188
0.00163333138959631
0.00152843605244374
0.00147335243467001
0.00179092900829767
0.0023796941065499
0.003055350066064
0.00379135529109726
0.0045398004780334
0.00527708644601624
0.00598939511871001
0.00667322930579781
0.00732815035371822
0.00795567310510022
0.00855758756626086
0.00913574329571445
0.00969178378643247
0.0102271342459258