/*--------------------------------*- C++ -*----------------------------------*\
  =========                 |
  \\      /  F ield         | OpenFOAM: The Open Source CFD Toolbox
   \\    /   O peration     | Website:  https://openfoam.org
    \\  /    A nd           | Version:  7
     \\/     M anipulation  |
\*---------------------------------------------------------------------------*/
FoamFile
{
    version     2.0;
    format      ascii;
    class       volScalarField;
    location    "20000";
    object      k_conv;
}
// * * * * * * * * * * * * * * * * * * * * * * * * * * * * * * * * * * * * * //

dimensions      [0 2 -3 0 0 0 0];

internalField   nonuniform List<scalar> 
15600
(
-1.42470230782347e-05
6.86020837252506e-08
-1.63045737960735e-08
-7.09126690641164e-07
-2.93966808804645e-08
-4.41031353928933e-10
-1.43167432107817e-10
-2.18262216786998e-10
-3.61655697023171e-10
-4.95786164243385e-10
-8.08639633469748e-09
-2.59195185252809e-08
-4.61511451580365e-08
-4.11146889985705e-08
-1.31522468213784e-08
-7.43465651332334e-10
1.39373170239335e-10
4.39075697071134e-10
-5.74879259872635e-10
-3.20579508584742e-09
-7.21534441639923e-09
-1.24724600984987e-08
-1.83591506700608e-08
-2.43181245842078e-08
-3.00226851670077e-08
-3.53237626428098e-08
-4.01881866903255e-08
-4.46227445968292e-08
-4.86485331794801e-08
-5.22787724739834e-08
-5.55167913991841e-08
-5.83573126943343e-08
-6.07894169846027e-08
-6.27999247458622e-08
-6.4379087322826e-08
-6.55265909179802e-08
-6.62606310568323e-08
-6.6630514487695e-08
-6.66741034314883e-08
-6.65099687161984e-08
-6.62246316108415e-08
-6.50848634187891e-08
-1.20219693268098e-07
-2.39856750877686e-07
-3.63463838142255e-07
-4.89617297782639e-07
-6.1681658913581e-07
-7.43567187154652e-07
-8.6833870499707e-07
-9.89680139185462e-07
-1.10621160963135e-06
-1.2166706879253e-06
-1.31994969933077e-06
-1.41509411668692e-06
-1.50132392003456e-06
-1.57803537931435e-06
-1.64479253745063e-06
-1.70132613236163e-06
-1.74752873633446e-06
-1.78343077042392e-06
-1.80919833330415e-06
-1.82513630463143e-06
-1.83163350542392e-06
-1.82924544078015e-06
-1.81853474831875e-06
-1.8002660291027e-06
-1.77501666265673e-06
-1.74346485979035e-06
-1.70592373481609e-06
-1.66259483023164e-06
-1.61398476475791e-06
-1.56065202685338e-06
-1.50352815985756e-06
-1.44328507515494e-06
-1.38070305759013e-06
-1.31604662068267e-06
-1.24951998662964e-06
-1.18141052999379e-06
-1.1119536645004e-06
-1.04155825192399e-06
-9.70504832897551e-07
-8.98831647888087e-07
-8.26653767721502e-07
-7.5389547965706e-07
-6.80576996458487e-07
-6.06745953477321e-07
-5.32215473995422e-07
-4.56895967759383e-07
-3.80352836425236e-07
-3.02595875500044e-07
-2.22953061574249e-07
-1.42062294511811e-07
-5.9149088298518e-08
1.09937490028532e-09
1.38755384001999e-09
1.93585902443398e-09
2.81073075128727e-09
4.08161444948143e-09
5.74222552130589e-09
7.80661509131246e-09
9.82307824539093e-09
1.17833300782115e-08
1.31940262466919e-08
1.09791016382791e-09
-2.72139356390266e-08
-2.43207529966668e-07
-7.47101318010251e-07
-1.93160119099647e-06
-3.14293757125984e-06
-3.78736483825772e-06
-3.73657223970617e-06
-2.64731164811216e-06
-2.10397654082408e-06
-1.97485584750289e-06
-3.55938273163135e-06
-1.075238150021e-05
-5.45255537956637e-05
-0.000387711551084404
-4.5983339151845e-06
-5.94794379946024e-06
-1.39536387801863e-05
1.64228336768495e-06
-1.21212139220081e-06
-1.43285331570684e-05
-8.39033200554778e-07
-1.96362695917056e-08
-1.2529555259264e-08
-1.88736580162849e-08
-3.06590257299453e-08
-4.60021819370056e-08
-2.09127227979976e-07
-5.84761263245905e-07
-1.04152039998422e-06
-1.01036846535087e-06
-3.84933699980391e-07
-5.58862977879385e-08
1.82536765886626e-08
2.98825030734436e-08
-8.6990636005542e-08
-2.87880414949912e-07
-6.03422722658164e-07
-1.00545943283797e-06
-1.44947751560208e-06
-1.89914701278296e-06
-2.33291730127747e-06
-2.74086308218696e-06
-3.12012250062894e-06
-3.47055367531624e-06
-3.79308327189464e-06
-4.0883433214752e-06
-4.35652538745121e-06
-4.597402551128e-06
-4.81048894951708e-06
-4.99523874999429e-06
-5.15140733614087e-06
-5.27947959321241e-06
-5.38146004725374e-06
-5.46200713944203e-06
-5.52450247563999e-06
-5.57899986701379e-06
-5.63229064876295e-06
-6.64382349527251e-06
-9.14177358278983e-06
-1.16502910441902e-05
-1.41964918410573e-05
-1.67536189174797e-05
-1.92941186633664e-05
-2.17909540724408e-05
-2.42174104944779e-05
-2.65485214858918e-05
-2.87611405621035e-05
-3.08345404214175e-05
-3.27508852722602e-05
-3.44952080656704e-05
-3.60556307123245e-05
-3.74233300579782e-05
-3.85923810325362e-05
-3.95596816440904e-05
-4.03248242542911e-05
-4.08897575933928e-05
-4.12587313277836e-05
-4.14382687847719e-05
-4.14365251658572e-05
-4.12641118830454e-05
-4.09321176455328e-05
-4.04539158434573e-05
-3.98401176680336e-05
-3.91015469907521e-05
-3.82436233667455e-05
-3.72711127947417e-05
-3.61941121163651e-05
-3.50241787892718e-05
-3.37782733081363e-05
-3.24693010978816e-05
-3.11098043451499e-05
-2.9705327322856e-05
-2.82589790873136e-05
-2.67763373254053e-05
-2.52612651591241e-05
-2.37234763713108e-05
-2.21647929317101e-05
-2.05881671135647e-05
-1.89935834832091e-05
-1.73795966253061e-05
-1.57462910120687e-05
-1.40933174264094e-05
-1.24164412395882e-05
-1.06826483612498e-05
-8.92615225546895e-06
-7.1456946740845e-06
-5.31171179553686e-06
-3.4293412243375e-06
-1.48747162644047e-06
-1.69031665826395e-07
-8.3703884654258e-08
6.21802151145698e-09
1.15662138797518e-07
2.57827337304264e-07
5.34795250895098e-07
7.37291490513997e-07
9.46182988702768e-07
1.09835560199862e-06
1.20685781099798e-06
2.37417842171267e-07
-1.93987687851803e-06
-8.35850126908973e-06
-2.23076938773767e-05
-4.68726859404355e-05
-7.0643905625591e-05
-8.26351219769271e-05
-8.05728980026036e-05
-6.02899205629226e-05
-4.88475676323418e-05
-4.63446477791582e-05
-7.86779834128488e-05
-0.000225099375738494
-0.00107873021151101
-0.00611102130323013
-0.000213151827421783
-0.000370302080395242
-0.00028531284653995
-7.57252854880303e-05
-1.03589343360432e-05
-8.22290496005277e-05
-6.35211739563469e-06
-1.81515284986236e-07
-1.41112718507414e-07
-2.03934418446486e-07
-3.33602566065495e-07
-5.40399873738945e-07
-1.57887954587387e-06
-3.82148583644172e-06
-6.55712124526197e-06
-6.68255565978778e-06
-2.82456029816242e-06
-5.01449888231518e-07
3.35321980997397e-07
1.49141695895518e-07
-8.73465084127592e-07
-2.76243616225575e-06
-5.62472985455373e-06
-9.20387542375077e-06
-1.31439534490386e-05
-1.71634563971472e-05
-2.10907604041173e-05
-2.48362347527906e-05
-2.83666799795644e-05
-3.1672742945326e-05
-3.47591953039185e-05
-3.76320920987086e-05
-4.02975664920148e-05
-4.27602947461061e-05
-4.50240349616989e-05
-4.70923983321331e-05
-4.89712723903812e-05
-5.06721937653742e-05
-5.22202093579822e-05
-5.3668019616308e-05
-5.50469681872202e-05
-5.64560975752865e-05
-6.15881379029608e-05
-7.32974572262006e-05
-8.37318931823345e-05
-9.40721411091405e-05
-0.000104235752485442
-0.000114143336304973
-0.000123718254113263
-0.000132888688001644
-0.000141587844531024
-0.000149756131635152
-0.000157341339188933
-0.000164299301861791
-0.000170594395869131
-0.000176199108649758
-0.000181094030498357
-0.000185267416035051
-0.000188714632234256
-0.000191437739173169
-0.000193445151718956
-0.000194750931322015
-0.000195374748343831
-0.000195341873783663
-0.000194682067844153
-0.000193430713651363
-0.000191624255742197
-0.000189301915471552
-0.000186493626227816
-0.000183225213457506
-0.000179508046797464
-0.000175357189118589
-0.000170807066167038
-0.000165896482830364
-0.000160680798335229
-0.00015520118180562
-0.000149489835827296
-0.000143564989421236
-0.000137427886174186
-0.00013109553664502
-0.000124573892720429
-0.000117904044292795
-0.000111076086643055
-0.000104100816598625
-9.69705584081507e-05
-8.94387526900634e-05
-8.16102576291854e-05
-7.39447445758127e-05
-6.60625437139395e-05
-5.79276569459567e-05
-4.94822390078931e-05
-4.06807235641662e-05
-3.14429582577787e-05
-2.17392703448924e-05
-1.14915409398008e-05
-4.26433657958047e-06
-2.34902972213744e-06
-4.6083795463266e-07
1.58302293629488e-06
3.68222234062564e-06
5.95950234075279e-06
8.09327268628978e-06
1.27929775882471e-05
1.44153638823615e-05
1.54048520829487e-05
6.1575966965234e-06
-1.53346482923347e-05
-6.18316392846848e-05
-0.000147483545159448
-0.000280009470889257
-0.000410467701329008
-0.000476664191564446
-0.000470995558762306
-0.000376250767643663
-0.000317899642904263
-0.000310731776198989
-0.000498936431944971
-0.00131274234737887
-0.00543980460489133
-0.0219430188082613
-0.000781523365809316
-0.00257144233144904
-0.000123564075990348
-0.000812581535179722
-2.81947096092266e-05
-0.000259586584851284
-2.60137362515645e-05
-7.85875681084734e-07
-7.0420911895583e-07
-9.76221536783717e-07
-1.61661731850131e-06
-2.72714404254626e-06
-6.45921213133142e-06
-1.38670420455045e-05
-2.24750370772157e-05
-2.34479306822411e-05
-1.06044356353629e-05
-1.68470920333626e-06
1.8837553977581e-06
-2.2763501148104e-07
-4.33315941266321e-06
-1.20228122141741e-05
-2.27499643911169e-05
-3.53216281099363e-05
-4.85663018910458e-05
-6.16725934896368e-05
-7.42046430122995e-05
-8.59410493557273e-05
-9.68390055952884e-05
-0.000106920375202749
-0.000116260171758046
-0.000124935361721369
-0.000133025260295017
-0.000140600799918995
-0.00014772514369489
-0.000154453528302766
-0.000160838809179281
-0.000166939023031973
-0.000172841471072363
-0.000178746030404852
-0.000184715244908262
-0.000198275680534475
-0.000220626735282104
-0.000235658864117388
-0.000250073663712874
-0.000263750651615714
-0.000276646161991573
-0.000288719055375524
-0.000299934051905949
-0.000310261292823216
-0.000319677973964678
-0.000328167506711997
-0.000335720179469956
-0.000342332248401524
-0.00034800565063063
-0.000352747411357399
-0.000356569049810527
-0.000359486023645301
-0.000361517385556345
-0.000362685194650665
-0.000363014673949953
-0.000362533978869521
-0.000361274445526162
-0.000359271016492408
-0.00035656193688138
-0.000353188330499272
-0.000349190287641162
-0.000344604182449717
-0.000339452803070137
-0.000333747481985316
-0.000327486287787644
-0.000320681362298011
-0.000313373173122903
-0.000305602012568095
-0.000297429293500183
-0.000288895088516393
-0.000280015944058322
-0.00027080821901538
-0.000261247862608815
-0.000251344827923978
-0.000241089422825774
-0.000230525442353911
-0.000219293800105043
-0.00020638584892354
-0.00019472445803767
-0.000182660013907483
-0.000170146698785855
-0.000157128666555488
-0.000143531651586338
-0.000129251512330934
-0.000114142220374287
-9.80493835556104e-05
-8.07530723249147e-05
-6.20582020573907e-05
-4.16750334106149e-05
-2.30922621016979e-05
-1.31205867061661e-05
-2.9445452909388e-06
7.82365665149752e-06
1.87831595166519e-05
3.01408016452381e-05
4.05348004008558e-05
5.05613379246238e-05
6.35716112036851e-05
7.5304750867712e-05
4.566967673641e-05
-3.55865718823033e-05
-0.0001892555068932
-0.000409597421596002
-0.000729881791553708
-0.00107461000435394
-0.0012557729811838
-0.00128893617964151
-0.00112069849815795
-0.00101184180289894
-0.00103729153138769
-0.00159691642093779
-0.00380006718066814
-0.012515053747897
-0.0328643344517536
0.000837970588044599
-0.00757308825143561
0.0020253066183392
-0.00254816417280759
4.22060553376358e-06
-0.00056549704081135
-7.42144474370813e-05
-2.23886544055033e-06
-2.30091574322842e-06
-3.10282568885948e-06
-5.16808354374392e-06
-8.83265357640681e-06
-1.82981315759907e-05
-3.51537201073218e-05
-5.25370836572668e-05
-5.46828437848793e-05
-2.59127670291599e-05
-2.28242477967238e-06
4.13647569923741e-06
-2.236181015938e-06
-1.3375416454792e-05
-3.04656153568826e-05
-5.12083734433617e-05
-7.34867587598881e-05
-9.61671717012888e-05
-0.000118442201090728
-0.000139820424705919
-0.00015990912318197
-0.000178625530557633
-0.000195982443603449
-0.000212117938272429
-0.00022717098662229
-0.000241290700597076
-0.00025460382739388
-0.000267217824835931
-0.000279218748242045
-0.000290679920484931
-0.00030167023218234
-0.000312280058170137
-0.000322908529983118
-0.000340510543498887
-0.000366925672200724
-0.000379511427051711
-0.000391496024068039
-0.000402462116368068
-0.000412390575999506
-0.000421299036511877
-0.000429204030971666
-0.000436126509426652
-0.000442089754640289
-0.000447121546655782
-0.00045125134775548
-0.00045451128055968
-0.000456934172416301
-0.000458553135664435
-0.000459401095443047
-0.000459510222512361
-0.000458911631864089
-0.000457635569631439
-0.000455710869182128
-0.000453165879311817
-0.00045002863477537
-0.000446327393660325
-0.000442091617675284
-0.000437352169025148
-0.000432140257928916
-0.00042648427092574
-0.000420405303801728
-0.000413909819321177
-0.000406990238904402
-0.000399628136375811
-0.000391824782691296
-0.000383613422312872
-0.000375020097472567
-0.000366093728487919
-0.000356860440398557
-0.000347316542906503
-0.000337468527667009
-0.000327272240705517
-0.000316722490215989
-0.000305717585145158
-0.000291243537626823
-0.000279465283101832
-0.000267306565571398
-0.000254689708482235
-0.000241586462826212
-0.000227923730435472
-0.000213621255525791
-0.000198574302212167
-0.00018264176608199
-0.000165632439273723
-0.000147323630536285
-0.000127413912667496
-0.00010557787457338
-8.13729359177042e-05
-5.26363363403875e-05
-3.13824336695896e-05
-8.26718724780148e-06
1.68838631387984e-05
4.35850034661479e-05
7.20037084703038e-05
9.96264607780381e-05
0.00012648306283967
0.000145759073496641
0.000173806359775046
0.000159163178693354
-1.87583938628039e-06
-0.00030532634441676
-0.00061906074124923
-0.00109711197629235
-0.00155940109075005
-0.00185685924854646
-0.00198818515078714
-0.00188576147696415
-0.00183984654419363
-0.00200825159876892
-0.00301027924573192
-0.00645173239545484
-0.0162346415438655
-0.0290478630119117
0.00431203410579201
-0.0148622032603112
0.00334592164217114
-0.00389874926244227
0.000310447077354904
-0.000921643830917437
-0.000162406203878881
-4.86362161464758e-06
-5.77240977831986e-06
-7.66947567690728e-06
-1.27168512649461e-05
-2.15318363864852e-05
-3.99035719173701e-05
-6.7999824115967e-05
-9.0958644918918e-05
-9.07439317516833e-05
-4.62090133323021e-05
2.84230861466214e-06
4.79958597030538e-06
-6.47573683247812e-06
-2.45652806371413e-05
-4.80209013996018e-05
-7.6228699178869e-05
-0.000108305551303915
-0.000142970398170918
-0.000177716989749944
-0.000210834213254869
-0.000241219793859412
-0.000268701076083104
-0.000293381545455896
-0.000315605771993908
-0.000335698653600019
-0.000353976934483703
-0.000370695881948469
-0.000386063888106215
-0.000400243814616215
-0.000413368413610886
-0.000425551121113672
-0.000436846576941226
-0.000448884934652491
-0.000477254689810061
-0.000485975276376716
-0.000494342701990966
-0.000501777161319222
-0.000508149791787996
-0.000513488121795424
-0.000517841326738989
-0.000521255339965904
-0.000523778924981331
-0.000525461401951386
-0.000526354245727827
-0.000526507999541105
-0.000525972944679673
-0.000524796762361787
-0.000523024238510908
-0.000520696717225826
-0.000517851804644945
-0.000514523177993608
-0.000510741173076074
-0.000506532200713222
-0.00050192028538298
-0.000496927302211649
-0.000491573733016231
-0.000485880081885121
-0.000479867211956312
-0.000473555540053034
-0.000466961995001155
-0.000460095885134785
-0.000452951740398598
-0.000445510099667579
-0.000437740038492104
-0.000429631923501387
-0.000421210958768252
-0.000412490250189816
-0.000403508000626437
-0.00039428021301136
-0.00038479330621114
-0.000375043307279078
-0.000364977590415707
-0.000353247030672612
-0.000339597098113116
-0.000328307879022858
-0.00031663868240211
-0.000304596435430596
-0.000292095605040983
-0.000279093006785518
-0.000265508805437041
-0.000251253615743828
-0.000236212832068379
-0.000220235162032464
-0.000203118953845824
-0.000184620161328025
-0.000164414764718509
-0.000142128078060325
-0.000117268387218611
-8.4496569391255e-05
-5.74987808794163e-05
-2.64715278222895e-05
8.24730258125516e-06
4.68153117366047e-05
8.98193177305807e-05
0.000135156009954734
0.00018246246791205
0.000223636008015969
0.00025889063555993
0.000287448185822018
0.00010363954786623
-0.000334500184649879
-0.000687475689269979
-0.00123167215332854
-0.00165765216626335
-0.00197890893689971
-0.00216534310236404
-0.00216624254429894
-0.00221854544290599
-0.00252952284830802
-0.00371036679440213
-0.00734620079633379
-0.0146383537710217
-0.0211782095089949
0.00460365029781453
-0.0207228783595475
0.0020473328030375
-0.00419594785755916
0.000825537597969181
-0.00114552849285554
-0.000279856887286847
-8.49776837807874e-06
-1.19774603330544e-05
-1.58198316232874e-05
-2.57554578254381e-05
-4.22362965194749e-05
-7.00089209666926e-05
-0.000104095321013268
-0.000121828157479487
-0.000110940128098968
-6.40311833352693e-05
1.44952715850276e-05
5.27528604855944e-06
-9.46508005920738e-06
-3.33186091555609e-05
-6.56621008826024e-05
-0.000108438005398176
-0.000157264705000821
-0.000207783802070705
-0.000255408891614764
-0.000298353117199895
-0.00033586766237932
-0.000368400004106645
-0.000396533075221313
-0.000421005593472263
-0.00044241582002553
-0.00046128008493845
-0.000477992622812523
-0.00049286450636685
-0.000506135320653193
-0.000517997619556652
-0.000528623668217498
-0.000537751805693961
-0.00056281314923058
-0.000568516603371937
-0.000573996117228378
-0.000578727986540686
-0.000582468949715635
-0.000585196897557488
-0.000586962514841099
-0.000587829529652755
-0.000587858059583779
-0.000587110168576522
-0.000585647957667394
-0.000583534237337209
-0.000580829730649464
-0.000577593167061949
-0.00057387876758454
-0.000569736067500252
-0.000565209147848555
-0.000560336631818839
-0.000555151448033543
-0.000549681740452095
-0.00054395013217572
-0.000537975768425546
-0.000531774470928287
-0.000525359671785721
-0.000518744170552477
-0.000511940561818689
-0.000504960895565363
-0.000497813663619515
-0.000490500468553926
-0.000483008155129691
-0.000475310081166666
-0.000467365798822296
-0.00045915603856953
-0.000450699046950938
-0.000441998026889521
-0.000433083481208135
-0.000423964764676438
-0.00041462521997633
-0.00040504938203214
-0.000393565832986332
-0.000380111427259767
-0.000369325854254788
-0.000358217666173461
-0.000346748915742755
-0.00033491029544922
-0.000322619678301904
-0.000309824010300228
-0.000296440882463066
-0.000282376397805977
-0.00026751196627218
-0.000251693145643798
-0.000234716286645385
-0.000216330249778293
-0.000196204493594273
-0.000173944549260721
-0.000149040688445106
-0.000120876288129404
-8.66910339402492e-05
-5.24896846708668e-05
-1.38325814882617e-05
3.0142019961901e-05
8.04935552796661e-05
0.000136186455101881
0.000197208438712149
0.000256758560597308
0.000313349490604646
0.000357774554513518
0.000227216021374997
-0.000297237998034569
-0.000738065087033654
-0.00118001407575033
-0.00156299885760736
-0.00185217649177573
-0.00203532602780222
-0.00207738536433709
-0.00215244961536989
-0.00246878972353741
-0.00349684673497414
-0.00660708065553298
-0.011039723165405
-0.0149887131346758
0.00655349750026111
-0.0217717602725984
0.000622563912664991
-0.00372156025192733
0.000742484341727557
-0.00107984864209306
-0.000373130855622822
-1.15585831387384e-05
-2.12823956125591e-05
-2.81227774293453e-05
-4.41994175825902e-05
-6.8602550967575e-05
-0.000101198582030484
-0.000130587517856076
-0.000134027385329031
-0.000110895509581609
-5.96745962620242e-05
1.96719005678171e-05
5.52123124988013e-06
-1.30845815646981e-05
-4.95265726007011e-05
-9.83719022986418e-05
-0.000159435860658858
-0.000223557585432961
-0.000285822203357484
-0.000341429837422583
-0.000389485520215951
-0.000429938313818115
-0.000463912591974932
-0.000492438216423799
-0.000516572843400169
-0.000537120854174153
-0.000554736107707811
-0.000569903642837672
-0.000582998826881779
-0.000594307841387591
-0.000604057311259522
-0.000612510319987887
-0.000623869063904722
-0.000637413807765893
-0.000640869596408544
-0.000643707160334388
-0.00064565772243702
-0.000646628899497572
-0.000646647152625494
-0.000645777254442166
-0.000644090783540979
-0.000641655890029344
-0.000638542001378544
-0.000634818475083588
-0.000630554406531193
-0.000625816225302163
-0.000620667259056645
-0.000615165070439598
-0.000609361413388349
-0.000603301189891991
-0.000597022737217814
-0.000590557457412368
-0.000583931048611333
-0.000577162516047303
-0.000570266691077814
-0.000563254241835759
-0.000556132751128348
-0.00054890876405698
-0.000541588337443576
-0.000534177160534912
-0.000526677638561797
-0.000519086313142718
-0.000511385076289615
-0.000503542764986423
-0.000495511315250274
-0.000487262920036023
-0.000478809708082156
-0.000470147301714706
-0.000461300434262073
-0.000452273784796767
-0.000443052073385394
-0.000432502197892049
-0.00041853515243887
-0.000408179199364109
-0.000397504871551217
-0.000386518868679937
-0.000375181319213824
-0.000363471373833569
-0.000351310601271397
-0.000338639325728025
-0.000325373013139835
-0.000311414183515255
-0.000296641143680866
-0.00028089703984513
-0.000263976682201027
-0.000245624373196952
-0.000225504975912065
-0.0002032117432085
-0.000178222826183284
-0.000150021469155636
-0.000114949151902523
-7.93376392221539e-05
-3.88448969921575e-05
7.75776151051654e-06
6.18389622765587e-05
0.000123218404339598
0.000192342849955928
0.000264143362476255
0.000336314164288606
0.000399272606285323
0.000318746619178975
-0.000278055112942543
-0.000690826744411704
-0.00108021796477145
-0.00141339505720172
-0.00165925913453553
-0.00181712122873633
-0.00185677456485387
-0.00190187614670885
-0.00212940619598872
-0.00285692144226588
-0.00525268960918169
-0.00757510958192853
-0.0104862092724992
0.00704084941927823
-0.0196396403803441
0.00173820337115708
-0.00358776169764619
0.00115418125664635
-0.000748680824665769
-0.000361837235534029
-9.36405562074345e-06
-3.27784118957151e-05
-4.37307938728947e-05
-6.52996376056013e-05
-9.4377610556634e-05
-0.00012460524549872
-0.0001420141204516
-0.000130822425156995
-9.84492493839367e-05
-4.62449873605738e-05
2.1474140117091e-05
2.35113593292271e-06
-2.60683778385721e-05
-8.09521019794544e-05
-0.000145881575940212
-0.000221268931570581
-0.000295821663450508
-0.000365207648190098
-0.00042474581254513
-0.000474599760719617
-0.000515438291895335
-0.00054893637507925
-0.000576444093074922
-0.000599216321827136
-0.00061817629156319
-0.000634048586030202
-0.000647362252163554
-0.000658522619705628
-0.000667837097132943
-0.00067553530923786
-0.000681472994403572
-0.000697805493699566
-0.000699575744088389
-0.00070116350493093
-0.000701947824080822
-0.00070179801551354
-0.000700699225925247
-0.00069870445183735
-0.000695887751613091
-0.000692325215104709
-0.000688089749327776
-0.000683254965404919
-0.000677894445596176
-0.000672080853653554
-0.000665883864068903
-0.000659369355502641
-0.000652596536130806
-0.000645618079932807
-0.000638478778476357
-0.000631216118081015
-0.000623859711971425
-0.000616432889415863
-0.000608951348805965
-0.000601426169281051
-0.00059386364092401
-0.000586266451154308
-0.0005786359975894
-0.000570973092717548
-0.000563278483515464
-0.000555550122565699
-0.000547781186369565
-0.000539950391781417
-0.000532023704260667
-0.000523946810031584
-0.000515684257789061
-0.000507242573517894
-0.000498611551704568
-0.000489811311828937
-0.000480842869246029
-0.000471684046517615
-0.000456662085452386
-0.000446639101855346
-0.00043631935020209
-0.000425692707053494
-0.000414755672469299
-0.000403467434373947
-0.000391798897821897
-0.000379674256260556
-0.000367028883354934
-0.000353775860357723
-0.000339814062231973
-0.000325018311962947
-0.000309228594929445
-0.00029223694188859
-0.000273782541872046
-0.000253524348382159
-0.00023104428018644
-0.000205807564231485
-0.000177239743440683
-0.000141642671077021
-0.000105049174824899
-6.32484719280455e-05
-1.48418831929974e-05
4.17337678549171e-05
0.000106899168645498
0.000181505102331394
0.000261970271950058
0.000345703004164237
0.000424067767672922
0.000348916903123806
-0.000212898027410878
-0.000612339678532958
-0.000966431721382403
-0.00125574324556381
-0.00146242516661116
-0.00159170400627227
-0.00161100088996703
-0.00160794651155321
-0.00171631310522906
-0.0021325123740588
-0.00384886079014188
-0.00472611735397926
-0.00699365906682886
0.00664094971100155
-0.0172998186421903
0.00597246322008215
-0.00387668133312101
0.00204652349837232
-0.000259376372631443
-0.00020666878578196
7.14390655844588e-06
-4.35952824817648e-05
-6.01165833911676e-05
-8.46906519563865e-05
-0.000113838081952407
-0.000137230054660655
-0.000142641816883942
-0.000121062569592605
-8.26048816552818e-05
-3.22453526685897e-05
1.77501823443281e-05
-9.32884188229695e-06
-5.20952814291052e-05
-0.000123591264585072
-0.000199925674561782
-0.000285693650451685
-0.000366979797439898
-0.000440059120027694
-0.000500854904336027
-0.000550627365456776
-0.000590637627860728
-0.000622905790124444
-0.000648961156048505
-0.00067015279892304
-0.000687460286092101
-0.000701637051841992
-0.000713229532300946
-0.000722654955617106
-0.000730230739603687
-0.000736210527567923
-0.000738964626096719
-0.000752425483809865
-0.000753036387336878
-0.00075313691247486
-0.000752347115757869
-0.000750614882836803
-0.000747969708461247
-0.000744480906445471
-0.000740228606449641
-0.000735291281122006
-0.000729744392225538
-0.000723663609060486
-0.000717124690682486
-0.000710202070132304
-0.00070296699497325
-0.000695486550283109
-0.000687820455046043
-0.000680021450402613
-0.000672133613081883
-0.000664193231085255
-0.000656227977819817
-0.000648258922172702
-0.000640298704934581
-0.000632355091286924
-0.000624430587875526
-0.000616523700844699
-0.000608631504216658
-0.000600750521330668
-0.000592877573699024
-0.000585007314780572
-0.000577130698085036
-0.000569224485055687
-0.00056125290509634
-0.000553156478366452
-0.000544892870547961
-0.000536463257239351
-0.00052785305014131
-0.000519078429300511
-0.000510136965651704
-0.000496641266031104
-0.000485392004295852
-0.000475346617663547
-0.000465015299532906
-0.000454379109030982
-0.000443426895312728
-0.000432117013974198
-0.000420414168734866
-0.000408244209817669
-0.00039553842319978
-0.000382207139252189
-0.000368145263476285
-0.000353223477825176
-0.00033727758938619
-0.000320095413309922
-0.000301409745702077
-0.000280871781682615
-0.000258051144682486
-0.000232398056754908
-0.000203297614234173
-0.000167012692616538
-0.000129466574560887
-8.64035821815471e-05
-3.63612682091712e-05
2.23476149806954e-05
9.05723755718922e-05
0.000169499356223506
0.000256757716620544
0.00034980087594648
0.000441538946321264
0.000372872663781706
-0.000149895292308358
-0.000527152683655673
-0.000849738555952869
-0.00110247561394657
-0.00127670464441822
-0.00137933498392672
-0.00137180192793293
-0.00131695854447788
-0.00130397406269508
-0.00144338474130952
-0.00256294735460005
-0.00243246702418686
-0.00410809780680442
0.00579110882435564
-0.0158105186258157
0.0117440290477559
-0.00443820297317769
0.00302363789835273
0.00040250337682834
4.80684844449601e-05
4.92252306248068e-05
-4.90392068674284e-05
-7.41047466236703e-05
-9.92492184584927e-05
-0.000125692446442163
-0.000141868168993938
-0.000138879105957435
-0.000110869315061334
-6.83880410301151e-05
-2.20089967564436e-05
7.51935514977173e-06
-3.14034403142677e-05
-8.78199383265058e-05
-0.000170738389870451
-0.000255428519256943
-0.000348832910680143
-0.00043394200850388
-0.000508295141934596
-0.000568807751086535
-0.000617608535061762
-0.000656342855374305
-0.000687193537292793
-0.000711771320085259
-0.00073145903437228
-0.000747260161580599
-0.000759937085484504
-0.000770041641098291
-0.000777995111793111
-0.000784119813452088
-0.000788846738198856
-0.000799228436820079
-0.000800385510386259
-0.000800026665247159
-0.000798975541763756
-0.000796996895908168
-0.00079408641556417
-0.000790300982011989
-0.000785720532368685
-0.000780428848120845
-0.000774505179231495
-0.000768025854678611
-0.00076106697747675
-0.000753704918990632
-0.000746014529384461
-0.000738067339259814
-0.000729930635920208
-0.000721663773060286
-0.000713318907905098
-0.000704938930850415
-0.000696558662624509
-0.000688203701275097
-0.000679892942923586
-0.000671636142517718
-0.00066343808297259
-0.000655297943197713
-0.000647210590243972
-0.00063916940344154
-0.000631167342349031
-0.00062319805784433
-0.000615253744699373
-0.0006073239420987
-0.000599384334079163
-0.000591398266678343
-0.000583302019764735
-0.000575047066159695
-0.000566629240578502
-0.000558030910823043
-0.000549264557959731
-0.00053759281230098
-0.000524761776629614
-0.000514943081003509
-0.000504844561814148
-0.000494460527289421
-0.000483766554495216
-0.000472745503178647
-0.000461354787980915
-0.000449554184513168
-0.000437270478638754
-0.000424431326369968
-0.000410943946334318
-0.00039669888235448
-0.000381561989542363
-0.000365363902999769
-0.000347886903367732
-0.000328856022961156
-0.000307912922977944
-0.000284613456162804
-0.000258390745236363
-0.000228596591620505
-0.000191404645925742
-0.000152823886001813
-0.000108405057581286
-5.66862464492525e-05
4.09721580370702e-06
7.51112161437841e-05
0.000157816036604943
0.000250838087048866
0.000351890129420059
0.000455754430319756
0.000393543439067496
-9.12340924015122e-05
-0.000439921650424216
-0.000733721777269814
-0.000955904408072364
-0.00110355761115171
-0.00118202528967342
-0.00114531468794795
-0.00103930955601513
-0.000911082141773325
-0.000812509361719213
-0.00141123084613773
-0.000548155780560085
-0.0016767660150155
0.00408185735623819
-0.0146634450843735
0.0165197865709387
-0.00540147534194996
0.00354902424259132
0.00140318744226254
0.000319409686650735
0.000123842902133294
-4.38899534377557e-05
-8.33811703947049e-05
-0.000108458031367908
-0.000131907987604477
-0.0001424870813581
-0.000134795828160112
-0.000102984570176248
-5.7938025906782e-05
-1.69054833344703e-05
-9.35904866773564e-06
-6.20853153056439e-05
-0.000127905135864952
-0.000218633604508775
-0.000310314844974111
-0.00040884530108524
-0.000495531449240337
-0.000569641836050075
-0.000629102670617693
-0.000676585282368028
-0.000713945500987951
-0.000743410014741808
-0.000766617162774513
-0.000784954366220281
-0.000799434700348402
-0.000810821271230978