/*--------------------------------*- C++ -*----------------------------------*\
  =========                 |
  \\      /  F ield         | OpenFOAM: The Open Source CFD Toolbox
   \\    /   O peration     | Website:  https://openfoam.org
    \\  /    A nd           | Version:  7
     \\/     M anipulation  |
\*---------------------------------------------------------------------------*/
FoamFile
{
    version     2.0;
    format      ascii;
    class       volScalarField;
    location    "20000";
    object      k_diff;
}
// * * * * * * * * * * * * * * * * * * * * * * * * * * * * * * * * * * * * * //

dimensions      [0 2 -3 0 0 0 0];

internalField   nonuniform List<scalar> 
15600
(
0.000891633300123362
0.00026755130470886
4.31814464421949e-05
0.000100403145144194
1.9517257718107e-05
1.41675048949211e-06
2.76993206861771e-06
3.57661823585897e-06
4.63379488497944e-06
6.15502976780202e-06
7.90002944192257e-06
9.33112897601741e-06
9.42924813706389e-06
7.40491948582459e-06
3.95410413041559e-06
1.77946680618634e-06
2.25767397294343e-06
4.27606534056205e-06
7.25589709712314e-06
1.17998694832297e-05
1.81145215905508e-05
2.61940026937152e-05
3.58300925134288e-05
4.67289538722875e-05
5.86043716427416e-05
7.12283235123276e-05
8.44317819157369e-05
9.80954947723317e-05
0.000112132794585519
0.000126478180384459
0.000141077322086539
0.000155881083184092
0.000170841991244692
0.000185912356636461
0.000201043500826571
0.000216186289053926
0.000231292828689684
0.000246319985909144
0.000261235552390996
0.000276014611250517
0.000290656690671582
0.000305178669783105
0.000319376479894843
0.000333041459894798
0.000346129543069283
0.000358588247377744
0.000370369420573695
0.000381430383728317
0.000391734027506943
0.000401249883158796
0.00040995401950255
0.000417829318790895
0.00042486541918537
0.000431058294104528
0.000436409981261279
0.000440928073595204
0.000444625162126196
0.000447518370948594
0.000449628801128941
0.000450980970286705
0.000451602486851762
0.000451523676170411
0.000450776970316024
0.000449397049169576
0.000447418971966628
0.000444878219551757
0.000441805799764063
0.000438229184691078
0.000434167795339672
0.000429640323255824
0.000424672956720617
0.000419298194632805
0.000413552447259056
0.000407468806194984
0.000401076297106983
0.000394384512782922
0.000387411744891643
0.000380166640518861
0.000372663834303614
0.00036489778990339
0.000356915644024867
0.000348660196859188
0.000340182048600643
0.000331427886717718
0.000322389510241784
0.000313069566646801
0.000303427350195031
0.000293424157609285
0.00028301823463373
0.000272155151621241
0.000260761012460141
0.000248762747615876
0.000236066347971164
0.000222866633867065
0.000209582301942103
0.000195557010780725
0.000180604605277034
0.000164694176474712
0.000147743507239928
0.0001300416208704
0.000111603935695101
9.34108282090781e-05
7.54925227102744e-05
5.84220999432567e-05
5.57269964779436e-05
9.12716459354384e-05
0.000154628147875946
0.000253901621592412
0.000371477778347965
0.000479935001365763
0.000566007960156842
0.000613064318046572
0.000665832130789311
0.000744586715360123
0.000941712436601121
0.00139879491931102
0.00284895496782015
0.00775975937263289
0.00374076981883121
0.00126141488835387
0.00481642024616688
0.00149551113992143
0.000256184116601746
0.000539762987135551
0.000118208530438791
9.82226781566989e-06
1.4989479178819e-05
1.93836291989469e-05
2.50612307754019e-05
3.32727701195727e-05
4.26897097002251e-05
5.04499337533638e-05
5.11360855116131e-05
4.05683771628379e-05
2.2027931343777e-05
9.87467413514919e-06
1.25321199869026e-05
2.36483741076987e-05
3.99900021115268e-05
6.48603022107976e-05
9.929283296436e-05
0.000143184614162281
0.000195352054320704
0.000254171362481792
0.000318087556661198
0.000385875592953898
0.0004566372621845
0.000529745641490236
0.000604750454222956
0.000681315902481913
0.000759166826976255
0.000838056768964194
0.000917749053080589
0.000998006588981841
0.00107858742417292
0.00115924702038979
0.00123974620882421
0.00131986850679043
0.00139945666783784
0.00147838546782624
0.00155666283508231
0.0016334307746184
0.00170710351404236
0.00177805372994629
0.0018459971817008
0.00191068220782065
0.00197187813123319
0.0020293800310933
0.00208300973194698
0.00213262025546189
0.00217809558469551
0.00221935189876432
0.00225633719742979
0.00228902953370922
0.00231743576407205
0.00234158927855209
0.00236154756844068
0.00237739015000575
0.0023892160077952
0.0023971411903156
0.00240129730140835
0.00240182965084776
0.00239889476259652
0.00239266025426203
0.00238329694045671
0.00237097698443446
0.00235585292431191
0.00233805925291808
0.0023176940264361
0.00229485300220101
0.00226966759074935
0.00224230269771644
0.0022129394450528
0.00218174621258422
0.00214887042215785
0.00211436217643064
0.00207832135499039
0.00204079314994435
0.00200185729718412
0.00196147717374873
0.00191991165198799
0.00187685137107697
0.0018325749752662
0.00178679965107529
0.00173948319431187
0.00169064443928406
0.00164007083685422
0.00158758810192475
0.0015329385813349
0.00147583056377359
0.00141589466746613
0.00135272893229272
0.00128582478765847
0.00121554774792072
0.001143617460211
0.00106767532039845
0.000986700346137999
0.000900496569742473
0.000808706438617187
0.000712620501515895
0.000612406208257374
0.000513241541154071
0.00041542654275573
0.000321924388753113
0.000308570990772887
0.000507063395653557
0.000851435056826607
0.00137992000696698
0.00200076166337136
0.00257601420749219
0.00303905083372645
0.00331248294267427
0.00361845091512722
0.00407154537305811
0.0051660139188631
0.00766416597017156
0.0151585466103438
0.0352537850390629
0.0191771867542412
0.00660511655193859
0.0107570409511336
0.00366699539255171
0.000658676023497728
0.00123035277835201
0.000309031995920023
2.92926401689712e-05
3.59869448642781e-05
4.6421742053936e-05
5.98072147483013e-05
7.91997491340271e-05
0.000101019988586056
0.000118324062470661
0.000118796025021625
9.43601492485596e-05
5.26269229954424e-05
2.402499683932e-05
3.12085805469029e-05
5.82791382157155e-05
9.77088223985008e-05
0.000156871691751734
0.000237213829039229
0.000337523093859651
0.000454411666289413
0.000583912326962613
0.000722577022044696
0.00086789055484788
0.00101813935066912
0.00117222279145713
0.00132941672016873
0.00148923217646914
0.00165129659562395
0.00181528741687717
0.00198089168428835
0.00214778400511975
0.002315615130488
0.00248401275060608
0.00265258901641057
0.00282096218735442
0.00298888093791564
0.00315609125151258
0.00331900340250431
0.00347355783562049
0.00362458066946027
0.00377082772688475
0.00391179664369987
0.00404699608719698
0.00417595904002455
0.00429825210765247
0.00441348021263598
0.00452129552145163
0.00462139966275285
0.00471354800513379
0.004797550825296
0.00487327257308543
0.00494063140691827
0.00499959695422373
0.00505018760984804
0.00509246811264475
0.00512654581513541
0.00515256743706442
0.00517071662964232
0.00518121056979482
0.00518429630187
0.00518024891709269
0.005169359952775
0.00515193034138553
0.00512823920750758
0.00509853969896448
0.00506303168669477
0.00502191359285544
0.00497544560220539
0.00492396106511158
0.00486781581816351
0.00480735881865851
0.00474290661888267
0.00467458534223508
0.00460264719971545
0.00452721109923679
0.00444848269974492
0.0043663768577897
0.00428150804595696
0.00419322435742338
0.00410218240364477
0.00400804023938376
0.00391062826372874
0.00380955985532211
0.00370476750076613
0.00359590182807466
0.00348248994181941
0.00336393424593311
0.00323947602189474
0.00310822260982739
0.00296905461141196
0.00281953949639386
0.00266168547116597
0.0024945032970657
0.00231565697160924
0.00212412343664354
0.00191883075600737
0.0017017129274059
0.00147554101990498
0.00124569846109353
0.00101599606343776
0.000787296875769813
0.000746066376207863
0.00119936306219246
0.00196787716561512
0.00311987651385927
0.00447074609628598
0.00575899784582269
0.00684279792868842
0.00757983123124546
0.0083821568467433
0.00951593979363026
0.0120365226753865
0.0174080733070499
0.0313150027476799
0.0559268418703107
0.0402299943860658
0.0134846350846319
0.0127067812766117
0.00596560317262337
0.00121228684403919
0.00189834021182572
0.000561489965649835
6.12775868933782e-05
6.17985154367504e-05
7.92088735115726e-05
0.000101425665846531
0.000133366851627085
0.000167696704026959
0.000192107962093746
0.000187837984848614
0.000147224585935784
8.57645357678258e-05
4.18554951973648e-05
5.75357995798833e-05
0.000103664489335975
0.000169663444320796
0.000262880681553571
0.000382049230561173
0.000523155538999003
0.000681073196502254
0.000851319807713941
0.00103060608414956
0.0012168416069823
0.00140869710257964
0.00160537739929332
0.00180634171694934
0.00201119314847052
0.00221955966651193
0.00243104699095765
0.00264520660126289
0.00286152559690163
0.00307942402688872
0.00329826252030289
0.00351734303605047
0.00373587630002494
0.00395336951493887
0.00416191678528621
0.00435821112618709
0.00455509216763275
0.00474637875007975
0.0049315367913574
0.00510989780431216
0.00528083671231924
0.00544377759755046
0.00559820286660064
0.0057436568850837
0.00587975298177133
0.00600617362107718
0.00612267233784212
0.00622907208080907
0.00632526212881449
0.00641119495042219
0.00648688176279646
0.00655238769429387
0.00660782765243709
0.0066533606321539
0.00668918537052393
0.00671553640421453
0.00673267933311237
0.00674090704318738
0.00674053674276233
0.00673190190305075
0.00671534459013647
0.0066911942052259
0.00665975835577579
0.00662130145970251
0.0065760746955055
0.00652437032611176
0.006466562121342
0.00640302727568736
0.00633415689571494
0.00626032495714994
0.00618169636223814
0.00609861705126187
0.00601124916402922
0.00591987216211598
0.00582437227439497
0.00572587492651857
0.00562462271675259
0.00551854971804979
0.00540874587024998
0.00529515137360647
0.00517769014308249
0.00505612807429893
0.00493014829920413
0.0047993011421822
0.00466297669662893
0.00452039378144682
0.00437054449155926
0.00421214478187882
0.00404073778768392
0.00385365730590211
0.00365427353161415
0.00343915919429847
0.00320528467083303
0.00294990494787502
0.00267167744225191
0.00237087038121576
0.00205809114421843
0.00173216674486438
0.00136515685671746
0.00125470911697528
0.00186990273020699
0.00295496456590348
0.00455026344182931
0.0064156898276926
0.00831479307790683
0.0100154332683047
0.0113727216223333
0.012821516257579
0.0147382029069073
0.0184845356405829
0.0254415478643401
0.0396763514938529
0.0547205835415825
0.0614565419858928
0.0160525144163218
0.00826417438591721
0.00703982372909261
0.00198634980469052
0.00233484509118329
0.00083701156060445
0.000107241175297751
9.01509756057077e-05
0.000114235726851364
0.000144708602942836
0.000187507850443483
0.000229741705695825
0.000253069766667198
0.000236315331099742
0.00017913578337748
0.000111851286864293
6.38688750845065e-05
9.11247147740217e-05
0.000153704983761727
0.00023560844915282
0.000340326751066204
0.000466870380477558
0.000615360431170537
0.000784465669267804
0.000971389909843296
0.0011723813581841
0.00138404350056832
0.00160347823897033
0.0018284836058593
0.00205729789962645
0.00228852370967735
0.00252096371391584
0.00275356191331491
0.00298534835074534
0.00321541931972587
0.00344292383364295
0.00366706063383861
0.00388706518318202
0.00410195537225159
0.00430447014895989
0.00449081283867997
0.00468133929718087
0.00486343725540433
0.00503744127471818
0.00520303347291481
0.00535989284842719
0.00550775118950772
0.0056463896099554
0.00577564063455386
0.00589538680893317
0.00600556182509347
0.00610614782118388
0.00619717414519186
0.00627871376865432
0.00635087952783997
0.00641382017191787
0.00646771629855834
0.00651277592179208
0.00654923126360852
0.00657733379335472
0.00659735124478734
0.00660956436851066
0.00661426312635718
0.00661174465588693
0.00660231100727967
0.00658626719172782
0.00656391606169418
0.00653555226679665
0.00650145177879864
0.0064618621581148
0.00641700189744907
0.00636709256711386
0.00631242187694836
0.00625325671824914
0.00618988978878408
0.00612261417114157
0.00605154630941124
0.00597699015988542
0.00589906332721378
0.00581807591614229
0.00573689782764358
0.00565015279423434
0.00556035220021229
0.00546779442457578
0.00537230614177624
0.00527385821370268
0.00517239467807207
0.0050677844189497
0.00495983309992498
0.00484826033250094
0.00473267234976203
0.00461256350073652
0.00448725630481514
0.00435587533411169
0.00421860751692511
0.00406600711544175
0.00390445709603441
0.0037304759402845
0.00354052344910505
0.00333117235789145
0.00309798456821844
0.00283869308454062
0.00255001493318857
0.00224658129470918
0.001880586298741
0.00168345128092507
0.00218607607455974
0.0033019674077925
0.00489475383840163
0.00686027724630129
0.00898415791735537
0.0110379893591482
0.0129208215279525
0.0149415595772093
0.0174737937695523
0.0217668542582644
0.0284795184646807
0.0397229644403454
0.0493858889154698
0.0732166110565841
0.0162393394235005
0.00621016053473735
0.00640224580083352
0.00328990365430283
0.00244603085030842
0.00108511948920457
0.000167972950792831
0.000119127052339906
0.000148196426827097
0.000184378311124473
0.000232840057741069
0.000273867978952039
0.000284451997042855
0.000248843155400904
0.000179131468046501
0.000121660317428088
9.34354342934412e-05
0.000125575974647048
0.000190947683103292
0.00026828602975869
0.000368503983619703
0.000501721560480049
0.000671716581940943
0.000871206598719485
0.00108948427835431
0.00131703144656977
0.00154788738944005
0.00177845517358903
0.00200682801269044
0.00223188118117951
0.00245296652203273
0.00266962887909149
0.00288152317057174
0.00308834769177495
0.00328982814587681
0.00348570588513442
0.00367573639968034
0.00385974466875371
0.00403599920521718
0.00418835974432666
0.00435087014422555
0.00450477107634274
0.00465086823672494
0.00478931337816178
0.00492000669264441
0.00504285024457404
0.00515777100387641
0.00526471945916755
0.00536367189668534
0.00545463139430422
0.00553762934314728
0.00561272531108525
0.00568000724845447
0.00573958967983451
0.00579161205474456
0.00583623614375291
0.00587364377061701
0.00590403363272822
0.00592761954206019
0.0059446262731244
0.0059552877157974
0.00595984413638074
0.00595853883253498
0.00595161686571737
0.0059393230128657
0.00592190275297596
0.00589959852684417
0.00587265167124019
0.00584129150985439
0.00580573264742649
0.0057661551922037
0.00572272106386267
0.00567564929939747
0.00562512668248781
0.0055713710723291
0.00551461137553265
0.00545492982644062
0.00539258790923655
0.00532900326608217
0.00526459947335438
0.00519517859658906
0.00512367799153444
0.00504984014559547
0.00497381796485137
0.00489552653965791
0.00481494306403531
0.00473202413862047
0.00464668141270726
0.00455878557864478
0.00446815060130509
0.00437451515414493
0.00427754266275259
0.00417678149189563
0.00407163920025354
0.00396560649255764
0.00384592031807912
0.00372115508061057
0.00358767696433961
0.00344276003322135
0.0032834328715677
0.00310536918380676
0.00290535106576351
0.00267776621156041
0.00242164894057702
0.00214638667172899
0.00191488027821006
0.00214970370068318
0.00308267721548811
0.0043825664655927
0.00616961546702742
0.00817415924989912
0.0102534194724079
0.0123648246248842
0.0146888824426621
0.0175384601299018
0.0218883886491773
0.0279527004311834
0.0373539343076671
0.0426600273653737
0.0590419499258177
0.0191773630186999
0.00890043630703534
0.00507338468956568
0.00513247808066769
0.00233023151185556
0.00125547652885333
0.000242545741816363
0.00014658142265016
0.000177273128848291
0.000214593709828703
0.000260581541537836
0.000289590546370744
0.0002788057659475
0.000225316041998191
0.000154175804749348
0.000109548611182991
0.000124662657129604
0.000149670147876904
0.000202475728534108
0.000275558342751151
0.000390989344886505
0.000556320148035792
0.000759087027206686
0.000977659179243093
0.00119826616285343
0.00141441512093918
0.00162459961521515
0.00182869616778188
0.00202714099270449
0.00222026786656178
0.00240833783656737
0.00259147778508674
0.0027697349941459
0.00294308742832304
0.00311147257380067
0.00327480005030702
0.00343295288446973
0.00358623291108164
0.00371715306055735
0.00385950141206859
0.00399422803574182
0.00412208815696301
0.00424344161942932
0.00435833391096502
0.00446669054140733
0.00456844538120951
0.00466354941817471
0.00475197085698932
0.00483369651291342
0.00490873387747886
0.00497711225675744
0.00503888363480355
0.00509412333034733
0.00514292864607387
0.005185418056518
0.0052217288783035
0.00525201568633982
0.00527644737685502
0.00529520606452978
0.00530848292306482
0.00531647680800657
0.00531939157971083
0.00531743274851911
0.0053108063637674
0.00529971695728128
0.00528436972176386
0.00526496761090198
0.00524171749218432
0.00521481964019546
0.00518447022222304
0.00515083018861264
0.00511402966528762
0.00507425016416099
0.00503163477458139
0.00498635929657125
0.00493861555451292
0.00488847485590526
0.0048377934718391
0.00478674703978693
0.00473085718193927
0.00467307426078115
0.00461354899315533
0.0045521528382281
0.00448898953614192
0.00442401847008774
0.00435723053013235
0.00428860208985002
0.00421807965800483
0.0041455841101302
0.00407099780618969
0.00399415313295179
0.00391482922654395
0.00383272836185947
0.00374744632413673
0.00365817426816317
0.00356731657942349
0.00346875135824853
0.00336384765450496
0.00325070699432276
0.00312678829466409
0.0029884152093425
0.00283189291215687
0.00265141968472478
0.00244295159973647
0.00222132994288524
0.00201659906042347
0.0020235421759245
0.002667395544702
0.00376309378750632
0.00526202077489235
0.00702202803019921
0.00894338415165834
0.0110321702443926
0.0134046010810545
0.0163409529824252
0.0205769233930609
0.0261314881692655
0.0337281840645084
0.0335871509671204
0.0412852016398368
0.0237687923517107
0.0143597467545929
0.00472344919947739
0.00628821577362125
0.00225184897664806
0.00133076244844131
0.000327886005095098
0.000170444818661708
0.000197820924095634
0.000230891894602575
0.000266502358027769
0.000276926515962623
0.000245687670576027
0.000182716145286025
0.00011896131762062
9.61732485391321e-05
0.000135085843076985
0.000155539423030978
0.000200751174113886
0.000289865878118862
0.000437876343984462
0.000628516671789999
0.00083353705326209
0.00103320988508432
0.00122377441131521
0.00140606538122214
0.00158233324334421
0.00175387417085157
0.00192149113595897
0.00208547938738985
0.00224593611308867
0.00240281922718992
0.00255603185073509
0.00270544058921019
0.00285090078109681
0.00299226503342067
0.00312931329654859
0.00325789462289305
0.00337805452969493
0.00350133021243856
0.00361849918085134
0.00372995465350283
0.00383584975278679
0.0039361680823287
0.00403083285720931
0.00411978141096039
0.00420296627503409
0.00428035587032775
0.00435193462449261
0.00441770540592225
0.00447769010956732
0.00453193077918171
0.00458049050515229
0.00462345204072616
0.00466091746216005
0.00469300583678805
0.00471985204136547
0.00474160380609855
0.00475842116088696
0.00477047206750857
0.00477793142569961
0.00478097844194136
0.00477979320614591
0.00477455560936882
0.0047654432908261
0.00475263431167062
0.00473630484123093
0.0047166380249647
0.00469381420124018
0.00466801829749521
0.00463940160203993
0.00460807573681762
0.00457419892183249
0.00453788664459579
0.00449928700333474
0.00445856473460968
0.00441689465919231
0.0043765842221645
0.00433073683486112
0.00428331263188803
0.00423428636565518
0.00418377355077282
0.00413171147709665
0.00407818497358446
0.00402318314437655
0.00396671238599561
0.00390876947509383
0.00384933077408422
0.00378835830866666
0.0037257885704966
0.00366152663750725
0.00359543986483722
0.00352734716531307
0.0034569832538335
0.00338369755289079
0.00331035758478614
0.00323081786682288
0.00314668510435263
0.00305661734392844
0.00295844979913478
0.00284917594508187
0.00272500328468613
0.00258046873209082
0.00240865748265869
0.00223401663132731
0.00205321083768082
0.00186978506637554
0.00235370582678435
0.0032308282882035
0.00446857677464969
0.00597960309852527
0.0076932412463784
0.0096417169947102
0.0119043677634582
0.0147485175311127
0.0187093545394203
0.0236107080625665
0.0289056162400029
0.0247081125062439
0.0273313946737071
0.0260121505697358
0.021182147412053
0.00505376615808076
0.00701948633632023
0.00242772605806168
0.00135031932701002
0.000420194175697502
0.00018981530640201
0.000208165053789748
0.000233262253895088
0.000254947245019246
0.000247843944046793
0.000204273734412081
0.000140790306663995
8.84597194035548e-05
8.34055412798833e-05
0.000129017425918604
0.000150979293707344
0.000205618171654418
0.000322786811758482
0.000493331350100187
0.000679169435165819
0.000857258308428725
0.00102173333804046
0.00117773491171531
0.00132880181932757
0.00147732734957689
0.00162403633023324
0.00176909487838348
0.00191229833760403
0.00205336959092262
0.00219200737182288
0.00232793222299621
0.0024608840848349
0.00259063005454256
0.00271697471509325
0.00284007368237311
0.00294772327290233
0.00306390079337844
0.00317415943500191
0.00327925622904029
0.00337939431432259
0.00347462267444819
0.00356489428579602
0.003650132883736
0.00373027961642481
0.00380528993517386
0.00387513457466257
0.0039397985110028
0.00399928357454775
0.00405360864248086
0.00410281069364566
0.00414694604806852
0.00418608875298894
0.00422033064284501
0.00424977893950506
0.00427455541216516
0.00429479329988615
0.00431063735308413
0.00432223915988696
0.00432975655070087
0.00433335104983984
0.00433318437052583
0.00432941732651477
0.00432220779232581
0.00431171352058752
0.00429809019091291
0.00428150226219234
0.00426211394057359
0.004240101669475
0.00421561144831039
0.00418874291823256
0.00415963770383452
0.00412839121139351
0.00409513058938953
0.00406000820394309
0.00402874949977824
0.00399076302791649
0.00395136040300661
0.0039105787087063
0.00386841536080159
0.00382496552568603
0.00378020551807079
0.00373421233629953
0.00368699650557837
0.00363857845139116
0.00358897264716869
0.0035381796078384
0.00348619403502732
0.0034329947814506
0.00337854321617608
0.00332277423727924
0.00326559565454884
0.00320684629385668
0.00314610116441484
0.00308612239320283
0.00302110009575521
0.00295281148449265
0.00288028831337352
0.00280167774619994
0.00271458734427411
0.00261536828834416
0.00249920539963427
0.00235711760437061
0.00222109770243344
0.00202974640496584
0.00178082236793524
0.00211465396638551
0.00280021563033781
0.00381558728666375
0.00510501976897881
0.00661687540608025
0.00839204349717721
0.0104759150384975
0.0131160191186662
0.0166602943501481
0.0207554312669421
0.0236968889238915
0.0170128466547536
0.0172977446349817
0.024737686138039
0.0279636957488735
0.00578329291555267
0.0072260063243713
0.0028989041766699
0.00137765184184787
0.000518612573407745
0.000206492453549116
0.000210193238758435
0.000226677597201954
0.000235499897275732
0.000216077470280851
0.000167717718167011
0.000108280800612781
6.73191077050298e-05
7.37865366804723e-05
0.000116920087982789
0.000148369276376483
0.000224264281643736
0.00036397970197851
0.000533355786834704
0.000692248104732447
0.000835428936197349
0.000967471233475586
0.00109598920685016
0.00122384870569367
0.00135229207272817
0.00148117375962001
0.00161002891053517
0.00173824812076355
0.00186527637864924
0.00199063260062614
0.00211391432825325
0.00223477803480672
0.00235293199902773
0.00246812456290913
0.00258197865039303
0.00268026477591392
0.00278578706661243
0.00288631798497528
0.00298231748510917
0.00307388371272154
0.0031610103056065
0.0032436364228244
0.00332169006294023
0.00339511838286265
0.00346388231061134
0.00352795766854535
0.00358733306054367
0.00364201255765396
0.00369201566501855
0.00373737804500861
0.00377815325013816
0.00381441072095697
0.00384623623415302
0.00387372939530878
0.0038970031306135
0.00391618039748628
0.00393139490866584
0.00394278605658026
0.0039504987496219
0.00395468098559608
0.00395548024937711
0.00395304241001436
0.00394750969271863
0.00393902343430221
0.00392772226862806
0.00391375454928246
0.00389726994550339
0.00387843739809182
0.00385739996287984
0.00383424915786129
0.00380911363032738
0.00378207280006675
0.00375323686405994
0.00372710996885611
0.00369701754280256
0.00366416632867946
0.00363005491511488
0.00359472809305211
0.00355819692277915
0.00352054320946542
0.00348176822148172
0.00344194579273885
0.00340110245255365
0.00335927057250933
0.00331647927158978
0.00327274829750783
0.00322809815851607
0.00318254101215661
0.00313608218607889
0.00308870883795512
0.00304039717039926
0.00299106510385079
0.00294044310160834
0.00289128575599605
0.00283783657166245
0.00278215693083004
0.00272352770670497
0.00266034355741255
0.00259075354654747
0.002511360730475
0.00241817873080411
0.00230089185285816
0.0021978779191753
0.00200545577539594
0.00170973127819417
0.00192297892047657
0.00244808013378289
0.00327376944916449
0.00437093198367873
0.00570075269854103
0.00730267058572555
0.00918769114332803
0.011573419043847
0.0146262824320516
0.0178434039649601
0.0185518375610205
0.0104851842027578
0.0100531995856939
0.0215888168260984
0.0327204663808718
0.00641836676427881
0.00705726815072575
0.00364973579003428
0.00144021938690864
0.000627149865861741
0.000225654708381522
0.000208592469548133
0.000217240783021567
0.00021553684088159
0.000188694154490522
0.000139471384158397
8.52571865935357e-05
5.41515841116516e-05
6.72516748723191e-05
0.000108074373823951
0.000154352584179947
0.000252658285021018
0.00039911450476252
0.000548052657745807
0.000673887429026585
0.000786378212773364
0.000893520910384969
0.00100181945674705
0.00111271552707998
0.00122633595547554
0.00134189633123922
0.00145849752970956
0.0015752704143946
0.00169148150869291
0.00180653649500472
0.00191995481950747
0.00203133959920806
0.00214036030046735
0.00224656550440267
0.002342907097709
0.00244363968873047
0.00254075041083012
0.00263349432837391
0.00272215445943522
0.00280676797558374
0.00288729844949517
0.0029636803144957
0.0030358483010995
0.00310375719018975
0.00316737524424606
0.00322668543589931
0.00328168226060326
0.00333237440983132
0.00337878466825081
0.00342095003738616
0.00345892413978583
0.003492774667664
0.00352258423274726
0.00354844771063529
0.0035704720814954
0.00358877282518866
0.00360347544576028
0.00361470988386501
0.00362261082639433
0.003627315441894
0.0036289596609902
0.00362767706395421
0.00362359686418559
0.00361684645999123
0.0036075495324948
0.0035958397818984
0.00358185290777675
0.00356575053025671
0.00354767420217574
0.00352771004318402
0.00350597584455064
0.00348253767084846
0.0034602242740393
0.00343743692584424
0.00341010824706016
0.00338163138422934
0.0033520314041776
0.00332135710258417
0.0032896280145056
0.00325691609062676
0.0032232391540956
0.00318866999288948
0.00315324742212866
0.00311701380360081
0.00308001020483928
0.00304227162506301
0.0030038390009537
0.00296475092261079
0.00292504744597075
0.00288475667425341
0.00284390802578304
0.00280248032679579
0.0027603170833036
0.00272025042777472
0.00267634617486759
0.00263104203825051
0.00258377622382703
0.00253313474351922
0.00247773966953116
0.00241448118180361
0.00234030263151158
0.00224410634550326
0.00217000717293019
0.00198214656486286
0.00165056185568377
0.00176547586878821
0.0021528514446545
0.00281401617572844
0.00374329446849328
0.0049101849753518
0.00634675675573693
0.00802982643078592
0.0101390793896498
0.012663718017441
0.0149642925382812
0.0135732649293131
0.00506307435420605
0.00280197117076892
0.0185321115071548
0.0336705770719947
0.00634455612670337
0.00645685032049012
0.00472690153447974
0.00152810102472343
0.000749199993372373
0.000254182743118725
0.000207880899783896
0.000208384968064094
0.000197893164868787
0.000167157813785943
0.000118687357243661
6.97436426789136e-05
4.69681935505155e-05
6.42394409183893e-05
0.000106399847269512
0.00016920411939881
0.000282880895716013
0.000419635015325048
0.000539702434286714
0.000635828171750972
0.000724496209037719
0.000813193295896167
0.000906394679690056
0.00100438802618005
0.00110649828292808
0.00121154723835265
0.00131835897927584
0.00142590301734594
0.00153333038182877
0.00163997282497438
0.00174529735877561
0.00184887041215574
0.00195035121478426
0.00204960796647246
0.00213870220319017
0.00223322178327095
0.00232333987711088
0.00240953040168503
0.00249196932723386
0.00257065788089686
0.00264554383563078
0.00271656219733491
0.0027836560782111
0.00284678904204597
0.00290593800819283
0.0029610946591354
0.00301226109090818
0.00305945240034529
0.00310269667563574
0.00314203422732044
0.00317752087619627
0.00320922467626817
0.00323722720074825
0.00326162068911957
0.00328250827921778
0.0032999999601766
0.00331421504831701
0.00332527595890405
0.00333330903792951
0.00333844250257493
0.00334080258343551
0.00334051241658174
0.0033376900316409
0.00333245061490644
0.00332490428103574
0.00331517094184526
0.00330337233582088
0.0032896625138169
0.00327418249130496
0.003257015245216
0.00323826896250869
0.00321888923246698
0.00320280422099305
0.00318039755471727
0.0031567963485725
0.00313215878416517
0.00310652168988866
0.00307993600936683
0.0030524263930814
0.00302405672344772
0.00299485592320211
0.00296489670873009
0.00293422752262451
0.00290289902756157
0.00287096195587226
0.0028384633192407
0.00280546022165346
0.00277201238121108
0.00273818754330529
0.00270404620133698
0.00266965953984912
0.00263505377832809
0.00260015802412155
0.00256794554010252
0.00253212058120786
0.00249558158823034
0.00245784868653855
0.00241765327049259
0.00237403136359156
0.00232415850770568
0.00226596123812361
0.00218796048430191
0.00213955923149585
0.001959417753637
0.00159904066101292
0.00163235156491819
0.00189904042259781
0.00241511697314138
0.00319568666102748
0.00421460386037482
0.00549271259735928
0.0069733345722591
0.00879148109942088
0.0107631753847558
0.0121091090151105
0.00882005100467182
-0.00101342904386024
-0.00278333678806268
0.0158106879530713
0.0303926727238788
0.00555784412678939
0.00505129625863647
0.00625794417230933
0.00164120166785827
0.000879672755946024
0.000297307432704559
0.000210439918078962
0.000200973044221364
0.00018308055692693
0.000150993469775295
0.000103967534553709
6.01430375263892e-05
4.45362150157567e-05
6.55877342520338e-05
0.000111966164592511
0.000189730663820913
0.000307854417036678
0.000423809012378028