/*--------------------------------*- C++ -*----------------------------------*\
  =========                 |
  \\      /  F ield         | OpenFOAM: The Open Source CFD Toolbox
   \\    /   O peration     | Website:  https://openfoam.org
    \\  /    A nd           | Version:  7
     \\/     M anipulation  |
\*---------------------------------------------------------------------------*/
FoamFile
{
    version     2.0;
    format      ascii;
    class       volScalarField;
    location    "20000";
    object      omega;
}
// * * * * * * * * * * * * * * * * * * * * * * * * * * * * * * * * * * * * * //

dimensions      [0 0 -1 0 0 0 0];

internalField   nonuniform List<scalar> 
15600
(
3730.02185968833
4544.46159370166
7561.50907126646
8581.51239634599
7842.0272848653
6467.65401248323
5172.52279147381
4253.33346625344
3596.58499211675
3106.69236966741
2650.78767128434
2189.42403448225
1731.27260750757
1321.74676882214
1024.36952810055
911.120359756739
934.152096539005
934.152096538999
934.152096539057
934.152096539057
934.152096539099
934.152096538977
934.152096539073
934.152096539051
934.152096539058
934.152096538966
934.152096538997
934.152096539033
934.152096538939
934.152096539031
934.152096539012
934.152096539036
934.152096539053
934.152096539012
934.15209653903
934.152096538978
934.152096539084
934.152096539026
934.152096538999
934.152096539038
934.152096539025
934.152096538985
934.152096539008
934.152096538972
934.152096538998
934.152096539011
934.152096539039
934.15209653905
934.152096539023
934.152096539072
934.152096539009
934.152096538999
934.152096539026
934.152096538999
934.152096538999
934.152096538997
934.152096539058
934.152096539016
934.152096539058
934.152096539052
934.152096539062
934.152096539075
934.152096539015
934.152096539058
934.15209653894
934.152096539003
934.152096538986
934.152096538983
934.152096539006
934.152096538993
934.152096539084
934.152096538989
934.152096539058
934.152096538992
934.152096539084
934.152096539056
934.15209653894
934.152096539004
934.152096538986
934.152096539011
934.152096538996
934.152096539001
934.152096539048
934.15209653905
934.152096539024
934.15209653901
934.152096539048
934.152096539025
934.152096539001
934.152096539035
934.152096538995
934.152096538954
934.152096539038
934.152096538961
934.152096539064
934.152096539081
934.15209653909
934.152096539006
934.152096539033
934.152096539028
934.152096539028
934.152096539029
934.152096539002
934.152096539002
911.174403856355
1023.31118887219
1320.03969941776
1729.12311374376
2187.18075780213
2648.50338457961
3104.41040976502
3593.7696613803
4249.46087039398
5167.0570026349
6460.33808329473
7835.77602079156
8580.1108908896
7572.078170467
4554.75128134539
3730.02992504189
626.270339603196
762.561205717914
1264.09688682296
1437.63836355148
1322.28843641386
1094.36331012842
876.216145438147
720.136395927281
608.606119108592
525.622120427626
448.891821725671
371.345870014638
294.215542735364
225.045319717335
174.569540047018
154.999659591306
158.202161157648
158.003020709002
158.218404878481
158.402513713683
158.54611803304
158.635861356058
158.685030909237
158.709528113064
158.722650416794
158.731310756143
158.738599579769
158.745127125955
158.750528744707
158.754018713475
158.754759430846
158.752021121632
158.745222692826
158.73393783876
158.717899032329
158.696980241057
158.671159816057
158.640488714432
158.605101752241
158.565262304245
158.521332138583
158.473777859284
158.423089619291
158.369646619304
158.313906482784
158.256328946262
158.197385641859
158.137543980713
158.077271901268
158.017019366024
157.957218815561
157.898277792553
157.840573160588
157.784450836955
157.730222265848
157.67816359726
157.628516154728
157.581485843911
157.537243244804
157.49592602454
157.4576385995
157.422451392564
157.390406982865
157.361509749426
157.335744951863
157.313055769841
157.293392556383
157.276680479441
157.262881276173
157.251961300573
157.243834754416
157.238393226422
157.235465812721
157.234901985976
157.236527246175
157.240236874538
157.245926518523
157.253479704013
157.262778253565
157.273687127075
157.286064130393
157.299842654435
157.314912169898
157.331223913413
157.348713630439
157.367320381593
157.387041363515
157.40788336481
157.429949237771
157.453306885811
157.478206752615
157.504735783821
157.533355533713
157.563865470718
157.597185124782
157.632990311095
157.67291563981
157.714045664232
157.759969840974
157.800643685982
157.845475943686
157.864712798269
157.880578536346
158.150975798376
155.156698039541
174.571696408033
224.997781034004
293.688019596906
370.189569691639
447.229955286448
523.719211162047
606.738655647833
718.181041107817
873.928305732645
1091.37915274979
1318.84025523365
1434.32929773154
1252.63867482285
788.51014012419
660.802403727036
215.533411726396
255.952703157987
416.536262108641
468.60345402526
434.911193923421
361.604905007595
289.893713909052
238.204745122791
201.228214428896
173.643276447758
148.173757052273
122.44935124788
96.9265488999355
74.1884230233408
57.7504354921406
51.5611829771206
52.5580998097653
52.5780823044739
52.9560968112128
53.2870536198616
53.536297241414
53.685557374598
53.7559322515151
53.7761262456904
53.7689476512023
53.7472249080088
53.7172790464603
53.6814859365283
53.6404882428584
53.5941462448463
53.542120890224
53.48413776894
53.4200661182397
53.3499428359308
53.2739765925592
53.1925158422691
53.1059988797901
53.014924271208
52.9198683242525
52.8215931252502
52.7211531661773
52.6194848040316
52.5168223106682
52.4138434595825
52.311155014193
52.2093348829184
52.108938898153
52.0104843689042
51.9144584948293
51.8213010912553
51.7314102875379
51.6451378583744
51.5627877059167
51.4846198133017
51.4108498565459
51.341651886738
51.27716154561
51.217477514519
51.1626636931731
51.1127529857527
51.0677474450901
51.0276183722162
50.9923124472008
50.9617411842139
50.9358011381604
50.9143520717941
50.8972722362556
50.8844260184761
50.875732503621
50.8711147776272
50.8704317481758
50.8735108157618
50.8801110946035
50.8900185422992
50.9030031618046
50.9189284033919
50.9376536632199
50.9590256176564
50.9828823944531
51.0090449439418
51.0373216746199
51.0676292495162
51.099834152677
51.1338542158828
51.1696130667885
51.2070686444738
51.2461990656256
51.2870391569592
51.3297418126678
51.3744515349622
51.4215271326663
51.4712033322959
51.5241135619456
51.5804306379143
51.6413415274196
51.7066294898309
51.778132023533
51.8530532783025
51.9345717625887
52.0118228320651
52.0918056370702
52.1412853160814
52.1807803843928
52.3689087318711
51.6480839200116
57.7583661547993
74.1196443442486
96.1632716208716
120.759677723403
145.751829799851
170.877944899388
198.625867301332
235.737977184978
287.367425608074
358.531945072762
431.405757634837
464.213242167617
394.294981546802
274.350965041453
252.778314001935
117.933836005948
125.286693499162
192.790110607504
209.990480324299
197.679664249358
165.721249350567
133.182212295078
109.499887352646
92.4872410999942
79.6676635799717
67.7811097228253
55.7837274901056
43.9749082943277
33.6516935630651
26.4184404302653
24.0240264818298
24.6404081074985
24.862297630827
25.3968577635862
25.8349289128351
26.1087931428539
26.2101268979868
26.1880776654443
26.0971698664312
25.9756245191364
25.8438803399822
25.7115186322868
25.5820928014841
25.456523471639
25.3345695315602
25.2156743117099
25.0993052870061
24.9850638934874
24.8727130417869
24.7621716856069
24.6534733021857
24.5467246891507
24.4421044404167
24.3399107041708
24.2407993447494
24.145080602145
24.0523867820416
23.9628373369004
23.8765717361235
23.7936949427886
23.7143027071649
23.6384836438519
23.5663086484103
23.4978400714302
23.4331194764829
23.37217512913
23.315018937501
23.2616469764217
23.2120432304726
23.1661793348515
23.1240167653679
23.085508753555
23.0506005921604
23.0192305818015
22.9913317369728
22.966830486147
22.9456457715706
22.9276918588526
22.9128694141707
22.9010788571371
22.8922039813356
22.8861525933985
22.8828320536218
22.8822009384104
22.8842230417681
22.8888168946218
22.8958820381657
22.9052695946869
22.9168560978258
22.9305101163134
22.9461691491195
22.9637782090434
22.9832609998781
23.0045412605717
23.027489348638
23.0520739763686
23.0781614570045
23.1058631651335
23.1350692153556
23.1657704045202
23.1979956716433
23.2317858077672
23.2672449295679
23.3045848746006
23.3440344190659
23.3860187305994
23.4309055855688
23.4794245556291
23.5321531776777
23.5911969288024
23.6561672440079
23.7289211132511
23.8074651556417
23.8943416107059
23.9798632934385
24.0673426175271
24.1244124754439
24.1637868115576
24.2913096347514
23.9948659129082
26.3392170931407
33.4249614352214
42.8920210975964
53.5518480334467
64.5944214046164
75.9538963585526
88.8576433723353
106.004242262846
129.674660257378
161.618235028121
193.163352928228
203.788726754813
162.200315563089
123.619696154946
141.383458344489
84.1383018422674
79.1120598730558
108.597525394703
111.37319861568
107.27057470346
91.1766273052204
73.5648318606358
60.5673873507865
51.1474914803959
43.9093793408235
37.1288400650974
30.3019477467778
23.6915247499252
18.1109140851253
14.4356402609368
13.6029295253234
14.2349970358741
14.6604375691877
15.2973470536879
15.7165635808487
15.8579466002006
15.7769071879556
15.5803183953056
15.3487697326669
15.1241245802786
14.9217459828647
14.7446684573307
14.5907301116704
14.4564447636131
14.3382544481434
14.2331243465492
14.1386130719144
14.0528173242572
13.9742767409633
13.9018865751142
13.8348076931866
13.7724060241298
13.7142488642258
13.6601574553621
13.6098705740903
13.5626715979429
13.5181621974345
13.4762872767184
13.4368652164991
13.3997564936614
13.3648432126997
13.3320294392581
13.3012305655016
13.2723769151488
13.2454030425336
13.2202513079086
13.1968675507988
13.1752002233904
13.1552013214137
13.1368247892457
13.1200268808601
13.1047662379363
13.0910030649953
13.0786989539649
13.0678171301683
13.0583207701012
13.0501719312533
13.0433324470662
13.0377579161199
13.0334052832879
13.0302226892647
13.0281748695365
13.0272278382916
13.0273820421438
13.0286397811396
13.0309754174284
13.0343544597248
13.0387115990125
13.0439999642249
13.0501682308263
13.0571998983481
13.0650976732334
13.0738350784033
13.0833983627441
13.0936732581779
13.1048105864386
13.1166394415315
13.1293076920193
13.1427442608417
13.1569684085633
13.1720278751139
13.1879866004912
13.2049550259736
13.2231240300147
13.242708967501
13.2640751232732
13.2875760543552
13.3138555481179
13.3433696146123
13.378728850659
13.4197403721114
13.468110086282
13.5229010274882
13.5863791578548
13.6516206737091
13.719907385012
13.76370907046
13.7847553882244
13.8478434786641
13.6263505638157
14.5745946701747
18.1445694550565
22.8874826952156
28.2648615026487
33.9488045640628
39.9402672643999
46.9700356417031
56.2750003533328
69.0566798316271
85.8453672883664
101.54844038439
103.914504068996
77.4929200263804
60.6024204177331
91.4955635646989
65.5065035504841
59.6259689079012
69.5978899995889
64.7551870466304
64.5896308782093
56.106080132462
45.5411270453356
37.5774000761167
31.7150283561778
27.0725610692164
22.6655146466939
18.269511915527
14.1403223600176
10.8407330179962
8.87482034020543
8.82219380775815
9.57198103987702
10.1501597481012
10.7551724371849
10.9945067800606
10.9062957865431
10.6448355755448
10.3484010634229
10.0821517125678
9.86386843754479
9.6906829894621
9.55454236449699
9.44701582764744
9.36123896807132
9.2918504024196
9.23487695058526
9.18738129881847
9.14720510468293
9.11275697357904
9.08286476106072
9.05665804749473
9.03349667826005
9.01295301708288
8.99474586467592
8.97818962235608
8.96287490517945
8.9486888331459
8.93554974824741
8.92331125575435
8.91187330823314
8.90115417097585
8.89109189276909
8.88163585442865
8.87274841607896
8.86439715431087
8.85655698226224
8.84920659959006
8.84232778970207
8.8359056692633
8.82992734019192
8.824381978686
8.81926064955186
8.81455558063079
8.81025995616807
8.80636790049283
8.80287318165185
8.79976849417329
8.7970457275129
8.79469219448121
8.79269522968651
8.79103626124725
8.78970721951477
8.78870120019452
8.78803380200352
8.78771975285838
8.78775486261253
8.78813002477924
8.78881550412081
8.78979445024776
8.79104774993633
8.79257204541026
8.79438627100791
8.79647874660649
8.7988597962801
8.80146927081286
8.80443945587435
8.80764110184254
8.81117013841147
8.81499309663466
8.81912888268461
8.82361645385765
8.82851040815537
8.83389791503937
8.83992300095128
8.84675228695338
8.8546592372898
8.86392368758818
8.87504328341155
8.88825087959103
8.90581376383471
8.92789694340247
8.95590164598715
8.98955991216145
9.03083720925838
9.0754588906405
9.12421846161717
9.15676555738241
9.16864026860686
9.19689325187763
9.00239944202109
9.40320464771373
11.4239054774372
14.1043332429209
17.1352779289049
20.3713355845674
23.8292075712155
27.9715915977169
33.4230546326843
40.8851779716302
50.4105228687157
58.8738714343612
58.5119518262415
43.4374201707047
32.9905129460986
62.4022605226998
51.7395466995718
49.7897737389185
49.296414034272
39.6413809148996
41.3873715777061
37.1536760225225
30.4178316022848
25.1707971709182
21.2145762144691
17.9573119636864
14.8376686477762
11.7997973582561
9.0865317660282
7.07792656788049
6.05018878440506
6.41394620073234
7.25970597101358
7.87069717909447
8.30077895177866
8.29350746953632
8.02867086782619
7.70400852686775
7.42254951157762
7.20600099644708
7.04719036729003
6.93222187122768
6.84927716023545
6.78916397055721
6.74540976708234
6.71336446532953
6.68978515720924
6.67236726703928
6.65947446649785
6.64993246230128
6.64289796529957
6.63776068225944
6.63408755457078
6.63159967183903
6.62990386979677
6.62855281816551
6.62744163557393
6.62653231672151
6.62577303149823
6.62508317595351
6.62441590699039
6.62373507919397
6.62301759293581
6.62224734510978
6.62141640629938
6.62051970026918
6.61955662699491
6.61852850842766
6.61743825860971
6.61629054532623
6.61509086174541
6.6138456419836
6.61256211528615
6.61124779336206
6.60991035355639
6.60855757684509
6.60719638261316
6.60583235759538
6.60446978122528
6.60310919194659
6.60175042604713
6.60038917582306
6.59902831181263
6.59767206780769
6.59634030162637
6.59505071817546
6.59380693727257
6.59260907499019
6.59144259176916
6.59030228805183
6.58918229849875
6.58808322749161
6.5870273316886
6.58601677021444
6.58507560326168
6.58417111584009
6.5833849247576
6.58263842560206
6.58199307012578
6.58143686538054
6.58098804133463
6.58067997210207
6.58056065478473
6.58070332018487
6.58122414371339
6.58226091074339
6.58403140697533
6.58676985940392
6.59087904343007
6.5965314360883
6.60541926823767
6.61804085411859
6.63555892819154
6.65809249425151
6.68735642845216
6.72090168481168
6.75955272319147
6.78910127100248
6.80328760678798
6.82613506102051
6.66130174800684
6.83036721216341
8.09331715575427
9.77900711975958
11.6745348573831
13.7029650124548
15.8794138276044
18.504061561973
21.9156607657426
26.5432754227604
32.2672531231781
37.2324059346878
36.4020886737537
28.2309089973943
20.5175916434657
43.8779945902897
40.7142895250193
43.6776802829224
38.19646596354
25.252375227882
27.481861011731
25.8671750001182
21.4289553792868
17.7901681997788
14.9572396783679
12.5260845611493
10.2096533456986
8.05226490577607
6.25504725190154
5.04423655601544
4.56713040580232
5.15067078938929
6.01199176432311
6.52650007313926
6.71962838548915
6.519307438158
6.19285795734469
5.89783017949743
5.67829671322937
5.52482780899294
5.42067824698581
5.35062109591095
5.30416898260851
5.27384689358241
5.25470827190792
5.24330211601697
5.2372910619521
5.23504058650412
5.23541126045978
5.23759748786601
5.24103049914606
5.24530644269841
5.25015010271228
5.25533305509851
5.26049175403592
5.26545286561586
5.27019686435089
5.27471035001921
5.27896492181248
5.28291991641516
5.28655786465447
5.28986741748058
5.2928457210395
5.29549408579899
5.29781891898259
5.29982800286342
5.30153179504237
5.30294158402705
5.30406937489792
5.30492803136792
5.30553063174461
5.30589059915773
5.30602159760383
5.30593715728113
5.30565060677213
5.30517498762111
5.30452230382852
5.3037031843774
5.30272679438467
5.30159920256326
5.30032552838133
5.29890798022377
5.29735410959639
5.29567309915207
5.2938855812103
5.29200949600988
5.29005162202708
5.28801580788096
5.28589503348758
5.28368930728571
5.28139911651802
5.27902628671435
5.2765973025994
5.2741280044497
5.27163943813414
5.26910953685381
5.26659222750095
5.26404272162339
5.26150394517904
5.25897651899144
5.25647966734671
5.2540449865181
5.25171793793625
5.24956545880117
5.24768940824298
5.24621333129079
5.24532474843094
5.24523460730894
5.24629031252838
5.24867770057105
5.25363285476162
5.26185309511272
5.2743600492972
5.29152081109661
5.31488765876181
5.34321943240719
5.37751194938093
5.4080764833873
5.42878250299753
5.45897662607827
5.32515126456875
5.38474833631457
6.23404498356931
7.38571990218334
8.67744504005595
10.0603717548168
11.5464925079275
13.3389207898325
15.6353215250617
18.7092639547204
22.3879383818871
25.5956796474162
24.8817219432588
20.4244336945075
14.3319323652703
31.8027388894424
31.7731749929723
39.1463772822722
32.0109473188011
17.0058710958997
18.6079233233939
18.6446263922023
15.693081047082
13.0718605104927
10.9555350773039
9.07437255915428
7.32675016567028
5.79739436029702
4.62097830264895
3.91407907881923
3.77132631213807
4.45751005629811
5.25142591125908
5.59209571960314
5.57429665431649
5.27842379297853
4.9715848734429
4.73686608774691
4.57780728197733
4.47330998809589
4.40669415404056
4.36505494880707
4.34030514862263
4.32681193801317
4.32096398359513
4.32025671440062
4.32301934821105
4.32808930600872
4.33466456452164
4.34218276040113
4.35025132692394
4.35859463805105
4.36703114470924
4.37532711371238
4.38325444302913
4.39075897762812
4.39784436620429
4.40450629200024
4.4107301038091
4.41649657223529
4.42180257219515
4.42664875918728
4.43104156759756
4.43499005675679
4.43850663813111
4.44160438868693
4.44429809007529
4.44660286254319
4.44853415112647
4.45010784881611
4.45133982929995
4.45224606714949
4.45284255541339
4.45314501209194
4.45316883001409
4.45292897134921
4.45243935754255
4.45171260400619
4.45075987390975
4.44958974929846
4.44820982724977
4.44662567724911
4.44484709997873
4.4428857377486
4.44076192512874
4.4384930847422
4.43608742584892
4.43355052226323
4.43087963303531
4.42807745320396
4.42514798892271
4.42209447156578
4.41895163017563
4.41573666992831
4.41246433937833
4.40912164832413
4.40574698392587
4.40231693003192
4.39886444042907
4.3953978101022
4.3919377048737
4.38851546207261
4.38517566313167
4.38198219733794
4.37902884414739
4.37643132908165
4.37435915299092
4.37300999005369
4.3726958084251
4.37362646715619
4.37673891174684
4.38280772120976
4.39277214351536
4.40716200779682
4.42741897629888
4.45310447460727
4.48538794771069
4.51780274053485
4.54505282375348
4.58523039381938
4.48035150238719
4.48404473572927
5.08453233256601
5.91947758204611
6.85760785005866
7.86344036433758
8.94701828760404
10.2525045264738
11.90464747011
14.0866803827364
16.6203936539433
18.8818906991349
18.347681239344
15.8854048690494
10.9041844375296
23.8949335866929
24.5219111916018
35.3447043571328
28.4445133052784
12.4589483129175
12.7894257865809
13.7624513800126
11.8322004037532
9.88944495935245
8.26661267782739
6.79145312849562
5.47868001594944
4.40730805526335
3.64887026581611
3.26188760915769
3.32709193711576
4.03964889096947
4.71003436872473
4.8610746553379
4.7010269854802
4.38837184607017
4.13318462747553
3.95577505124501
3.84268522510585
3.77168423950786
3.72914351467497
3.70487949215673
3.69286231554786
3.68886822854812
3.69023937268575
3.69512404727413
3.70229746851016
3.71090736005906
3.72036940086962
3.73027574052937
3.74034370138891
3.75037544399078
3.7602346751529
3.76970222529341
3.77866484834521
3.78711130042728
3.79505031624381
3.80248120957813
3.80939711773836
3.8157902718913
3.82166438047578
3.82702575710324
3.8318848438869
3.83625388628185
3.84014748586954
3.8435806088065
3.8465694133481
3.84913021401916
3.85127950842252
3.85303407987289
3.85441064180212
3.85542593644977
3.85609666102192
3.85643922251649
3.85646968938752
3.85620366898526
3.85565579345847
3.85483949485812
3.8537668301305
3.85244768372962
3.85089100360353
3.8491043476772
3.8470987685413
3.84488729526776
3.84248969414819
3.83992272926118
3.83719533808626
3.83431402888612
3.83127878810234
3.82809388723343
3.82476551832181
3.82130252601016
3.81774144912313
3.81409606550849
3.81037840569833
3.80658223196912
3.80273687293574
3.79883255737516
3.79489667538349
3.79094229520461
3.78699137553603
3.78307540096294
3.77923852874624
3.77554276411668
3.7720765316654
3.76895029092166
3.76632126652223
3.76437786371054
3.76340657250198
3.76363676567863
3.76581190038149
3.7707158022325
3.7792309492035
3.79199163145674
3.81035451918992
3.83441772522761
3.86548638986275
3.89939016545525
3.93186462977839
3.98089058566581
3.90162780348941
3.87607140637361
4.31539355361786
4.94661909434967
5.65999647908898
6.42738993278944
7.25777087818788
8.25779296070921
9.51228745663142
11.1495981761502
13.0050803549599
14.7132253944135
14.3272664123449
12.9839886395721
8.80761357965157
18.7036151354285
18.6883310421306
31.8778999181256
26.2015294400959
10.0937490969211
8.99256210675225
10.3280017637825
9.12864430032416
7.6593878965466
6.40075092268525
5.24565485254537
4.26969836347447
3.52631059831591
3.04638585688101
2.86574380274033
3.06042101009151
3.74797751071907
4.26948938126681
4.25629706311241
4.02472509746471
3.7388423022527
3.53824161808401
3.40592570725116
3.32535649098222
3.27675456499782
3.24971158229764
3.23628033282084
3.2319501077741
3.23349873586145
3.23892346094565
3.24681671846744
3.25625203360843
3.26658338193433
3.27736942331642
3.28830279232121
3.29917127482046
3.30982764292586
3.32014711066751
3.32995856884806
3.33921307796642
3.34791413211655
3.35607030910968
3.36368246293209
3.37074820017082
3.37726598687765
3.38324271189238
3.38868726553016
3.39361162098976
3.39802911208616
3.40195484527301
3.40540419353444
3.40839345578902
3.41093905656141
3.4130575842329
3.41476587373881
3.41608072340515
3.41701896876413
3.41759741005099
3.41783259658166
3.4177407726167
3.41733774085446
3.41663841632939
3.41565662497123
3.41440491471662
3.41289398582976
3.41113367529098
3.40913289383028
3.40690352827271
3.40445950874984
3.40182004327206
3.39900129387117
3.39601262481382
3.392861159972
3.3895487870588
3.38608080383098
3.38246672746674
3.37872086457862
3.37487536004423
3.37094249606172
3.36693313290693
3.36284595270758
3.35870484154754
3.35450891986692
3.35028235424491
3.34604121137222
3.34180842863287
3.33761563512931
3.33350658162528
3.32954174102247
3.32580541151116
3.32240377050782
3.31948461339725
3.31722862273167
3.31590219128485
3.3157472632804
3.31737890144825
3.32155633563304
3.32911535368956
3.34075380117961
3.35775609889011
3.38057932932685
3.41062176307891
3.44535927888175
3.48155448639042
3.53729468353809
3.48011800651966
3.43995118245888
3.76904530653287
4.26080280755917
4.82178374772729
5.42847814200758
6.08922392173141
6.88555348966429
7.87907065553772
9.16292792695448
10.5928103183175
11.9521675871973
11.6807433155841
10.9956366921543
7.42173572150305
15.2587817114619
14.0864874768512
28.6538730940929
24.5747294723209
8.98282754073951
6.56897275894142
7.85283062268521
7.18222734669202
6.05700765996125
5.07951652707693
4.18102049444316
3.46069332602775
2.94795252448126
2.65455373478369
2.60953988235463
2.88071136116615
3.51033484151522
3.8821245824827
3.74819478979336
3.49848675519987
3.25561885091853
3.10155139340278
3.00263293964161
2.94484091030527
2.91144865998913
2.89467737951741
2.88826609213993
2.88878610399695
2.89372444019939
2.9015321811908
2.91111019497733
2.92173687795268
2.932907790825
2.94427889794682
2.95561074959616
2.96673798154196
2.97754725335343
2.98791533911588
2.99772696390118
3.00696386173573
3.0156337340933
3.023743683902
3.03129524792517
3.03828865404056
3.0447258152852
3.05061501170999
3.05596620131806
3.06079173577119
3.06510508804673
3.06892115585302
3.07225510587776
3.07512290156502
3.07754067530207
3.07952476426941
3.08109177485902
3.08225834728845
3.08304120481287
3.08345707839052
3.08352250940887
3.08325378611584
3.08266679596057
3.08177662874603
3.08059738956267
3.07914200395794
3.07742180401382
3.07544733753145
3.07322856521807
3.07077803868643
3.06811036965679
3.06524431671852
3.06219555818422
3.05897375553274
3.05558653036537
3.05203718812363
3.04833246689034
3.04448605537273
3.04051391305371
3.03644358451398
3.03228697129527
3.02805450662472
3.02374847994315
3.01938945015802
3.01498244619598
3.01054970081564
3.0061091575718
3.00168441593118
2.99730712299739
2.99302051135497
2.98888358084881
2.98497709422335
2.98140331654491
2.97830214604402
2.97584712770181
2.97428776689317
2.9738723814219
2.97512772783994
2.97877297396986
2.98560099184772
2.99634415374756
3.01222149759608
3.03392776062693
3.06291745977174
3.09785198479358
3.13643862931101
3.19674256256668
3.15834062415388
3.11210431300344
3.36279240596524
3.75443543084511
4.20678518089723
4.69964513048648
5.2409061685263
5.89449521456678
6.70770239039904
7.75008793115222
8.89918585323856
10.0250743818811
9.84370116085236
9.55996005168833
6.37988257822738
12.9141864847848
10.5612629051249
25.7863695723103
23.2972549088409
8.59456531662171
5.06351792027658
6.05219618441494
5.75440223583445
4.88740541327862
4.12992122816787
3.4347023613311
2.90417421251835
2.55300731928847
2.38642045919526
2.4310571459546
2.74070592126799
3.29432002000285
3.53153812004084
3.32223305456373
3.08696508602951
2.88820158782216
2.77069583166173
2.69623844255903
2.65462990369964
2.63187808560734
2.62218341877015
2.62053782245105
2.62428277782289
2.63141664154364
2.64071201845344
2.65129040994455
2.66257559461381
2.67416390012116
2.68578009100829
2.69723251743432
2.70838813258355
2.71915551037512
2.729418194164
2.73910558864852
2.74821348615244
2.75674993828859
2.76472046765329
2.77212692732851
2.77897112036335
2.78525688722923
2.79099302417162
2.79618982018582
2.80085948905277
2.80501523925325
2.80867149692449
2.81184300972415
2.81454527242098
2.81679402814876
2.81860529547437
2.81999541643767
2.82098085266702
2.82157821169611
2.82180416615877
2.82167526791698
2.82120787322184
2.82041798623701
2.81932089953205
2.81793101162941
2.81626163359404
2.81432468432547
2.81213137073275
2.8096925605929
2.80702141485556
2.80413313756179
2.80104617830461
2.79777586508981
2.79433210553757
2.79072299370728
2.78695309013635
2.78303182428299
2.77897503553505
2.77479875808884
2.77052708091648
2.76617191217599
2.761743632627
2.75724721785307
2.75270118859491
2.74811456506436
2.74350837986924
2.73890172618466
2.73431859522177
2.72979050643441
2.72536004494633
2.72108470505341
2.71704202668569
2.71333050086533
2.71008303498239
2.70746626235485
2.70571490731015
2.7050788025266
2.7060215753737
2.70921638318914
2.71541468166991
2.72536262625419
2.74021802391204
2.76082887679824
2.78867648394015
2.82327650394612
2.86317172702147
2.92617078218445
2.90356399498714
2.85640493304734
3.04973839722689
3.36687707413587
3.73874148586516
4.1477932063765
4.6015382212753
5.15109590124431
5.83448419836209
6.70498845155735
7.66123391629075
8.6235086640959
8.51407568268503
8.43951793276272
5.50811998171349
11.2479044756947
7.95082096425638
23.2846753482517
22.3232404934379
8.63281041245446
4.16363876061703
4.74354704439296
4.69241284221492
4.02408196944724
3.43750697209271
2.90057130824665
2.50946146120972
2.27234075952638
2.19321951870659
2.29593646084196
2.6165369625289
3.08763128613329
3.21361884066786
2.9675130600223
2.7624304029109
2.60249665690299
2.51288682448453
2.45653371284531
2.426704755539
2.41166442469336
2.4070572051154
2.4088156575678
2.41483571316347
2.42349336848615
2.43379492134865
2.44502451427637
2.45671248828967
2.46852939744467
2.48025044893742
2.49171897433205
2.50282532743126
2.51349175943964
2.52361546709582
2.53315659241824
2.54211705042101
2.55050396824267
2.5583215259557
2.56557173821861
2.57225738519152
2.57838339760724
2.58395867487729
2.58899349257339
2.59349972462171
2.59749017752604
2.60097875639762
2.60397976539119
2.60650825429578
2.60857961804751
2.61020961215705
2.61141438620862
2.61221030019932
2.61261393010965
2.61264197973926
2.61231110181302
2.61163781168701
2.61063832146077
2.6093282097783
2.60772224079668
2.60583417256448
2.60367652978276
2.60126118624778
2.59859985639922
2.59570631032053
2.59259632315409
2.58928818195171
2.58579699701633
2.58213290792136
2.57830449553659
2.57431820563853
2.57018589699441
2.56592370120002
2.56154778889255
2.55707969264403
2.55253144701792
2.54791357318147
2.54323308618562
2.53850728072568
2.53374791034039
2.5289752346242
2.52420901523988
2.51947341872947
2.51479970709612
2.51022970730257
2.50581935902461
2.50164316739874
2.49779590908557
2.49440409271977
2.49162754660579
2.48968771303888
2.48883232836945
2.48947808345777
2.49225099800844
2.49786200842261
2.50705617232679
2.52093291200299
2.54043391298885
2.56704444607597
2.60089308383932
2.64124364847283
2.70540783534011
2.6959555711623
2.65099898993675
2.80154496071331
3.06168821184715
3.3721083502424
3.71759106800639
4.10525932188719
4.57663450664214
5.16348916592263
5.90775935058694
6.72739812944892
7.57039992014611
7.50120214325548
7.50051641952661
4.77101924294451
9.99888409279965
6.07876951893776
20.996237466338
21.5870539709642
8.92863367984825
3.66916067208561
3.79906171259119
3.89233832755231
3.37987933261639
2.92445093028979
2.5094076924735
2.22074039009395
2.06509101010879
2.04667613976535
2.18489364655336
2.4973659953975
2.88752513675415
2.92798833122572
2.6737260829017
2.50349524876538
2.37552488247124
2.3071032251138
2.26442050023097
2.24340930319268
2.23416983370216
2.23338603906869
2.2377100915477
2.2454431122974
2.2552467567342
2.26630148444786
2.27801468367564
2.28999717971453
2.30197593072098
2.31376436818617
2.32523236318716
2.33628846894346
2.34686221602996
2.35687009607858
2.36629111051451
2.37512959243404
2.38339147417222
2.3910798928839
2.39819696905539
2.40474612123727
2.41073291361873
2.41616617614374
2.42105603234036
2.42541397332282
2.42925239878791
2.43258474532212
2.43542493847941
2.43778767828704
2.4396881148156
2.44114185061425