/*--------------------------------*- C++ -*----------------------------------*\
  =========                 |
  \\      /  F ield         | OpenFOAM: The Open Source CFD Toolbox
   \\    /   O peration     | Website:  https://openfoam.org
    \\  /    A nd           | Version:  7
     \\/     M anipulation  |
\*---------------------------------------------------------------------------*/
FoamFile
{
    version     2.0;
    format      ascii;
    class       volScalarField;
    location    "20000";
    object      p;
}
// * * * * * * * * * * * * * * * * * * * * * * * * * * * * * * * * * * * * * //

dimensions      [0 2 -2 0 0 0 0];

internalField   nonuniform List<scalar> 
15600
(
-1.43068613409924e-08
-0.0324120376418869
-0.00478384137307416
0.013197254988607
0.0133640295761208
0.0151118275024523
0.0156082631162366
0.0163633715300634
0.0169096386399078
0.0176758109995162
0.0183937095022273
0.0189426544847173
0.0191158327882504
0.018903602672186
0.0186955617263553
0.0186142049517545
0.018813197125338
0.0187910991919368
0.0185770034941017
0.0182637360384272
0.0179206910484197
0.0176743720562569
0.0176075784049806
0.0177783870214379
0.0182101070910197
0.0189083047183572
0.0198664382528608
0.021073304397341
0.0225156781937237
0.0241803557841962
0.0260547337295836
0.0281270173787475
0.030386144505348
0.032821626675856
0.0354233429161965
0.0381813667190336
0.0410858509543943
0.0441269544392547
0.04729474812494
0.0505791306094703
0.0539698667118651
0.057456619884073
0.0610289784198529
0.0646765298145551
0.0683889151193753
0.0721558673233181
0.0759672539940873
0.0798131442847859
0.0836838495426757
0.0875699963391776
0.0914625731289782
0.0953529854781134
0.0992331033422
0.103095296695183
0.1069324677982
0.110738073348053
0.114506138259536
0.11823126381942
0.12190862953117
0.125533986222211
0.129103647165144
0.132614476186675
0.136063861240339
0.139449706991638
0.142770382649336
0.146024726260919
0.149211949720014
0.152331652261656
0.155383717026645
0.158368310598555
0.161285928600484
0.164137354585523
0.166923707641419
0.16964631720346
0.172306756363109
0.174906699184169
0.177447950373913
0.179932447927095
0.182362238767319
0.184739502691331
0.187066511984702
0.189345611044977
0.191579204859376
0.193769781315232
0.195919895050909
0.198032208845533
0.200109444964705
0.202154479261124
0.204170214885718
0.206159851710105
0.208126527074516
0.210074000242877
0.21200560463424
0.213926010642645
0.215838283189836
0.217748756826662
0.219658779739849
0.221577226711138
0.223497353740754
0.225432843907579
0.227353303197695
0.229285079722771
0.231138274861891
0.233006195387536
0.234484321428123
0.236460139756943
0.238615206184671
0.241589231924045
0.244697851723702
0.247079291054531
0.24794698116707
0.246585754255651
0.243464894867339
0.237745669887182
0.22795186036106
0.209990280233369
0.170815436020598
0.0926012635310565
-0.111667888448282
-0.153147588473304
-7.4087482089455e-05
-0.0323065820301167
-0.00560397061399538
0.0128028580913508
0.0133199250158209
0.0150677534340571
0.0155918336058407
0.0163470503515574
0.0168935177859284
0.0176535646301442
0.0183763483069768
0.0189411638039956
0.0191376721743693
0.0189362355603982
0.0187198946374344
0.0186220709293582
0.0188184438133992
0.0187948173042786
0.0185807304701338
0.018268168994391
0.0179263556587034
0.0176819404520586
0.0176174691309443
0.0177908396476988
0.0182251413042028
0.0189258021675806
0.0198861895988252
0.0210950592728543
0.022539170746015
0.0242053211642563
0.0260809145436327
0.0281541664965234
0.0304140254863377
0.0328500133578911
0.0354520188494869
0.0382101248491356
0.0411144935507851
0.044155293178114
0.0473226040472622
0.0506063342423236
0.0539962593913688
0.0574820561666823
0.0610533263043882
0.0646996692182491
0.0684107386236729
0.0721762806999387
0.0759861764526183
0.0798305084947638
0.0836996015161924
0.087584095173061
0.0914749905931585
0.0953637054726993
0.09924212122484
0.103102618511216
0.10693810942617
0.110742059587015
0.114508501878738
0.118232044582782
0.121907873221101
0.125531743675087
0.129099973316317
0.132609429154132
0.13605750143199
0.139442096264633
0.142761583529113
0.146014801282661
0.149200960990227
0.152319661130386
0.155370784089023
0.15835449513589
0.161271287811865
0.164121942909734
0.166907576236283
0.169629513940598
0.172289325896978
0.174888683503611
0.17742938856395
0.179913375955729
0.182342689323835
0.184719504749646
0.187046091179432
0.189324789337559
0.19155800138298
0.193748212967619
0.195897975307571
0.19800994838033
0.200086851662774
0.202131558399936
0.204146968598082
0.206136279215857
0.20810262415348
0.210049760578819
0.211981016929975
0.213901060835543
0.21581295265452
0.217723038533254
0.219632654044307
0.22155071319409
0.223470445126978
0.225405649014902
0.227325858174624
0.229257691251855
0.231111463951858
0.232980297842437
0.234465673979647
0.23649313167661
0.238705320958364
0.241723920740668
0.244820764396536
0.24713429892532
0.247890820804007
0.246418510919745
0.243180905692802
0.237287126031126
0.227188068302512
0.208558065850317
0.168236572591534
0.087867812334787
-0.113706967283075
-0.151931840186839
-0.000163672023127843
-0.0321922580655531
-0.00640052161925187
0.0123931969543762
0.0132646047781291
0.0150229506563469
0.0155743326639173
0.0163307950309027
0.0168774193108546
0.0176311496601373
0.018357853027834
0.0189379837232679
0.0191582957639106
0.0189681776989961
0.0187429958739976
0.0186274098140139
0.0188247210077171
0.0188002802300034
0.0185860191879183
0.0182737745869517
0.0179325611442689
0.017689499186643
0.0176269819420783
0.0178027409763814
0.0182395751296382
0.0189427145544008
0.0199053899604006
0.0211162925438561
0.0225621543898109
0.0242297693846605
0.0261065485116459
0.0281807188049323
0.0304412411431847
0.0328776496506037
0.0354798447157341
0.0382379202152683
0.0411420488958703
0.0441824093371219
0.047349091770573
0.0506320154304628
0.0540209722038962
0.0575056570131807
0.0610756839185471
0.0647206635266762
0.0684302633404089
0.0721942443849076
0.0760025024497823
0.0798451349799588
0.0837124811783969
0.0875951948810789
0.0914842908491606
0.0953711997177577
0.0992478150542882
0.103106528767771
0.106940263217229
0.110742493257563
0.114507259940646
0.118229178619707
0.121903440817453
0.125525807344424
0.129092599423813
0.132600686946777
0.136047461962496
0.139430831587197
0.142749165682174
0.146001301900836
0.149186450741739
0.15230420982687
0.155354460767823
0.158337367101569
0.161253419711084
0.164103395657144
0.166888406770987
0.169609775098867
0.172269067065057
0.174867951261461
0.1774082263737
0.179891823971513
0.182320783979213
0.184697278049138
0.18702357148279
0.189302002452392
0.191534970005765
0.193724959541435
0.195874520801043
0.197986308351203
0.200063036647986
0.202107577131998
0.204122827646846
0.206111984492966
0.208078178426008
0.210025167259614
0.211956274228484
0.213876169865408
0.215787900063332
0.217697833953736
0.219607277595009
0.221525212063083
0.223444782622113
0.225379983002663
0.227300087503226
0.229232206079272
0.231087040970665
0.23295545874963
0.234436167701429
0.236518312419842
0.238791335356081
0.241855392084435
0.244937695910641
0.247180145622139
0.24782464656281
0.246241483220334
0.242885580022058
0.236811538609409
0.22639555181935
0.20709321765383
0.165676598571158
0.0836978886225823
-0.113988074585895
-0.149313948449556
-0.000312638663761608
-0.032057899216642
-0.00716464888315272
0.0119840569380233
0.0132037469001568
0.0149780431252085
0.0155563852052328
0.0163146821800663
0.0168616015415126
0.0176090218593293
0.0183389450624241
0.0189337780065082
0.0191780864342973
0.018999599157842
0.0187646226800134
0.0186298355253976
0.0188314109908318
0.0188069470117591
0.0185917644366369
0.0182787721246977
0.0179371076458308
0.017694729718959
0.0176339619633531
0.0178122289757867
0.0182518561297307
0.0189577448577357
0.0199229184389353
0.0211359770259312
0.0225836208285453
0.0242526461797072
0.0261304806313427
0.0282053725318317
0.0304663041761585
0.032902830089328
0.0355048694053234
0.0382625328198814
0.041166008163158
0.0442054876387364
0.0473710776013126
0.0506527249893177
0.0540402522666738
0.0575233620722231
0.0610916754787777
0.0647348243959718
0.0684424958528699
0.0722044699046264
0.0760106609730337
0.079851185032309
0.0837163990663582
0.087596974016731
0.0914839408167386
0.0953687451323724
0.0992432943854108
0.103099993021909
0.106931774552876
0.11073212359241
0.114495089523485
0.118215294590612
0.121887935843356
0.125508778259306
0.129074145847678
0.132580910112576
0.136026463298494
0.139408711823258
0.142726023505805
0.14597723383883
0.149161550671935
0.152278569758919
0.15532817146689
0.158310516612524
0.161226091809669
0.164075668116168
0.166860351168064
0.169581456803708
0.172240546706407
0.174839286226267
0.177379470481352
0.179863027171271
0.182291991258433
0.184668529815935
0.186994905284479
0.189273462876021
0.191506595259678
0.193696774511121
0.195846546667098
0.197958567753428
0.200035553565784
0.202080375765503
0.20409593202172
0.206085421141315
0.208051973328033
0.209999352190811
0.211930880295223
0.213851248428371
0.21576347411356
0.217673950542944
0.219583945161539
0.221502523260449
0.223422680649652
0.225358639283132
0.227279256981863
0.22921227092629
0.231068545975864
0.23293535360235
0.234400257123966
0.236535796548055
0.238869237214254
0.241974795155016
0.245037549985963
0.247206311068477
0.247740631243739
0.246050340434042
0.24257751043065
0.236321714020808
0.225587033033372
0.205635239795062
0.163244935108886
0.0802376038029912
-0.11222874723024
-0.144870903212929
-0.000417803678405478
-0.0318133646803891
-0.00794473194468743
0.0115543319380715
0.0131359507217998
0.0149310690661406
0.0155372379158805
0.0162978804426798
0.0168452397370221
0.0175859300291785
0.0183182910532965
0.0189273744595301
0.0191964974553098
0.019031093094491
0.0187865407088478
0.0186317210875274
0.0188387548901093
0.0188152460063599
0.0185982526042139
0.0182832345659663
0.0179400987494353
0.0176980758405055
0.017639387743783
0.017820853386796
0.0182640211940003
0.0189732833043628
0.0199413784400825
0.0211568035166737
0.0226062408760329
0.024276511908593
0.0261550840467261
0.0282302476085519
0.0304910237642792
0.0329270025282753
0.0355281349045212
0.0382845596382518
0.041186489200622
0.0442241398168439
0.0473876596099197
0.0506670438063643
0.0540521265707124
0.0575326179779956
0.0610981705017979
0.0647384477475579
0.0684431646470982
0.0722021287205693
0.0760052808469019
0.0798427628948488
0.0837049562501714
0.0875825548582792
0.091466610947193
0.0953485894908376
0.0992204152393804
0.103074507854534
0.10690381390349
0.110701828949739
0.114462611223724
0.118180789738195
0.121851566384377
0.125470709094681
0.129034542921808
0.132539938814638
0.135984286513156
0.139365488720048
0.142681907730583
0.145932373511909
0.149116088129389
0.152232643205764
0.155281916727579
0.158264065317164
0.161179568686727
0.164029188142168
0.166814018954015
0.169535366811357
0.172194785654012
0.174793936498643
0.177334609992712
0.179818728809191
0.182248321085893
0.184625558406656
0.186952693291888
0.189232048443659
0.191466020726529
0.193657092517472
0.19580780954734
0.19792082728419
0.199998861816352
0.202044789159604
0.204061511617683
0.206052237335082
0.208020102152422
0.209968885198584
0.211901912199587
0.213823921823258
0.215737899499758
0.217650266898403
0.219562236629837
0.221482983888439
0.223405271751897
0.225343597462552
0.227266141839027
0.229201435313637
0.231059428921855
0.232925809205861
0.234370723124809
0.236553161070975
0.238938407261721
0.242073851606088
0.24510433000665
0.247190191389813
0.247610673256453
0.245813196733991
0.242220233947225
0.235773111397967
0.224702900633334
0.20409265587752
0.160765234466737
0.0770051516114373
-0.109133665592708
-0.138924224726484
-0.000348761358339203
-0.0313032243861624
-0.00876066186141519
0.0110906563279851
0.0130591890025058
0.0148817017245226
0.0155166380150765
0.0162801752123103
0.0168280620999442
0.0175612817596694
0.0182946831406493
0.0189165482163783
0.019210384879672
0.0190604225351298
0.0188094003906925
0.0186365194813009
0.0188474878409708
0.0188260574913482
0.0186058465042659
0.0182870524624214
0.0179415422676862
0.017700234581861
0.0176448761582482
0.0178310403334424
0.0182790214124454
0.0189925140557256
0.0199639546869477
0.0211817934625361
0.0226327644185204
0.0243037767864949
0.0261823889456706
0.0282569729255714
0.0305166196042648
0.0329509791612447
0.0355500546459543
0.0383040294318199
0.0412031554476133
0.044237693958922
0.047397855596029
0.0506736709248416
0.0540549896761108
0.0575315591637506
0.0610930724597113
0.0647292296651807
0.068429780767777
0.0721845676347736
0.0759835637799242
0.0798169425801386
0.0836751146610962
0.0875488011028054
0.0914290788156044
0.0953074347167438
0.0991758128231175
0.103026649285263
0.106852904380485
0.110648084719638
0.114406256971592
0.118122056039978
0.121790687379539
0.125407920227858
0.128970078662272
0.132474030756773
0.13591716104247
0.139297365574596
0.142612997830152
0.145862879080834
0.149046202649893
0.152162553951996
0.15521180762656
0.158194115099437
0.161109947172329
0.163960052278478
0.166745511741658
0.169467617623519
0.172127913425141
0.174728055098845
0.177269828473553
0.179755152425108
0.182186050895957
0.184564674481646
0.186893269493049
0.189174171307662
0.191409777326356
0.193602566959698
0.195755087696656
0.197869997745089
0.199950017684568
0.201998033927036
0.204016960734979
0.206010025594944
0.207980380073297
0.209931833357821
0.211867721615497
0.213792856092446
0.21571020878378
0.217626250646643
0.219542122645221
0.22146714628496
0.22339377996772
0.225336852589955
0.227263635357983
0.22920354872693
0.231064038249386
0.232933366747258
0.234359516175451
0.236575117953895
0.238992090296076
0.242137143991491
0.245114929662919
0.247103711308382
0.247403668667399
0.245497244980589
0.24177851161204
0.235126023207328
0.223693907646455
0.202394798576489
0.158093307679622
0.0736688212053294
-0.105433000065345
-0.132121924929965
-4.67417502675141e-05
-0.0303993867936291
-0.00961428568393143
0.0105828924457362
0.0129703462046576
0.0148302764296487
0.0154945873097801
0.0162615450851131
0.0168099497591977
0.0175346006280077
0.0182667220073962
0.018898301456123
0.0192152271821802
0.0190840057511753
0.0188342331198101
0.0186477847569718
0.0188586817902494
0.0188395928482058
0.0186136891670301
0.0182889994958825
0.017940919888164
0.0177018631386427
0.0176520003421924
0.0178447178985436
0.0182986799209944
0.0190169071245177
0.019991679580581
0.02121154995729
0.022663418071284
0.0243343613741942
0.0262120846720867
0.0282850797771713
0.0305425340039159
0.032974177283742
0.0355700794841083
0.0383204799628228
0.0412156808612815
0.0442460029164187
0.047401711829735
0.0506728707945374
0.0540493684574669
0.0575209954773289
0.0610774859215472
0.0647085785070072
0.0684040612050021
0.0721538129446007
0.0759478421813058
0.0797763558406947
0.0836297953693544
0.0874989102300915
0.0913748028717937
0.0952489826416184
0.0991134129871951
0.102960546394881
0.106783356425427
0.110575360069178
0.114330631548307
0.118043810579442
0.121710104947791
0.125325283811527
0.128885668748545
0.132388123326138
0.135830025064185
0.13920926152031
0.142524175298047
0.145773577081945
0.148956649563259
0.152072970695071
0.155122411044017
0.158105116288127
0.161021547408763
0.163872438353639
0.166658854768908
0.169382073249815
0.172043625365674
0.174645161779745
0.177188464845333
0.179675447173817
0.182108120169264
0.18448863120508
0.186819227597442
0.189102240775378
0.191340070040244
0.193535194991044
0.195690166799383
0.197807649962182
0.199890373879392
0.201941240588596
0.203963182844559
0.205959456116536
0.207933237213161
0.209888378373112
0.211828239025276
0.213757712584735
0.215679788984179
0.217601020323039
0.21952247387837
0.221453661705912
0.223386731992706
0.22533691805881
0.227270509929695
0.229217957557517
0.231083164774618
0.232959554360807
0.234369782253438
0.236602631699949
0.239025749930018
0.242157105174907
0.245058442887866
0.246932716591411
0.247102277697812
0.245081352064226
0.241226904240672
0.234349615004768
0.222519895327507
0.200484125104862
0.15513447359789
0.0701280019855152
-0.101568496610419
-0.124911199377992
0.000494762859193722
-0.0290491308323942
-0.0104868189082816
0.0100250190477739
0.0128634707977278
0.0147771392386766
0.0154711480482958
0.016241939431031
0.0167907014848596
0.0175052214178624
0.0182327506576286
0.0188696012006712
0.0192071893318232
0.0190992633829296
0.0188644930396462
0.0186675023764494
0.0188730694037948
0.0188542760927502
0.018619303889631
0.018286973076203
0.0179372813614908
0.017702862918899
0.0176607551325411
0.0178614718139683
0.0183220624729857
0.0190451065781112
0.0200229349590379
0.0212443436749109
0.0226964851127244
0.024366657457167
0.0262427446548587
0.0283133788076166
0.0305678571390938
0.0329959987173801
0.0355879469379297
0.0383340023296545
0.0412245216118858
0.0442498821562482
0.0474004014945554
0.0506661874241519
0.0540371735080532
0.0575031934665888
0.0610540220417832
0.0646794377405018
0.0683692677723747
0.0721134293406517
0.0759019668568104
0.0797251217614557
0.083573367021066
0.0874374810754005
0.0913085923049422
0.0951782327040114
0.0990383852281497
0.102881518607912
0.106700619463718
0.110489214817229
0.114241385974396
0.117951776890966
0.121615597025513
0.12522861470351
0.128787148181568
0.13228805564337
0.135728706622972
0.139106979217709
0.142421204039682
0.14567018021333
0.148853078615608
0.151969468976572
0.155019217025774
0.158002462169533
0.160919655182309
0.163771514710716
0.166559090067813
0.169283641465033
0.171946687582367
0.174549874277695
0.177094979255037
0.179583907312484
0.182018664275411
0.184401393923968
0.186734337818959
0.189019824075493
0.191260255017073
0.193458114134254
0.195615957580427
0.197736458026252
0.199822356053382
0.201876572136178
0.203902061172492
0.205902111175226
0.207879929517433
0.209839417994337
0.211783969186463
0.213718555197393
0.215646207148473
0.217573580043542
0.219501670797535
0.221440207116204
0.223381062404514
0.225339929294823
0.227282201570247
0.22923950649039
0.231112111362575
0.232999227478227
0.234396359891874
0.236636030527575
0.23904162821888
0.242138434839161
0.244941150916905
0.246682948096806
0.246709634047444
0.244563457549489
0.240557340750856
0.233428898288714
0.22115694754726
0.198327233302833
0.151861421999705
0.0664418164938426
-0.0976208159006927
-0.117490594094578
0.00127503706993832
-0.0272767552057929
-0.011328438475553
0.00942327304226537
0.0127288065356967
0.0147222775550486
0.0154464581658074
0.0162212858396382
0.016770056781231
0.0174724314694802
0.0181913928590173
0.0188286952800248
0.019185208281649
0.019106700181568
0.0189039258356107
0.0186955361938442
0.0188901742302462
0.0188668271625763
0.0186194498571701
0.0182788534387473
0.0179295218508331
0.0177022934700838
0.0176697827729951
0.0178794854511552
0.0183470994232589
0.01907500175423
0.0200557215958498
0.0212783802599655
0.0227304286001069
0.0243994122938157
0.0262734118147392
0.0283412109493809
0.0305922249378175
0.033016368148603
0.0356038622399081
0.0383450726105914
0.0412304073160713
0.0442503011901206
0.0473951287106081
0.0506550510881192
0.0540200465848021
0.0574799924464713
0.0610247049386558
0.0646440036990316
0.0683277565044172
0.0720659201307063
0.0758485760638921
0.0796660013764622
0.0835087014239682
0.0873674844460498
0.091233505413351
0.0950983194911424
0.0989539295716633
0.102792820914567
0.106607993380893
0.110392984099325
0.114141881423775
0.117849333419487
0.121510551012179
0.125121301388752
0.128677899121057
0.132177196591994
0.135616554847486
0.138993842043208
0.142307376164058
0.145555944271259
0.148738704577631
0.151855218083488
0.154905344845511
0.157889217399457
0.160807276139504
0.163660223886223
0.166449093412257
0.169175127989603
0.171839832978272
0.174444849117984
0.176991948010208
0.179483028604965
0.181920091740702
0.184305272903002
0.186640808374833
0.188929025497688
0.191172329738431
0.193373209657656
0.19553422702483
0.197658063444217
0.199747471660806
0.20180539161221
0.203834801798908
0.205839024325611
0.207821299050964
0.209785578738454
0.211735293290336
0.213675486845217
0.215609240260328
0.217543317328554
0.219478646973973
0.22142517161802
0.223374525900282
0.225342874361475
0.22729484735304
0.229263340564651
0.231145267360495
0.233045778205222
0.23443176678259
0.23667625776981
0.239043991546819
0.242088718895106
0.244773736908435
0.246366553687567
0.246237344477574
0.243952137926497
0.239774489669979
0.232363886099323
0.21960083237932
0.195920919355724
0.148300676296072
0.0626967796611703
-0.0935126676203641
-0.109964723058934
0.00230332174491763
-0.0251694311577595
-0.0120696048737231
0.00880382139791326
0.0125539886216249
0.0146646896118767
0.0154207594072138
0.016199545807885
0.0167478045279139
0.0174357698678468
0.0181421996765613
0.0187759895236234
0.019151373723709
0.0191091227706969
0.0189526844186667
0.0187300974408107
0.0189078976875761
0.0188736007281997
0.0186114588351553
0.0182632220911894
0.0179167853967532
0.0176990668080239
0.017677620026014
0.0178971125589675
0.018372164649859
0.0191051080892505
0.0200887547992074
0.0213125955429682
0.0227644065486623
0.0244319988954467
0.0263036635041994
0.0283683462405062
0.0306155886637942
0.0330354073065369
0.0356181076637943
0.0383541211320126
0.0412339056469567
0.0442479576370861
0.047386720363021
0.0506404080538598
0.053999044994175
0.0574525535166313
0.0609907926909689
0.0646036247253449
0.0682809594029478
0.072012794426219
0.0757892495087482
0.0796006385183982
0.0834375001013833
0.0872906731832936
0.0911513400620369
0.0950110796974439
0.0988619154807246
0.102696349636829
0.106507395624847
0.110288600953861
0.114034061202007
0.11773842864308
0.121396915708145
0.125005288389196
0.128559857476608
0.132057469410621
0.135495476535222
0.138871736884725
0.142184555482656
0.145432707138325
0.148615336766837
0.151731996349009
0.154782539410616
0.157767090971739
0.160686081055333
0.163540196306006
0.166330453040641
0.169058077411115
0.171724562154723
0.174331539115016
0.17688077644508
0.179374166831678
0.181813703564662
0.184201514365143
0.186539830979538
0.188830980568031
0.191077371510584
0.193281497626555
0.195445926519575
0.197573348969189
0.199666530192456
0.201728429626925
0.20376204962182
0.205770746284258
0.207757792008584
0.209727189197998
0.211682405719989
0.213628550346971
0.215568753941325
0.217509884328827
0.219452803219275
0.221407650866456
0.223365852527263
0.225344024010645
0.227306165638765
0.229286466899282
0.231178884134197
0.233094340594848
0.234470554976026
0.236723377104409
0.239035343547043
0.242012829305077
0.244563439438364
0.245992402283584
0.245694727703614
0.243255645707022
0.238885062287066
0.231159479419871
0.21785673410414
0.193276705608138
0.144494100563728
0.0589428814969463
-0.0891683875941334
-0.102401962664633
0.00359191013534272
-0.0228160978507824
-0.0126454294434743
0.008202359434727
0.0123287675264389
0.0146016877925704
0.0153943417916109
0.0161767792803445
0.0167239014878681
0.0173952601877314
0.0180858861729742
0.0187136895284327
0.0191091623837824
0.0191090387953792
0.0190076975261136
0.0187675807083907
0.0189233642025356
0.0188717988848435
0.0185937342580398
0.0182394412011626
0.0178986070358489
0.0176923971407311
0.0176832552918818
0.0179132919363829
0.0183962612206327
0.019134544855274
0.0201212894110701
0.0213463831708889
0.0227979478017429
0.0244640751384053
0.0263332800633299
0.0283946812381341
0.0306379555020492
0.033053229194252
0.0356308981934071
0.0383614550346762
0.0412354144407311
0.0442433419312448
0.0473757553193294
0.0506229212120359
0.0539749120753047
0.0574216969590641
0.060953178924183
0.0645592640782477
0.0682299055297449
0.0719551430901728
0.0757251356781246
0.0795302349720082
0.0833610136564994
0.0872083421181468
0.0910634306340731
0.0949178825267869
0.0987637422382556
0.102593529411452
0.106400271512556
0.110177526787371
0.113919398321206
0.11762054282764
0.121276174438684
0.124882058065141
0.128434500813482
0.1319303432488
0.135366929026184
0.1387421061244
0.142054166520085
0.145301872857079
0.148484356307398
0.151601159764994
0.154652129363788
0.157637381924862
0.160557337301389
0.163412665746105
0.166204367565457
0.168933652418486
0.171601998850818
0.174211030094229
0.176762510890302
0.179258325695844
0.18170046041369
0.184091035826405
0.186432279128579
0.188726517018304
0.190976160496773
0.19318370863485
0.195351734823168
0.197482938929563
0.199580098520328
0.201646191905016
0.203684244735501
0.205697645971373
0.207689699422054
0.20966445412441
0.211625414559767
0.213577745831388
0.215524625594068
0.217473014172147
0.219423706393212
0.221387014596564
0.223354181951259
0.225342233398605
0.22731467265615
0.229306953221278
0.231210547156858
0.233141721879646
0.234509778460164
0.236775551056059
0.239016568860144
0.24191329015614
0.244314265163827
0.245565608798342
0.245087264699555
0.242478880878718
0.237893135896809
0.229818951023665
0.215930067778315
0.190407176861854
0.140471724633798
0.0552291465360514
-0.0843968189886538
-0.0948343226225573
0.00514026115799045
-0.0202945472466766
-0.0130069866080885
0.00764238374976013
0.0120526882532059
0.0145286309622432
0.0153673752969936
0.0161531918601159
0.0166985440047227
0.0173514573425067
0.0180240340654069
0.0186446239791978
0.0190614668498614
0.0191070851736291
0.019063906793276
0.0188037441082354
0.0189339785289192
0.0188596376853916
0.0185655602577743
0.0182074519558008
0.0178748359476601
0.0176818185551305
0.0176860591818235
0.017927352290686
0.018418745947921
0.019162731043546
0.020152822881317
0.0213793256019019
0.0228307216504953
0.0244953966578514
0.0263621021742314
0.0284201400530852
0.0306593314005328
0.0330699201702046
0.0356423987006525
0.0383673137044678
0.0412352463720848
0.0442368445332103
0.0473626972685523
0.0506031256140621
0.0539482521321371
0.057388093968101
0.060912599162581
0.0645117188732717
0.0681754506630654
0.0718938774019264
0.0756571979617061
0.0794558026541422
0.0832802987536734
0.0871215887342814
0.090970911384205
0.0948198948665207
0.0986606051834019
0.102485579833188
0.106287860718765
0.110061017231784
0.113799160324469
0.117496951483926
0.121149606867475
0.124752890559446
0.128303106245416
0.131797088862848
0.135232173587839
0.138606198624472
0.141917443034941
0.145164657634827
0.14834695957493
0.151463882820823
0.154515265250056
0.15750121475076
0.160422141395695
0.163278698964076
0.166071873002682
0.168802855870618
0.171473112755742
0.174084258027556
0.176638050436893
0.179136366943826
0.181581186071031
0.183974622043731
0.186318897306324
0.1886163376457
0.190869356335999
0.193080457547192
0.19525222019786
0.197387352876782
0.19948864501461
0.201559092610166
0.203601743430742
0.205620017282687
0.207617247347367
0.209597524985325
0.211564388491178
0.213523049934906
0.215476728748234
0.217432461276799
0.219390975961935
0.221362725019329
0.223338797745885
0.225336569372265
0.227319186132283
0.229323283172409
0.231238396985553
0.233185511950685
0.234547090645893
0.236830570404727
0.238987785827252
0.241791490112359
0.244028609634943
0.245089277384434
0.244418160325235
0.241624403254425
0.236800391433374
0.228343270729637
0.213824622727797
0.187321019329355
0.136262230755503
0.0518380100610862
-0.0789875703872596
-0.0873035711229069
0.0069124631716585
-0.0176780604538484
-0.0131282980387954
0.0071268715996634
0.0117421903591081
0.0144393377352693
0.015339677895496
0.0161291343516188
0.0166721712042274
0.0173053169705712
0.0179585344139491
0.0185712525582823
0.0190098508753159
0.019102212482939
0.0191156901299171
0.018834795383752
0.0189377599503748
0.0188360272692039
0.018526878663636
0.0181675516996257
0.0178455015891099
0.017667066552827
0.0176856207670742
0.0179388282204417
0.0184391548899239
0.01918923525037
0.0201829740407162
0.0214111011088485
0.0228624704477352
0.0245257718995144
0.0263900052398059
0.0284446652164136
0.0306797259248561
0.0330855566395672
0.0356527490010042
0.0383719024086785
0.0412336723242241
0.0442288011649734
0.0473479453516137
0.0505814827460642
0.0539195873924409
0.0573523256572768
0.0608696913405011
0.0644616816127574
0.0681183394288434
0.0718297914322053
0.0755862769651858
0.0793782256052774
0.0831962795686508
0.0870313738927685
0.0908747762853039
0.09471814013043
0.0985535534504093
0.102373572010542
0.106171252588671
0.109940176170906
0.113674461997843
0.117368776749687
0.121018339045166
0.124618912518738
0.128166797843602
0.131658824735651
0.135092320275845
0.138465113365372
0.141775470477506
0.145022131167318
0.148204198434559
0.151321197707232
0.154372957731514
0.157359576650529
0.160281455350307
0.16313923149582
0.165933876958204
0.168666565726757
0.171338752418321
0.173952039799645
0.176508179295834
0.179009041397469
0.181456596957802
0.183852953964819
0.186200329961445
0.188501049247498
0.190757526942214
0.192972271997117
0.195147868413225
0.197287032889281
0.199392565922752
0.201467479527301
0.203514841848049
0.205538100803758
0.207540616127053
0.209526516105421
0.211499368867862
0.213464423054811
0.21542493363899
0.217387992721456
0.219354263372222
0.221334299793928
0.223319067866884
0.225326219045885
0.227318690225553
0.229334160085347
0.231260851062188
0.233223666637797
0.234580277446373
0.236886199037825
0.238948664238639
0.241648172154259
0.243707973596243
0.244565391930863
0.243689339619994
0.240693441272983
0.235607156874685
0.226732412154506
0.21154311984334
0.184020798761176
0.132022613466358
0.0491475334775254
-0.0731265996575536
-0.0798871746735561
0.00881044496911874
-0.0150201982339366
-0.013006865124243
0.00664816011877969
0.0114311428977728
0.0143272309880937
0.0153105195271729
0.0161050543111002
0.0166454110113101
0.0172579779758436
0.0178911379984725
0.0184953045752047
0.0189547552618865
0.0190925059105667
0.019157873915859
0.0188578063191953
0.0189332008625326
0.0188003774629351
0.0184781242610112
0.0181202015290797
0.0178107173345061
0.0176479921046722
0.0176816571228702
0.0179473779631258
0.0184571354275201
0.0192137222915982
0.0202114425139928
0.021441453886882
0.0228929885597324
0.0245550484202351
0.0264168918643454
0.0284682154290531