/*--------------------------------*- C++ -*----------------------------------*\
  =========                 |
  \\      /  F ield         | OpenFOAM: The Open Source CFD Toolbox
   \\    /   O peration     | Website:  https://openfoam.org
    \\  /    A nd           | Version:  7
     \\/     M anipulation  |
\*---------------------------------------------------------------------------*/
FoamFile
{
    version     2.0;
    format      ascii;
    class       volScalarField;
    location    "20000";
    object      Pk;
}
// * * * * * * * * * * * * * * * * * * * * * * * * * * * * * * * * * * * * * //

dimensions      [0 2 -3 0 0 0 0];

internalField   nonuniform List<scalar> 
15600
(
2.83670542196666e-08
1.54916159643944e-10
3.02844703682241e-09
1.3096586108782e-09
3.15119163966379e-11
2.49098843390963e-12
4.8189833510146e-12
8.95248717709712e-12
1.54304334408849e-11
2.5237310229726e-11
2.82541071609475e-11
1.68013878933931e-11
5.50324877595943e-13
1.07867561396181e-11
2.43993150129007e-11
1.17167580988164e-11
5.06505419819546e-12
1.85134423160191e-12
5.69426317787662e-12
1.10683250697077e-10
5.72662810906866e-10
1.82043133534693e-09
4.31814175695763e-09
8.43410374817839e-09
1.43646746197735e-08
2.21640471832834e-08
3.17826745510252e-08
4.31139305987014e-08
5.60148515406274e-08
7.03204203954564e-08
8.58455265707394e-08
1.0238593059894e-07
1.19718014647007e-07
1.37599479521072e-07
1.55771558456898e-07
1.73963689699425e-07
1.91899856448362e-07
2.09306430259329e-07
2.25922893948267e-07
2.41506215626239e-07
2.55854224831012e-07
2.68804094728611e-07
2.80074895124368e-07
2.89369186095593e-07
2.9651424943291e-07
3.01422831936357e-07
3.04053465161031e-07
3.04410978821048e-07
3.02544679853822e-07
2.98546272653571e-07
2.92545106698934e-07
2.84703282414134e-07
2.75209475454831e-07
2.64272302903649e-07
2.52113818230841e-07
2.38962971298202e-07
2.25049576855736e-07
2.10598933492493e-07
1.95827037012314e-07
1.80936632591072e-07
1.66114182148357e-07
1.51527409411644e-07
1.37323700477638e-07
1.23629170562155e-07
1.10548044783854e-07
9.81629661936499e-08
8.65353093123612e-08
7.57076648586667e-08
6.57054648477339e-08
5.65418070137353e-08
4.82183233559916e-08
4.07250969974704e-08
3.40406318702506e-08
2.81329368313183e-08
2.29619124099321e-08
1.84810888119439e-08
1.46418970518157e-08
1.13931030434548e-08
8.68230482267355e-09
6.45598874126576e-09
4.66147517081719e-09
3.24576524635045e-09
2.15883298992119e-09
1.35182857266313e-09
7.78746746249761e-10
3.96147010670109e-10
1.63496198956971e-10
4.34919628346434e-11
2.38853405753212e-12
1.01671352858642e-11
4.09914689911675e-11
7.39539593929318e-11
9.35767892907745e-11
9.20689683937268e-11
6.89649772137879e-11
3.35239110756148e-11
3.83803266789805e-12
9.19894941956454e-12
8.41658323607316e-11
2.50205001731312e-10
5.27613638992645e-10
8.47542132049005e-10
1.1880092041892e-09
1.2745371170648e-09
2.08474593915263e-09
3.69301981620333e-09
4.17411849240801e-09
3.09925580625442e-09
4.4734661768294e-10
9.60451757468775e-10
8.42892033620781e-09
2.07022064768644e-08
3.45731054561373e-08
5.15946168628432e-08
8.43796289984691e-08
1.97971337097566e-07
8.1964510212201e-07
8.7895130501955e-06
1.47598658953565e-05
6.159240348999e-07
7.41630273579375e-06
1.39857641245171e-07
4.23468483034092e-07
2.02579289836821e-07
6.70385708312313e-09
5.45351921967922e-10
8.5637327074097e-10
1.56304116240431e-09
2.6646645146944e-09
4.26260188124305e-09
4.90470552578063e-09
3.41134814578305e-09
6.29395240665175e-10
5.89845649377483e-10
2.13178118021301e-09
1.16212251881524e-09
2.6058467091921e-10
2.6871421675806e-10
7.40189171015694e-09
4.73464819756534e-08
1.71827639587788e-07
4.49208288558009e-07
9.38122757550949e-07
1.67269621197711e-06
2.66028873387952e-06
3.89057732492843e-06
5.3427525877748e-06
6.99137778060495e-06
8.8085786776815e-06
1.07652529769602e-05
1.28310894562124e-05
1.49745895808421e-05
1.7163101126615e-05
1.93630349562568e-05
2.15402775071621e-05
2.36608369907649e-05
2.56916331223223e-05
2.76014773736836e-05
2.93623668780017e-05
3.09496427520207e-05
3.23445598671012e-05
3.35339206273685e-05
3.44856557143475e-05
3.51718262933556e-05
3.5586638521291e-05
3.57287830505117e-05
3.56021160636752e-05
3.52154630785132e-05
3.45821835389143e-05
3.37197253089496e-05
3.26489588128517e-05
3.13935122422766e-05
2.99790327151254e-05
2.84324354796499e-05
2.67811987354404e-05
2.50526915633461e-05
2.32735753669976e-05
2.14692895898476e-05
1.96636165334703e-05
1.78783385259038e-05
1.61329887201917e-05
1.4444673927532e-05
1.28279716005483e-05
1.12949086068784e-05
9.85496080257862e-06
8.51516191007207e-06
7.2802097022284e-06
6.15274914498188e-06
5.13359797046385e-06
4.22212568844426e-06
3.41635742753349e-06
2.71302412708626e-06
2.10765282471509e-06
1.59475067328247e-06
1.16806613112968e-06
8.20813069600479e-07
5.45948606040453e-07
3.36210488645139e-07
1.84236752681657e-07
8.26469005974502e-08
2.41515657641133e-08
1.63224260712584e-09
8.20577148793772e-09
3.72609979488632e-08
8.2493571697207e-08
1.37956444001865e-07
1.98070531242412e-07
2.57671436049363e-07
3.12007268605683e-07
3.56845831130203e-07
3.88430395615147e-07
4.03829905285826e-07
4.0078146210796e-07
3.79060321992477e-07
3.39891745572853e-07
2.84882082918789e-07
2.17507556680759e-07
1.46005332053728e-07
7.85227537386283e-08
2.808824877486e-08
2.75011541440569e-09
7.97327717135562e-09
3.95304630170393e-08
8.05729192159782e-08
1.79198380526915e-07
2.97702081727811e-07
2.76453473921641e-07
1.40175817446177e-07
1.5883149058515e-08
3.8844817459223e-07
1.61789331627893e-06
3.39968861617738e-06
5.42291987037804e-06
7.90291797409536e-06
1.26887668073495e-05
2.83691037592007e-05
0.000108050082836748
0.000827496146613698
0.00121791270710157
0.000177555662804313
0.00096080054848162
1.10013329923487e-05
6.19335127807803e-06
3.48167236337287e-06
1.59662501207795e-07
1.34039413267469e-08
1.75725578144505e-08
3.14818001432373e-08
5.29846706458019e-08
8.29098939515335e-08
9.83021791430326e-08
8.00132245475798e-08
3.27703780146136e-08
5.41257916599538e-09
1.09077861831003e-08
8.22832586455101e-09
2.11325162317015e-09
5.67474074626871e-08
4.29823643156706e-07
1.79136940601501e-06
5.13194176818598e-06
1.13790912760779e-05
2.09947715455242e-05
3.39409058729248e-05
4.98410852094089e-05
6.81805041479882e-05
8.84149078876362e-05
0.000110025707576419
0.000132529892635709
0.000155480372983178
0.000178459323468256
0.000201074375269769
0.000222957292072104
0.00024376514698507
0.00026318316557265
0.000280928904654967
0.000296756984566517
0.000310465180432033
0.000321903061941023
0.000330963489811613
0.000337622011318532
0.000341784700682138
0.000343226253189248
0.000342059882121724
0.000338383001955954
0.000332330644895032
0.000324070832703714
0.000313800023309713
0.000301737451076479
0.000288119864381054
0.000273195543700759
0.000257218770177678
0.000240444434146541
0.000223123020065694
0.000205496247502821
0.000187793255489671
0.000170227458051181
0.000152994073334595
0.00013626825769411
0.000120203849521577
0.000104932680426025
9.05643482163144e-05
7.71864032691857e-05
6.48649933837709e-05
5.36456967610392e-05
4.35548832031649e-05
3.46012117518348e-05
2.67776665176888e-05
2.00634274518941e-05
1.44257128299657e-05
9.82060479174049e-06
6.19407827333134e-06
3.48341916841763e-06
1.61902673841294e-06
5.26247071777257e-07
1.26892609508071e-07
3.40255957185435e-07
1.08392469641877e-06
2.27466333025449e-06
3.82916590291507e-06
5.6655400500345e-06
7.70185326493745e-06
9.85932332679427e-06
1.20592203932184e-05
1.42257057831711e-05
1.6286373422742e-05
1.81699455006374e-05
1.98082333203563e-05
2.11352495417381e-05
2.20886117556843e-05
2.2608998159987e-05
2.26446679212109e-05
2.21500618276909e-05
2.11129732510423e-05
1.95613919176922e-05
1.74872994780992e-05
1.4928764209276e-05
1.20116469755049e-05
8.89366186841697e-06
5.87409102490347e-06
3.21258890686607e-06
1.29779933278309e-06
2.4262870305746e-07
9.81890823155497e-08
7.36606750240649e-07
9.40722291957281e-07
4.20365773029516e-07
3.06418613994488e-07
3.21940568786113e-06
1.33858712983711e-05
3.3994268367159e-05
6.1518141786892e-05
9.3682927296037e-05
0.000133422461116258
0.000208705446586065
0.000433610599141068
0.0014274878750827
0.00658101053684144
0.00827691062463121
0.00318209591373574
0.0102710743618312
0.00023568630766104
2.96634849485268e-05
2.13687630216338e-05
1.37476074508511e-06
1.19496570285236e-07
1.33054061578052e-07
2.3343901865814e-07
3.868065590805e-07
5.92538497037558e-07
7.26156822603594e-07
6.89906716905212e-07
4.72426201422484e-07
2.03824582847611e-07
1.99331295343737e-08
5.76801597287353e-09
1.25975739132471e-07
1.33841819852812e-06
6.26740488643776e-06
1.95708926476992e-05
4.52273793478497e-05
8.40620019948996e-05
0.000133649798951285
0.00019015362545385
0.000249916445841921
0.000310076938691505
0.000368565924515507
0.000423927594659289
0.000475131229031811
0.000521443763882948
0.000562344754029056
0.000597477338615034
0.000626620003677535
0.000649669038020359
0.000666625951411342
0.000677587304658117
0.000682735564842623
0.000682332462181626
0.000676725725841779
0.000666368316300003
0.000651560574853951
0.000632452159791442
0.000609687841507724
0.000583767993764638
0.000555194075922248
0.000524463166524775
0.000492061557271157
0.000458459263958677
0.000424104995491703
0.000389422288931744
0.000354806189838366
0.000320620859479156
0.000287197930832988
0.000254835477868407
0.000223797650420777
0.000194314770930235
0.000166583849284031
0.000140769441367105
0.000117004759500178
9.53929862486029e-05
7.60087651982794e-05
5.88997871051799e-05
4.40884965017754e-05
3.157384724593e-05
2.13331638576907e-05
1.33239331794086e-05
7.48560703810616e-06
3.74115692087235e-06
1.99834364617521e-06
2.15100220109853e-06
4.08058882724568e-06
7.65797464406314e-06
1.27453465928161e-05
1.91975063737425e-05
2.68629552495188e-05
3.55829337646153e-05
4.51939377206806e-05
5.55270606711685e-05
6.64106457738493e-05
7.76689872128395e-05
8.91286459737385e-05
0.000100602032897756
0.000111913089386925
0.000122869081475792
0.000133278378577484
0.000142945783104225
0.000151670300425623
0.000159242224875067
0.000165443153670302
0.000170041382456803
0.000172796691491253
0.000173452106564313
0.000171747501692364
0.000167422011523152
0.000160404294873914
0.000150427027192248
0.000137346729688864
0.000121114867752139
0.00010203825346934
8.07360637179255e-05
5.84737968535137e-05
3.72644566048842e-05
1.91674691021843e-05
6.08061321917933e-06
9.75476922669274e-07
2.03568380259326e-06
8.44634229191342e-06
2.47934947251835e-05
5.85608919975767e-05
0.000119862889071029
0.000217883793986367
0.000349441687836926
0.000517397069231933
0.000733624559467377
0.00112293006031012
0.00211443857180254
0.00550299869352933
0.012421115256799
0.0108084645481698
0.0122950009285425
0.0299289795381875
0.00185794816850401
6.83212346912185e-05
7.41433197808807e-05
6.79671763773197e-06
6.1472115520541e-07
5.89763504892253e-07
1.00932620144018e-06
1.63986264849294e-06
2.45941185861774e-06
3.11853514183858e-06
3.41523629609568e-06
3.29663176292997e-06
2.52192763973674e-06
9.53260494037381e-07
2.56629531588249e-07
1.93068644889263e-06
1.17419359329361e-05
3.91145008214743e-05
9.28824594272791e-05
0.000169230515556873
0.000254594210452856
0.000335555824418784
0.000404466434236746
0.000459091435152979
0.000500017112269987
0.000528830610332565
0.00054724599218413
0.000556808936400306
0.000558843452954782
0.000554478653503394
0.000544690974871219
0.000530340994167016
0.000512198688388465
0.000490959930485749
0.000467256833933159
0.000441665279763644
0.000414714218455025
0.000386925808166269
0.000358731217887733
0.000330376539578505
0.000302154716520938
0.000274362271089321
0.000247247283494353
0.000221025749904243
0.000195883134446831
0.000171977085428751
0.000149439638986567
0.00012837953155194
0.000108884432248968
9.10230692694114e-05
7.48472534295775e-05
6.03937812971569e-05
4.7686089713652e-05
3.67357867467916e-05
2.75439530100129e-05
2.01022695672928e-05
1.43940043494569e-05
1.03948356625381e-05
8.07354602928586e-06
7.39265863284384e-06
8.30893849865684e-06
1.07738271511302e-05
1.47338011975226e-05
2.01304999402447e-05
2.69008172190444e-05
3.4976410249139e-05
4.42838165050278e-05
5.47437821463841e-05
6.62726500017556e-05
7.8784345510089e-05
9.21910452738074e-05
0.00010640221819481
0.000121323682415346
0.000136856561349271
0.000152893626357817
0.000169324793670118
0.000186033909026621
0.000202902416493311
0.000219803901701014
0.00023661739901394
0.000253202959490734
0.000269416293720712
0.000285105746735288
0.000300112014173638
0.000314264739070235
0.00032738252363669
0.000339263344954452
0.000349691303698805
0.000358416428928941
0.000365177127945812
0.000369649331213605
0.000371503564851011
0.000370276064412814
0.000365677421343011
0.000357079461966106
0.000343979609025308
0.000325269543928115
0.000300539661151404
0.000268143595437441
0.000228521285901586
0.000180872867183623
0.00012882703881075
7.15181414071574e-05
3.81705896518102e-05
5.82072164289877e-05
0.000103371484058091
0.000175563740369577
0.000268256034846512
0.000398848994696693
0.00058180724509423
0.000852564906984129
0.00125653468687913
0.00182625946629106
0.00278128438319293
0.00466116470456158
0.00878617055430624
0.00834618978779606
0.00144314351848999
0.0183670780457915
0.0424845116790097
0.00657702400361054
7.78321790703976e-05
0.000174377997722606
2.35275120243656e-05
2.24375561820533e-06
1.87745379462077e-06
3.11250751231674e-06
4.92332043938216e-06
7.20008737185876e-06
9.38261781687575e-06
1.15061133631637e-05
1.37518612787984e-05
1.37999072217636e-05
8.52112758739133e-06
3.59100855467943e-06
1.29355751674673e-05
5.22188339575634e-05
0.000126656232530864
0.000226608905221603
0.00031916419308033
0.000380399083417389
0.000407515051624459
0.000409384986897983
0.00039612566256085
0.000374896032830612
0.00034994179837453
0.000323569510721613
0.00029699522218016
0.000270859177584798
0.000245511581761338
0.000221158208938343
0.00019793330460419
0.000175932923678672
0.000155230573860305
0.000135884288345249
0.000117940523520074
0.000101438763964317
8.6420036463444e-05
7.28363339832894e-05
6.06387553155484e-05
4.98322094917956e-05
4.04053691666105e-05
3.23350615917872e-05
2.55932545185653e-05
2.01470952521281e-05
1.59598529759334e-05
1.29916368648036e-05
1.12001502864845e-05
1.0541578257259e-05
1.09712708058781e-05
1.24444184727685e-05
1.49166188438102e-05
1.83442373331423e-05
2.26847153432508e-05
2.78967348857764e-05
3.39402744893879e-05
4.07766250554219e-05
4.83683101666863e-05
5.6678951679004e-05
6.56731311825563e-05
7.53161752410146e-05
8.55738515507772e-05
9.64120900440795e-05
0.000107796339703475
0.000119691188329351
0.000132059240160571
0.000144861319871683
0.000158055388082322
0.000171598349053319
0.00018544862943839
0.0001995666309397
0.000213911633954439
0.00022844052386752
0.000243105760711176
0.000257851638022088
0.000272620875109346
0.000287350904991847
0.000301979543163595
0.000316446058500703
0.000330681283206858
0.000344611024564567
0.000358157965391227
0.000371236845010274
0.000383759947460863
0.000395633081581453
0.000406757795814241
0.000417021029009822
0.000426308878672924
0.000434483166445778
0.00044141917452149
0.000446940776829365
0.000450914072100584
0.000453084801108859
0.000453434527862624
0.000451515760354716
0.000447181693126952
0.000439314153886279
0.000427738669978774
0.000409525007696714
0.000384276803077573
0.000345693757254123
0.000295142753976548
0.000214067164200466
0.00015423199219879
0.000194219880484821
0.00028664754900957
0.000415157786385264
0.00054027543472743
0.00068138462291742
0.000850897549742802
0.00113408429238538
0.00163654677990179
0.00242848186987528
0.00369209847329834
0.00547975982043432
0.00742632383172214
0.00449770403976157
0.00209182285083952
0.0148870362600701
0.0422394453718232
0.0133226435310523
0.000106498204365058
0.000291608054579067
6.19787202315624e-05
6.42229165554041e-06
4.74205756361558e-06
7.53019127973472e-06
1.1458718731214e-05
1.61546646962893e-05
2.1253034329041e-05
2.79750803928285e-05
3.73477049206895e-05
4.22467677024408e-05
3.29281044135769e-05
1.96657387703047e-05
4.807503926661e-05
0.000135380010666949
0.000243750528214199
0.000332328090823577
0.000364919304423809
0.000347979631710224
0.000306401577233578
0.000259096814220865
0.00021496067184037
0.000176687179312413
0.000144360913649793
0.000117237865125005
9.44650936115636e-05
7.53036915280666e-05
5.91731929923789e-05
4.56340913720549e-05
3.43573283683728e-05
2.50941839786885e-05
1.76528387664379e-05
1.18807955280221e-05
7.65195766679206e-06
4.85653511255404e-06
3.38938432807365e-06
3.15361463698666e-06
4.0738795495806e-06
6.0757288121504e-06
9.08468951277241e-06
1.30287256227437e-05
1.78377256976859e-05
2.34431531661973e-05
2.97781154153657e-05
3.67777985777264e-05
4.43797573578485e-05
5.25244887480611e-05
6.11558403213986e-05
7.02213397879702e-05
7.96724969371197e-05
8.94648852881462e-05
9.95581522351683e-05
0.000109915957366623
0.000120505764180998
0.000131298636524293
0.000142268945289835
0.000153394021049503
0.000164653798705945
0.000176030408379163
0.000187507635046325
0.000199070463457974
0.000210704239826643
0.000222394293299083
0.000234124657898879
0.000245878537719642
0.000257636475582452
0.000269378156394081
0.000281086435224977
0.000292748190723518
0.000304349849294081
0.000315875979484543
0.000327306416734798
0.00033861186024774
0.000349759468678837
0.000360713383550307
0.0003714439204528
0.000381916871878865
0.000392102509145003
0.000401956842911505
0.000411437503554579
0.000420496523876168
0.000429087078293932
0.000437159979427231
0.000444667516736185
0.0004515533107154
0.000457769428208644
0.000463255165988814
0.000467981578958476
0.000471888455257177
0.000474995216455063
0.000477227094457509
0.000478816198608426
0.000479642203124266
0.000479982617287407
0.00047920509104613
0.000477828871751443
0.000473396606114979
0.000466169428979711
0.000448537148327372
0.000421013170351226
0.000350446105280071
0.000293399490102666
0.000336479723818617
0.000460426340424197
0.000624864288860739
0.000762756146607063
0.000882806081051403
0.000991017570925758
0.00118725084037094
0.00159680106218152
0.00229643717896977
0.0033875746237594
0.00453718163988925
0.00534357446988187
0.00617800115287656
0.00905639020023571
0.00813307551331183
0.0352109130645884
0.0193973143174969
0.000712648385861643
0.000337212948421514
0.000127665238326465
1.50888952548539e-05
9.98148887421925e-06
1.4937977001239e-05
2.14911199926219e-05
2.86831822789108e-05
3.72827331282945e-05
5.08301659961869e-05
7.12491437926137e-05
8.49615434093807e-05
7.53806205723504e-05
5.99783250829858e-05
0.00011315390566343
0.000233275165452266
0.000323224484537824
0.000346248601542196
0.000305797640366659
0.000240975382236865
0.000179065175982062
0.00012906764113852
9.11526489776234e-05
6.30223216118848e-05
4.231684421356e-05
2.71895954394683e-05
1.63122675466382e-05
8.75397672735606e-06
3.86419191879318e-06
1.18419323185857e-06
3.83908946496303e-07
1.21871479790733e-06
3.50025003582671e-06
7.07625927551043e-06
1.18169162173703e-05
1.76078476064531e-05
2.4363745165743e-05
3.20047479717555e-05
4.04447670414623e-05
4.9596599838573e-05
5.93781793560111e-05
6.9711701614364e-05
8.05216579934346e-05
9.17346464939053e-05
0.000103279345237627
0.000115087374756052
0.000127093714824469
0.000139237433043928
0.000151462315814011
0.000163717195294354
0.000175956347870058
0.0001881395812368
0.000200232171976892
0.000212204792328738
0.000224033186732148
0.000235697889187106
0.000247183828199664
0.000258479845742066
0.000269578206793755
0.000280474064402643
0.000291164757724069
0.000301649266130076
0.000311927296227975
0.000321999054686864
0.000331863761404028
0.00034152038514688
0.000350964376934799
0.000360189031546574
0.00036919194191856
0.000377976582087133
0.000386546814172886
0.000394905157096663
0.000403049086175959
0.000410964217847703
0.00041862895617713
0.000426025710060189
0.000433139816752639
0.000439958247802803
0.000446469692929286
0.000452648683444906
0.000458470997520666
0.000463909300124608
0.000468939708572886
0.000473538685327009
0.000477687919326213
0.000481364242296778
0.000484558068685268
0.00048725524077252
0.000489484296414334
0.000491258173166955
0.000492692445534093
0.000493827930613164
0.000495048621991308
0.000496481247836966
0.000498694172071529
0.00050146861694757
0.000505835281890679
0.000510055178324041
0.000515147169270883
0.000514143985915952
0.000507980975803267
0.000455453421255938
0.000415720711814707
0.000461754143503404
0.000611206468019228
0.000806634665889088
0.000963773883151133
0.00107470497503225
0.00114125389729361
0.00126293270276876
0.00156543365047894
0.0021098857331223
0.00297188593297232
0.00385496737015764
0.00539283152483536
0.0104563994817996
0.0147937525889684
0.00382682655755908
0.0270017219599001
0.023721205956612
0.00267455488842763
0.00024550935046008
0.000207755911667066
2.94373868506712e-05
1.78699246050016e-05
2.4714933440978e-05
3.29713270847447e-05
4.10100359644146e-05
5.22924858486848e-05
7.33022840549699e-05
0.000105999382598769
0.000130651855563725
0.000126515092017406
0.000120749067542257
0.000190150829873183
0.000303368790733418
0.000336359030275263
0.000294425037714153
0.000218840162793077
0.000149124640929426
9.70346547862329e-05
6.12256281421887e-05
3.76028465003253e-05
2.2624694313685e-05
1.37642318613493e-05
9.32935280306052e-06
8.19304474888013e-06
9.60160118167332e-06
1.30423500619286e-05
1.8159978446419e-05
2.46994040893892e-05
3.24700542020722e-05
4.13215678446063e-05
5.11270568430187e-05
6.17741139530093e-05
7.31747103404042e-05
8.52634533192211e-05
9.79620350472711e-05
0.000111181854932048
0.000124832969365962
0.000138831212042556
0.000153096306370413
0.000167550189624316
0.000182116737835337
0.000196721684423812
0.000211294012133163
0.000225766554873773
0.000240076940768351
0.00025416854455174
0.000267990845162031
0.000281499994728532
0.000294658951313415
0.000307437363242852
0.000319811521366972
0.00033176391832904
0.000343282902258755
0.000354362182843789
0.000365000205671851
0.000375199527927952
0.000384966157243565
0.000394308691256682
0.000403237712380174
0.000411764837953164
0.000419902777399319
0.000427663546000401
0.000435059543959812
0.000442098206191224
0.000448782385731183
0.000455120159154843
0.000461127435662809
0.000466821674480522
0.000472219663313872
0.000477333024182973
0.000482154935730077
0.000486676235571089
0.000490887903290152
0.000494789421339499
0.00049838013374986
0.000501661142378154
0.000504620087660606
0.000507243938033698
0.000509518501250649
0.000511434858314772
0.000512986615575149
0.000514175438738294
0.000515000890808612
0.00051547931970973
0.000515628861786396
0.000515517997032906
0.000515212319698111
0.000514895780062567
0.000514701134805427
0.000515103498529297
0.000516423937543408
0.000519437305113186
0.000524241050393467
0.000532216314415956
0.000542237785076494
0.000555891529654022
0.000567222441498329
0.000577945664006463
0.000543058252293341
0.000520015687767293
0.000576407486045835
0.000753653025551114
0.000982979078590395
0.00117113325924782
0.00129191159529759
0.00134638541848386
0.00143532333714196
0.00168993334073073
0.00216861938490374
0.00298981996958035
0.00408725086751285
0.00719380082037471
0.0153929067496259
0.0186909681826278
0.0024599576324831
0.0204449428166606
0.026385194844126
0.00601545887773887
8.07309955609875e-05
0.000274917319116393
4.72463148326896e-05
2.72953511233915e-05
3.42725623366891e-05
4.18498816149258e-05
4.85650426303241e-05
6.19978045379083e-05
9.0904971869139e-05
0.000136008008587882
0.000172505843541781
0.000177929114943345
0.000185313119632309
0.0002536073525543
0.00032781943445779
0.0003017323779023
0.000226153091829581
0.000149890290153486
9.44643094256429e-05
5.89803869480409e-05
3.80933428971697e-05
2.71320050544388e-05
2.29230448066228e-05
2.33916117064394e-05
2.72142034856686e-05
3.35237716484876e-05
4.17477214673883e-05
5.14989176333956e-05
6.25106331764035e-05
7.45896614629495e-05
8.75892499528327e-05
0.000101389343549445
0.000115882840472358
0.000130974356021379
0.000146599789560468
0.000162695811024223
0.000179186259060572
0.0001959800866819
0.000212984595840563
0.000230112347319609
0.000247279343541682
0.000264403962713883
0.000281406358906373
0.000298208250864355
0.000314734884684553
0.000330915804812048
0.000346686020249758
0.00036198732080875
0.000376768656432515
0.000390986907371504
0.000404607072118086
0.00041760208704928
0.00042995282087728
0.000441647494759509
0.000452681274766066
0.000463055668587173
0.000472777737739378
0.000481859328472455
0.00049031627687776
0.000498167380553588
0.000505433757586403
0.000512137880759031
0.00051830406597202
0.00052395631995859
0.00052911988962304
0.00053381320495275
0.000538046644194801
0.00054183659174277
0.000545209390202744
0.000548194450619075
0.000550821411850763
0.000553112102435012
0.000555070804532281
0.000556694554394326
0.000557985324610631
0.00055895033961672
0.000559599251344818
0.000559943195946346
0.00055998035347973
0.000559705798376052
0.00055911494951207
0.000558210165758103
0.000556998394985821
0.000555497141629216
0.000553724092442092
0.000551716018033132
0.000549516945406921
0.000547227486663478
0.000544956573534072
0.000542943564316245
0.000541400930385429
0.000540874092294683
0.000541839117368944
0.000545234844569952
0.000551410094660831
0.00056200255308205
0.000576378461981966
0.000596542011287139
0.000617492435446139
0.000641837754006707
0.000622729220129652
0.000613093138609678
0.00068647545178526
0.000895363817583261
0.00116298568936443
0.00139133241989207
0.00153635671128691
0.00160167897202954
0.00169390239881199
0.0019575560574912
0.00246726297324372
0.00343306496335481
0.00506402704522618
0.0100067250523388
0.0203214833252257
0.0211800511468764
0.00255559601291518
0.0164497416685301
0.0279089970283568
0.0100637511300277
1.2927237593631e-06
0.000314137176973315
6.16128831591464e-05
3.53815171237037e-05
4.00201010400004e-05
4.48655693431081e-05
4.98575522059788e-05
6.62878338077778e-05
0.000103532117334239
0.00016045772761441
0.00020865940312866
0.000225175892677352
0.000239345614472969
0.000289381050428053
0.000313766308127536
0.000249148235235765
0.0001690408754365
0.000107483790354542
6.96651468627339e-05
4.93436671797204e-05
4.08188263438941e-05
4.00217349547575e-05
4.44178357871e-05
5.23836594361157e-05
6.29025687097732e-05
7.530457604819e-05
8.91485144770947e-05
0.000104136906776411
0.000120066514957746
0.000136788445083548
0.000154187640951709
0.000172165854787638
0.000190629739327176
0.000209498007748643
0.000228717652635709
0.000248228165582339
0.000267953898404783
0.000287799983309048
0.000307669514581667
0.000327470225676614
0.000347113080217203
0.000366511814324119
0.00038558182471745
0.000404239745357421
0.00042240604222662
0.000440005936241671
0.000456970799331592
0.000473239874592515
0.000488760664005659
0.000503489922246088
0.000517393909612782
0.000530448127554095
0.00054263737301246
0.000553954993315665
0.000564402421298002
0.000573988448501864
0.000582728261401846
0.000590642512009595
0.000597756381085206
0.00060409836882228
0.000609699638202547
0.000614593050439679
0.000618814245342419
0.000622399084163547
0.000625385844529275
0.000627803819830843
0.00062966973183524
0.000631006955210319
0.000631851157234124
0.000632242980757577
0.000632222806656545
0.000631824081235509
0.000631061004327243
0.000629939912010437
0.000628468423360662
0.000626660473611433
0.000624534980097647
0.000622112383149237
0.000619400176618792
0.000616400089546211
0.000613115366940542
0.000609557885345785
0.000605746238033369
0.000601712015305235
0.00059748906034739
0.000593132129519808
0.000588708248832334
0.000584346657201673
0.000580195305173139
0.000576542699372025
0.000573674046142881
0.000572198682585247
0.000572720635540191
0.000576318693304096
0.000583549501341516
0.000596251129746959
0.000614181322739339
0.000639665303383882
0.000668499059040285
0.000704234442965315
0.000699031365449362
0.00070016927659879
0.000794748522203625
0.00103891875864092
0.0013489868852555
0.00162370001550789
0.00180290865701012
0.00189616371650415
0.00201991717626862
0.00233733890189726
0.00295464429878677
0.00420387969846072
0.00657187469642254
0.0134179365143111
0.0248260985652571
0.0239468254297655
0.00310426949933497
0.0147684196756328
0.0287326239606518
0.0141484665768983
0.00017414568011912
0.00032859004324136
6.59099372773954e-05
3.86979738271637e-05
3.9804387826132e-05
4.1926273732518e-05
4.66810381882632e-05
6.71283626565879e-05
0.000112283105739055
0.00017956188571353
0.000238360232726208
0.000264908133389764
0.000275588430272783
0.000296503744523574
0.000277807780336696
0.000198775951905283
0.000130024815471754
8.63378743858382e-05
6.42504794009879e-05
5.64562575648609e-05
5.80389224886462e-05
6.56546073807574e-05
7.7310343501579e-05
9.17215836754336e-05
0.000108091329854463
0.000125885329938571
0.00014475273747042
0.000164458860002273
0.000184846419134086
0.00020579908346893
0.000227225701346319
0.000249044513982565
0.000271168756109187
0.000293533163409501
0.000316084410094062
0.000338768988392047
0.000361510108355329
0.000384207638646958
0.000406758969239816
0.000429065755854782
0.000451032922631893
0.000472568760744571
0.000493583130470941
0.000513986745006118
0.000533694480772578
0.000552626439399143
0.0005707095803757
0.000587879888042003
0.000604082754267458
0.000619274212826694
0.000633421271867709
0.000646501539541056
0.000658503359922148
0.000669424872969572
0.000679273500443579
0.000688065076759048
0.000695822701207183
0.000702575628882829
0.000708358182727739
0.000713208348869301
0.00071716712197243
0.00072027755631479
0.000722586612285558
0.000724142182584111
0.000724996159786521
0.000725189010623406
0.000724743014468048
0.000723687611320385
0.000722067103202915
0.000719932525747873
0.000717333207291194
0.000714317590128526
0.00071091142254479
0.000707127715776244
0.000702978258749907
0.000698483231856848
0.000693670398217267
0.000688569548528205
0.000683196944429008
0.000677560274372753
0.000671669679732773
0.000665545748875827
0.000659218078763336
0.000652731795311646
0.000646136239763486
0.000639503212039463
0.000632921545890776