/*--------------------------------*- C++ -*----------------------------------*\
  =========                 |
  \\      /  F ield         | OpenFOAM: The Open Source CFD Toolbox
   \\    /   O peration     | Website:  https://openfoam.org
    \\  /    A nd           | Version:  7
     \\/     M anipulation  |
\*---------------------------------------------------------------------------*/
FoamFile
{
    version     2.0;
    format      ascii;
    class       volSymmTensorField;
    location    "20000";
    object      tauij_B;
}
// * * * * * * * * * * * * * * * * * * * * * * * * * * * * * * * * * * * * * //

dimensions      [0 2 -2 0 0 0 0];

internalField   nonuniform List<symmTensor> 
15600
(
(1.79970125908163e-06 4.5126635545781e-09 9.04620372469313e-31 1.79888462896296e-06 1.37289286068643e-30 1.79903358807776e-06)
(4.35874895939267e-07 -1.21478495613187e-10 -1.23310922864368e-26 4.36044098374293e-07 -2.3833016921307e-26 4.35993232428701e-07)
(4.24806873846459e-08 -2.4514580662623e-11 -1.31755889688948e-32 4.21655941552059e-08 1.21279755367777e-33 4.23203583136479e-08)
(8.74137129269172e-08 -5.14245922846713e-11 5.08889755768227e-31 8.71504009743535e-08 3.32876537429041e-31 8.72794277863556e-08)
(1.84727355739044e-08 -4.81113036436652e-12 -1.13384571637511e-31 1.84539588931556e-08 -6.74301624407085e-32 1.84633718504107e-08)
(1.62397270600698e-09 -4.60139254686057e-13 1.41918292757371e-30 1.62226864702013e-09 -1.34383209642863e-31 1.62311302378471e-09)
(3.96904655023544e-09 -1.06776184705987e-12 6.03405565472048e-29 3.96484960488884e-09 3.66431607364543e-29 3.96694463627327e-09)
(6.23328740962746e-09 -1.90506468353569e-12 2.02684321990371e-27 6.22527795483964e-09 -4.02673823389965e-28 6.22926740335043e-09)
(9.55154431561255e-09 -3.23244867457698e-12 -1.67020636600299e-26 9.53726515638629e-09 -2.72682024378027e-26 9.54438721837722e-09)
(1.46892547247031e-08 -5.29339745233459e-12 -3.76200901727815e-26 1.46646928451121e-08 -4.19856367723977e-26 1.46769191019146e-08)
(2.21162968325841e-08 -6.67015341723269e-12 -1.50649427790293e-26 2.20811500690839e-08 1.17144708581289e-27 2.20986561204399e-08)
(3.16759278218414e-08 -4.84926817013325e-12 -6.24192300806216e-27 3.16390015372559e-08 -4.78606155297588e-27 3.16574559184462e-08)
(4.05454497748659e-08 7.41733168990511e-13 3.77463183651912e-28 4.05367872600257e-08 -5.62585439310748e-29 4.05413605418736e-08)
(4.17064726208621e-08 -2.08914267668382e-12 -6.05374490481171e-28 4.1751477406108e-08 1.13837391473913e-28 4.17295430282572e-08)
(2.8661292513238e-08 -1.79833868611387e-11 1.20071937564836e-27 2.87142653287035e-08 2.53500552959206e-27 2.86881484110244e-08)
(1.44688631600249e-08 -1.61698512750225e-11 8.04323811758311e-29 1.4477280287747e-08 -1.80106202759803e-27 1.44732026034206e-08)
(1.79018372979421e-08 -1.20531487828156e-11 1.75819422201549e-28 1.79007156289746e-08 -3.18975586061302e-29 1.79012776610817e-08)
(3.39051419800824e-08 -9.94883278630622e-12 1.38341872638816e-30 3.39024535164611e-08 7.29188210458556e-30 3.39038145234182e-08)
(5.75444858493503e-08 2.25985976585261e-11 -7.54211610123638e-32 5.75366326656346e-08 -1.16736079718846e-29 5.75406153997241e-08)
(9.36023998163565e-08 1.28689972766255e-10 -5.26459646824014e-30 9.35852965379079e-08 1.99820322329816e-29 9.3593974199224e-08)
(1.43716669935077e-07 3.63189133858519e-10 8.46049171088276e-30 1.43686093828853e-07 8.79304274549528e-29 1.43701792246107e-07)
(2.07842473754702e-07 7.79064272661049e-10 -7.44539817333564e-31 2.07795856383233e-07 8.98083395211116e-29 2.0782003678569e-07)
(2.84326210656652e-07 1.40365993435466e-09 -1.7613933174592e-29 2.84263322909275e-07 -1.209415417334e-28 2.84296394461957e-07)
(3.70835617319724e-07 2.24057900693113e-09 2.22436932024297e-29 3.70757829395343e-07 -5.89583045763332e-29 3.70799369621813e-07)
(4.65099738068272e-07 3.27489033023454e-09 -5.76473176731209e-29 4.65009089465791e-07 7.74352341072593e-29 4.6505837105983e-07)
(5.65309759771902e-07 4.48496770491615e-09 5.29898646146689e-25 5.65208265760833e-07 -7.48560883298071e-26 5.65264531711714e-07)
(6.70124871434976e-07 5.84756200748302e-09 3.88250690398006e-24 6.70014275593334e-07 -2.90694941559346e-24 6.7007688283628e-07)
(7.78598857763402e-07 7.34132447879808e-09 3.33788850136857e-24 7.78480611649508e-07 -2.7641497373814e-24 7.78549017208453e-07)
(8.90043655492223e-07 8.94686739939053e-09 -9.03720508007934e-25 8.89919008696336e-07 1.18514141017269e-25 8.89992734076279e-07)
(1.00393875740547e-06 1.06466228493598e-08 1.70667028283007e-28 1.00380886227374e-06 5.50036395880545e-28 1.00388743641807e-06)
(1.1198519469277e-06 1.24239482047592e-08 1.53335066687384e-24 1.11971795637057e-06 -1.83013445177983e-25 1.11980086958402e-06)
(1.23739193993363e-06 1.42625337780268e-08 9.98632435398962e-24 1.237255068262e-06 -6.98949974168348e-24 1.23734174171899e-06)
(1.35618042878617e-06 1.61459431504873e-08 7.43282257739415e-24 1.35604199106735e-06 -6.56391042753935e-24 1.35613175793792e-06)
(1.47583720840703e-06 1.80573619810103e-08 -2.2236333188096e-24 1.47569863900689e-06 2.46327320106117e-25 1.47579073500486e-06)
(1.59597412978477e-06 1.99795285322592e-08 -6.60307340758168e-29 1.59583697915065e-06 1.32863814810587e-28 1.59593054476725e-06)
(1.71619941522287e-06 2.18948918656256e-08 1.95216924006865e-28 1.71606533150153e-06 7.37518319306005e-28 1.71615942267246e-06)
(1.83613124738736e-06 2.37859271812149e-08 -6.64188852447264e-29 1.83600195689213e-06 6.56064957810482e-30 1.83609555723334e-06)
(1.95542581576683e-06 2.56356323661223e-08 -4.31703624466853e-24 1.95530310588054e-06 3.89535057337339e-25 1.95539513778317e-06)
(2.07382597110065e-06 2.74283353060188e-08 -2.00116916608962e-23 2.07371165575407e-06 1.71076358486933e-23 2.07380100121456e-06)
(2.19113318481768e-06 2.91496096953721e-08 -1.12782101693111e-23 2.19102904836885e-06 1.61985166683625e-23 2.19111458087982e-06)
(2.30734285772918e-06 3.07884284006818e-08 5.52656802092838e-24 2.30725061195343e-06 -4.52976244806836e-25 2.30733121844074e-06)
(2.42258179002696e-06 3.23365153158342e-08 -1.52707584974886e-43 2.42250305790997e-06 1.28725203911615e-28 2.42257765250248e-06)
(2.5356826450644e-06 3.37692509227549e-08 0 2.53561898438287e-06 -2.26166158269167e-27 2.53568648981352e-06)
(2.64505379459433e-06 3.50575092813921e-08 6.45555616590944e-40 2.64500665269422e-06 -4.25106420727383e-41 2.64506602403923e-06)
(2.7498645442957e-06 3.61840198250825e-08 1.51258145340159e-39 2.74983518716624e-06 -2.24859779560752e-39 2.74988546317221e-06)
(2.8496868560559e-06 3.71386126963018e-08 1.05340166499615e-23 2.84967634362122e-06 -6.08557477635997e-25 2.84971666731373e-06)
(2.94412678289518e-06 3.79134114320322e-08 3.31881908175092e-23 2.94413594642048e-06 -3.8808155286726e-23 2.94416558328946e-06)
(3.03283419574197e-06 3.8503007792592e-08 1.08806812573119e-23 3.03286362551066e-06 -3.7904899961282e-23 3.03288197370295e-06)
(3.11550319868453e-06 3.89044699264324e-08 -1.2214998760452e-23 3.11555323047529e-06 6.08378435502266e-25 3.11555983385818e-06)
(3.19188151493676e-06 3.91174251006146e-08 -5.34343444266719e-28 3.19195223022141e-06 -3.66241977227176e-27 3.19194678158042e-06)
(3.26176956421027e-06 3.91439326107016e-08 1.63893196131936e-28 3.26186079369936e-06 -1.80786734454747e-27 3.26184313717829e-06)
(3.32502297678704e-06 3.89883844683927e-08 1.55392042397683e-23 3.32513431075138e-06 -5.09801579279479e-25 3.32510443947833e-06)
(3.38155238143511e-06 3.86573109187763e-08 3.77707674163009e-23 3.38168318738675e-06 -5.70394589602818e-23 3.38164123649458e-06)
(3.43132000392613e-06 3.81591303077124e-08 5.00537198048264e-24 3.43146944632827e-06 -5.7520621725355e-23 3.43141568450749e-06)
(3.47433763518791e-06 3.75039007030169e-08 -1.69663506636191e-23 3.47450469937651e-06 4.21504370334687e-25 3.47443951724125e-06)
(3.51066255655492e-06 3.67030329662914e-08 -9.09648338493075e-29 3.51084607468479e-06 -1.47133496856174e-27 3.51076997146286e-06)
(3.5403930069683e-06 3.57690058206662e-08 0 3.54059168412535e-06 0 3.54050525369915e-06)
(3.5636644445607e-06 3.47150958028499e-08 0 3.56387688583065e-06 0 3.5637808017341e-06)
(3.58064506114251e-06 3.35551061344499e-08 0 3.58086979869059e-06 0 3.58076479846719e-06)
(3.59153111812416e-06 3.23031156341912e-08 -2.91820565985732e-29 3.59176663587228e-06 0 3.59165350654131e-06)
(3.59654432234372e-06 3.09732666297964e-08 1.69009726220872e-29 3.59678908084624e-06 -3.5034025623548e-28 3.59666864408337e-06)
(3.5959288676264e-06 2.95795527546773e-08 4.15724452160232e-29 3.59618132855775e-06 -6.04923128650086e-28 3.59605442503508e-06)
(3.58994614895735e-06 2.81356262599102e-08 -2.92040548450556e-29 3.59020479499008e-06 9.58660259898831e-28 3.59007227308511e-06)
(3.57887653073443e-06 2.66546516469301e-08 0 3.57913989163455e-06 0 3.57900258908694e-06)
(3.56300326106456e-06 2.51490743140591e-08 1.31427543289963e-28 3.56326992654281e-06 2.704583611541e-30 3.56312866498597e-06)
(3.54261435623503e-06 2.36305150999053e-08 -9.26707721177374e-29 3.54288300276707e-06 1.56398085843808e-27 3.54273856623883e-06)
(3.51796071218865e-06 2.21094774486805e-08 -1.67665112940067e-28 3.51823009175046e-06 -1.56141502674495e-27 3.51808323614484e-06)
(3.48926584259295e-06 2.05954831042241e-08 -1.4569390010279e-28 3.48953479163034e-06 -4.38387299564511e-27 3.48938623167639e-06)
(3.45668640775528e-06 1.90969615054317e-08 2.09940108807474e-28 3.4569538035967e-06 1.10797165711134e-27 3.45680423723531e-06)
(3.42037230801094e-06 1.76219240948726e-08 5.1049267476552e-29 3.42063705516105e-06 -1.27448133177716e-27 3.42048717040355e-06)
(3.3805352040225e-06 1.61781379886382e-08 -3.24509671049007e-28 3.38079627350679e-06 -3.4087691437746e-27 3.38064672271088e-06)
(3.33743710146014e-06 1.47728725526353e-08 -2.70291641667918e-23 3.33769355289746e-06 -1.32586642545894e-24 3.33754494578477e-06)
(3.29137387599914e-06 1.34125664974249e-08 -6.14136769469231e-23 3.29162490090216e-06 1.15910034363327e-22 3.29147777298459e-06)
(3.24261294723631e-06 1.21025282552203e-08 -1.39832698870783e-23 3.24285785021842e-06 2.48259798782442e-22 3.2427126801135e-06)
(3.19139029694757e-06 1.08470282312922e-08 4.64107741209683e-23 3.19162849914575e-06 1.32966559222763e-22 3.1914856970346e-06)
(3.13778369761368e-06 9.6491000197386e-09 2.60437611518899e-23 3.13801467027421e-06 1.59843952738859e-24 3.13787461924736e-06)
(3.08193941266271e-06 8.51168659000742e-09 6.71636231240432e-29 3.08216266894844e-06 1.59518099029098e-26 3.08202572574847e-06)
(3.02392786382883e-06 7.43709096078213e-09 -1.10802375874965e-27 3.0241429657247e-06 1.08789209024877e-29 3.02400945653976e-06)
(2.9638665277546e-06 6.42735010802229e-09 -2.6823084129797e-23 2.96407308686945e-06 -2.10404774791449e-24 2.9639433089505e-06)
(2.90171429769093e-06 5.4837617488307e-09 -2.92791167017454e-23 2.90191198316201e-06 1.24088085822669e-22 2.90178620001715e-06)
(2.83784672774197e-06 4.60791671843001e-09 2.31570697631924e-23 2.83803527593422e-06 1.39489967765237e-22 2.83791370952958e-06)
(2.77181013491959e-06 3.79977102395144e-09 2.5069868255329e-23 2.7719892839514e-06 2.17599378629139e-24 2.77187215161639e-06)
(2.70400625737725e-06 3.06042792890601e-09 -5.36605105631253e-28 2.70417578692221e-06 5.39835863785875e-29 2.7040632789141e-06)
(2.63401137182752e-06 2.38978287452202e-09 5.01562498570861e-28 2.63417105001355e-06 -1.51428344896715e-26 2.63406335921945e-06)
(2.56176023919381e-06 1.78817683643319e-09 5.29309721583361e-28 2.56190985337221e-06 6.15186212709273e-27 2.56180715800601e-06)
(2.48727388572362e-06 1.25581853696534e-09 1.65898382106526e-29 2.48741322253196e-06 3.80818272190182e-30 2.48731570181685e-06)
(2.41022773558986e-06 7.9269152479559e-10 -4.83511338709147e-28 2.41035655127469e-06 5.87852336083798e-27 2.41026440913689e-06)
(2.33031389991539e-06 3.98751432262212e-10 -9.77841480263319e-28 2.3304319267509e-06 2.58098441952019e-27 2.33034537412299e-06)
(2.24719758296549e-06 7.42175197556033e-11 9.25836305879656e-28 2.24730450869021e-06 -3.00854504499473e-26 2.24722379048204e-06)
(2.16044704876141e-06 -1.80960221274801e-10 4.59430800456161e-28 2.16054252869499e-06 2.12619939223824e-26 2.16046789514661e-06)
(2.0694707989582e-06 -3.66375720856969e-10 -4.33935439070427e-28 2.06955443003089e-06 -5.35784804762571e-29 2.06948619135984e-06)
(1.97369434426535e-06 -4.82573763921454e-10 0 1.97376572711757e-06 0 1.97370416293761e-06)
(1.87236590762169e-06 -5.29400253370186e-10 -1.68496812748518e-41 1.87242463000763e-06 -1.42034769150972e-26 1.87237009565829e-06)
(1.76722602112524e-06 -5.10426406942306e-10 -3.18403267354881e-41 1.76727190215362e-06 1.3419937694361e-26 1.76722452407122e-06)
(1.66189040087619e-06 -4.28461213904762e-10 0 1.66192322625224e-06 0 1.66188325796825e-06)
(1.55067718122413e-06 -2.88448895144373e-10 0 1.55069685652811e-06 -1.21237692467033e-26 1.55066435672895e-06)
(1.43210933496826e-06 -9.3060340566737e-11 -3.21002403961226e-23 1.43211604530795e-06 -4.86571489329862e-24 1.43209131042547e-06)
(1.30594147873903e-06 1.38367231486411e-10 -2.8889663508271e-23 1.30593635959721e-06 1.45354558636286e-22 1.30591870648756e-06)
(1.171520919092e-06 3.97684575101121e-10 2.58215096639112e-23 1.17150552047974e-06 1.60770781090299e-22 1.17149492376831e-06)
(1.03113982987528e-06 6.43461659079216e-10 2.26835564764437e-23 1.03111759152373e-06 3.64099239626522e-24 1.0311118462709e-06)
(8.84922490494034e-07 8.65711229058646e-10 0 8.8489663617229e-07 0 8.84895477195055e-07)
(7.40643841873106e-07 1.00385979996182e-09 0 7.40620164039225e-07 0 7.4061928246634e-07)
(5.98543047781024e-07 1.06849484857688e-09 0 5.98527715373778e-07 0 5.98526664912798e-07)
(4.63278168048404e-07 9.73667382916094e-10 -2.85875052455945e-26 4.63265390816014e-07 -5.17693785485356e-27 4.63262466715448e-07)
(4.52945783740208e-07 1.20421410567427e-09 -3.5500514140671e-26 4.5359533916314e-07 6.41721055368713e-25 4.53271725259747e-07)
(6.60911301959744e-07 1.09033325220645e-09 8.30293242606638e-25 6.64007949594894e-07 -1.47045473759246e-24 6.62472146160889e-07)
(8.69866728686417e-07 3.10887535303165e-10 -1.95564684119778e-24 8.73885958150035e-07 1.9787483427624e-24 8.71912179781057e-07)
(1.09423534148639e-06 -2.44326777344821e-10 1.49493956537786e-24 1.09763313019752e-06 -1.15008642688875e-24 1.09597972096803e-06)
(1.2681237557719e-06 -2.24238936396896e-10 6.31506848006987e-25 1.26928733662042e-06 -4.62991776127908e-25 1.26874359645601e-06)
(1.35369507298689e-06 2.50489537861951e-10 1.17593339124512e-24 1.3520542374586e-06 -8.4547410478237e-25 1.35289075901064e-06)
(1.3616843140797e-06 8.62471484687069e-10 -3.65493002324104e-25 1.35730578545744e-06 3.7588883470181e-25 1.3594827198517e-06)
(1.27221419453268e-06 1.28789850474937e-09 3.44790693404065e-25 1.26611255720412e-06 -2.80411453371605e-25 1.26913538359391e-06)
(1.16784336603228e-06 1.54620901137109e-09 -7.53256505604814e-26 1.16096776905259e-06 -8.85695102669056e-27 1.16436675584317e-06)
(1.07398223351166e-06 1.74691423543282e-09 -1.00133720034058e-25 1.06677697761072e-06 9.0843514018742e-26 1.0703322788676e-06)
(1.0880917269365e-06 2.13301252245127e-09 1.4838429157593e-26 1.07992220902115e-06 1.09258891884628e-27 1.08394304175145e-06)
(1.33913832471436e-06 3.22420604637817e-09 2.58519772888695e-25 1.32647274667045e-06 -1.53702378721509e-25 1.33267688431599e-06)
(2.52534207381181e-06 7.03418002274846e-09 3.53732133774762e-25 2.49014242691264e-06 -2.20905968047549e-25 2.50734924562205e-06)
(8.09911025858292e-06 1.49954351327706e-08 -8.14701133750685e-25 7.86532380219403e-06 7.21239345523454e-25 7.97888540132981e-06)
(6.25828407739484e-06 -9.9625820224194e-08 1.54147073289125e-24 5.97687999631675e-06 -8.25263969664528e-25 6.11510890946944e-06)
(2.52241082736681e-06 -2.4585799858046e-08 -2.17203642027238e-26 2.51363981261722e-06 9.31893058361161e-26 2.51805894868057e-06)
(5.73583913566864e-05 -1.0050639908701e-06 -1.61694480090709e-24 5.72223660983442e-05 -7.93748447760052e-27 5.72204694656749e-05)
(1.44752354371026e-05 -5.56242904476176e-08 1.80946223895054e-24 1.45345205883178e-05 4.44816851978464e-24 1.45125809274033e-05)
(1.53742765581108e-06 -5.27582565344369e-09 1.67135556331835e-26 1.48334348981989e-06 9.27571247658611e-29 1.51078261486531e-06)
(2.87893208652623e-06 -8.21325699161016e-09 6.85389422402558e-29 2.83262059549634e-06 -9.69822015173937e-29 2.85599098919153e-06)
(6.68968642566464e-07 -9.17316480821371e-10 -1.29507281943142e-29 6.6485512185859e-07 1.53147214790824e-29 6.66937286302252e-07)
(6.68165128856036e-08 -1.05398410321351e-10 -8.88561473860762e-31 6.64231209228884e-08 8.81775745793875e-32 6.66205020113767e-08)
(1.27215093425365e-07 -1.94747762487253e-10 -1.23391268185245e-26 1.26445646731395e-07 -6.55923540791167e-27 1.26832100594869e-07)
(2.00317335606916e-07 -3.49676923871377e-10 -6.42976716530542e-25 1.98864693470404e-07 1.16901193183687e-25 1.99592497328687e-07)
(3.06711345976258e-07 -5.88935313069468e-10 -1.2021289823338e-23 3.04135275153582e-07 -4.36668966611842e-24 3.05428392991404e-07)
(4.71798307486674e-07 -9.39480107856699e-10 -1.84009394446456e-23 4.67402904540248e-07 -9.73254071337035e-24 4.69609794509147e-07)
(7.11178040855578e-07 -1.13250740225448e-09 3.99006641640768e-24 7.04752874484852e-07 -4.10491373981606e-25 7.07977910596854e-07)
(1.02176742304954e-06 -6.84163894535147e-10 1.82266092548385e-24 1.01440244720068e-06 1.46965176673919e-24 1.01808065781793e-06)
(1.31570151147985e-06 6.19386048332105e-10 1.0973806439852e-25 1.31178722058848e-06 -1.74749384286541e-26 1.31368126774419e-06)
(1.36648282273027e-06 7.18382623153828e-10 1.77356161476398e-25 1.37089255682078e-06 -3.33948169092933e-26 1.36859135041226e-06)
(9.47550069721976e-07 -2.03125559892674e-09 4.94365451503885e-25 9.5484234654762e-07 1.11723782334055e-24 9.51122479834773e-07)
(4.74149342626781e-07 -2.25789756434405e-09 -3.08582183691559e-26 4.75128759055574e-07 3.34900366582114e-25 4.74635334960184e-07)
(5.86324563193702e-07 -1.1461183558033e-09 5.69947515535303e-28 5.85592382544534e-07 -1.02572161661256e-28 5.85941656769168e-07)
(1.10822217276732e-06 1.39516532085298e-09 -4.61821225409155e-28 1.10634793265285e-06 -1.22713083027978e-27 1.10728123823785e-06)
(1.87908833069827e-06 1.12143750083263e-08 -4.02933862281216e-28 1.87421786418329e-06 2.01918972248937e-27 1.87665551584243e-06)
(3.05371963958512e-06 3.66375126535445e-08 2.59234980591681e-27 3.04380013227144e-06 -3.13586017966329e-27 3.04875115073547e-06)
(4.6836222485064e-06 8.67806738160139e-08 1.45498953512143e-27 4.66695055060725e-06 8.56391682443366e-28 4.67526466099816e-06)
(6.76596781426326e-06 1.68945281260022e-07 -5.31534754968864e-28 6.74190721502525e-06 5.9372117350964e-27 6.75384544487939e-06)
(9.24611106180858e-06 2.85685007150351e-07 -6.83259873381991e-28 9.21526362437554e-06 -6.48514440280231e-27 9.23047483406445e-06)
(1.20481548240375e-05 4.35712927091721e-07 -9.52546771598466e-27 1.20118107250316e-05 6.36141832723183e-27 1.20295798034644e-05)
(1.50986374685879e-05 6.15355992083484e-07 1.74146719108597e-26 1.50582901043656e-05 -7.48330823962178e-27 1.50778154982575e-05)
(1.83392989958819e-05 8.20347389551898e-07 -1.43797863247149e-22 1.82963150738419e-05 2.01692855149994e-23 1.83168619784083e-05)
(2.17270305606009e-05 1.04653530520889e-06 -7.78579303405233e-22 2.16825666519009e-05 -1.42748222895942e-21 2.17035189701043e-05)
(2.52314490275301e-05 1.29025023668221e-06 -5.32944599271986e-22 2.51864591045791e-05 -1.84865760523545e-21 2.52073097043271e-05)
(2.88304520373809e-05 1.54823744092627e-06 2.32077449975878e-22 2.8785744100419e-05 -3.0373472126492e-23 2.88060687516356e-05)
(3.25073094312238e-05 1.81757402935654e-06 8.15585923720252e-38 3.24635987705377e-05 -1.02222809462077e-25 3.24830272133163e-05)
(3.62481115243998e-05 2.09551991423603e-06 -4.03321047328576e-22 3.6206066609972e-05 4.79848115782775e-23 3.6224259812543e-05)
(4.00402582910631e-05 2.37942130245021e-06 -1.99186333758835e-21 4.00005277392048e-05 -3.85310390729951e-21 4.00171638939968e-05)
(4.38715669301773e-05 2.66664590475364e-06 -1.18369081911677e-21 4.38347955339568e-05 -4.75867185695974e-21 4.3849561963023e-05)
(4.7729799906037e-05 2.95455210903842e-06 5.59650684857302e-22 4.76966344371942e-05 -6.22019909090541e-23 4.7709224454699e-05)
(5.16024753841021e-05 3.24048499217978e-06 7.5609415536703e-26 5.15735617711966e-05 1.31154485881402e-25 5.15836759576755e-05)
(5.54770094721207e-05 3.52180203702594e-06 -1.47053888506958e-26 5.54529853943772e-05 -2.99222136252659e-25 5.5460335048076e-05)
(5.93411539922368e-05 3.79592035424817e-06 -2.09026835539339e-26 5.93226420570496e-05 1.76299534049785e-25 5.93269522765714e-05)
(6.31839001307346e-05 4.06039447889985e-06 1.11013940631318e-21 6.3171501787866e-05 -1.00321674757898e-22 6.31725138476147e-05)
(6.69970492723716e-05 4.31304018627922e-06 4.04312148541788e-21 6.69913351610671e-05 1.04449948343887e-20 6.69888095763639e-05)
(7.07742948888403e-05 4.55189680057544e-06 1.67022169210175e-21 7.07757876647494e-05 1.21891470712056e-20 7.07695106614064e-05)
(7.45156026562532e-05 4.77554166333642e-06 -1.37842865256798e-21 7.45247569534499e-05 1.13785985295932e-22 7.45145506827982e-05)
(7.8225160122851e-05 4.98298635910645e-06 -6.92635629682913e-26 7.82423542485943e-05 -3.08453162811304e-25 7.82280849679804e-05)
(8.18520229874427e-05 5.16996738386533e-06 -1.07306805733995e-25 8.18775562195149e-05 -1.49876358908679e-26 8.18591368904924e-05)
(8.53432633346617e-05 5.33234969158097e-06 3.88396080888444e-26 8.53773410955441e-05 -2.71748889640811e-27 8.53547329309839e-05)
(8.86864182024704e-05 5.46882191858009e-06 -2.5243939552437e-26 8.87291491198147e-05 -4.43497072483951e-25 8.87023601556362e-05)
(9.18681669934645e-05 5.57828188093016e-06 -2.68809235520736e-21 9.19195625418946e-05 1.5533355503219e-22 9.18886479606152e-05)
(9.48763030147422e-05 5.65996700928344e-06 -6.90700041321359e-21 9.49362751204165e-05 -2.49390248395623e-20 9.49013374516275e-05)
(9.7700022011621e-05 5.71347082847373e-06 -1.15860532712264e-21 9.77683848146632e-05 -2.75519590708425e-20 9.77295718100471e-05)
(0.000100329942580859 5.73873593652189e-06 3.06312224709081e-21 0.000100406414744033 -1.52135869463941e-22 0.000100363917634786)
(0.000102758379034262 5.73605670343958e-06 -9.50327538042009e-26 0.000102842590174969 5.9639685236855e-25 0.00010279663945295)
(0.000104979311292388 5.7060560733022e-06 3.48337529345672e-26 0.000105070809593954 6.77760409081086e-25 0.000105021670745336)
(0.000106988454045439 5.64966518187031e-06 -3.98572043941471e-21 0.000107086715694947 1.30539130305745e-22 0.000107034683995307)
(0.000108783240167312 5.56809261877148e-06 -8.13088277533323e-21 0.000108887680569375 -3.63549030698313e-20 0.000108833075170948)
(0.000110362711795584 5.46278698060073e-06 2.66250003237122e-22 0.000110472696796684 -3.87887753775121e-20 0.000110415855044483)
(0.000111727450491674 5.33540046866868e-06 4.32103128238136e-21 0.000111842308188861 -1.06892529884997e-22 0.000111783579728191)
(0.000112879446610022 5.18774878441277e-06 -5.28968972106883e-26 0.000112998478976388 -9.44177754088838e-27 0.000112938220114406)
(0.0001138219568359 5.02177182679022e-06 2.44947305113422e-26 0.000113944450638796 1.19643795056257e-25 0.000113883019188783)
(0.000114559385560452 4.83949689759197e-06 0 0.000114684622874357 -2.46651973798835e-25 0.000114622373298538)
(0.000115097143314677 4.64300267193791e-06 0 0.00011522441125227 1.26491173555152e-25 0.00011516169024332)
(0.000115441504035393 4.43438604765908e-06 0 0.000115570103202777 0 0.00011550724601208)
(0.000115599522508737 4.21573386250633e-06 -1.57760683050785e-26 0.000115728775098454 6.44365213557485e-26 0.000115666102097698)
(0.000115578940095459 3.98909587405579e-06 4.80938298181343e-27 0.000115708197283544 -7.09070342099137e-26 0.000115646010727001)
(0.000115388028415827 3.75645894146995e-06 2.67820499712028e-26 0.000115516676451827 6.607267208317e-27 0.000115455258351808)
(0.000115035628803343 3.51972913075941e-06 -1.57849987418537e-26 0.000115163096105021 -3.06675567187944e-25 0.000115102704769706)
(0.000114530672488051 3.28070154183289e-06 0 0.000114656433260994 6.2177053885795e-25 0.00011459730290107)
(0.000113882199558192 3.04104964510763e-06 0 0.000114005779119861 -6.03721251031662e-25 0.000113948116560005)
(0.000113098103451391 2.80229177636971e-06 -7.29393946057825e-26 0.000113219072234141 2.85033694170244e-25 0.000113163061733332)
(0.000112185380798403 2.56581074568107e-06 4.25212367774079e-26 0.000112303351110546 -2.71915948537772e-26 0.000112249154868098)
(0.000111148969879347 2.33284916182403e-06 2.63822428121589e-26 0.000111263577446102 -5.32846848760027e-26 0.000111211345831502)
(0.00010999361493885 2.10458126256625e-06 -9.82954293776499e-26 0.000110104514473033 5.30819764658637e-26 0.000110054388710526)
(0.000108725970538774 1.88212844282309e-06 2.28274425176963e-25 0.000108832850219025 6.21023739675282e-25 0.000108784954655381)
(0.000107354296620567 1.66652449495994e-06 7.35317536380767e-21 0.000107456887867269 3.62517571898258e-22 0.000107411327002545)
(0.000105887860781421 1.458676863297e-06 1.62380453959252e-20 0.000105985950599242 6.27296368208195e-20 0.000105942801444087)
(0.000104335082953014 1.25933779735097e-06 2.8380459042131e-21 0.000104428506763115 1.23762057911363e-19 0.000104387824709054)
(0.000102703365690795 1.06911984183455e-06 -1.33247520832362e-20 0.000102792002079417 6.08065851366524e-20 0.000102753821408584)
(0.000100995137984919 8.8849336913487e-07 -7.28223445710272e-21 0.000101078883587574 -4.51113830311743e-22 0.000101043231306298)
(9.92150507005635e-05 7.17897451028621e-07 1.78967863868445e-25 9.92938160058842e-05 3.05380724765203e-25 9.92607134470755e-05)
(9.73652913249603e-05 5.57691231451208e-07 -1.50459500941091e-25 9.74390032181558e-05 -2.7193016796452e-26 9.7408464535161e-05)
(9.54495878140783e-05 4.08182801105033e-07 7.45934861568231e-21 9.55181907729359e-05 5.8301859977202e-22 9.54902231444056e-05)
(9.34664693935725e-05 2.69600183366334e-07 8.08904441476769e-21 9.3529930372833e-05 6.17486522790883e-20 9.3504530126851e-05)
(9.14280158395563e-05 1.4213818006168e-07 -6.66979641584532e-21 9.14863229591535e-05 5.92584704680855e-20 9.14634773218259e-05)
(8.93195730731572e-05 2.59146430734961e-08 -7.20014292361117e-21 8.9372714276781e-05 -6.23735763365222e-22 8.93524084855388e-05)
(8.71540651050714e-05 -7.89506523492893e-08 -3.02489286902399e-25 8.72020374739354e-05 1.43981924320766e-24 8.71842552340906e-05)
(8.49178983403442e-05 -1.72355394693182e-07 -8.51554542010413e-27 8.49606827280096e-05 1.09742403911554e-24 8.49454190452268e-05)
(8.26088997257473e-05 -2.54201810691251e-07 1.43772165496198e-25 8.26464785791744e-05 -1.11286085401097e-24 8.26337290418222e-05)
(8.02277668635002e-05 -3.24427657232716e-07 0 8.02601231645141e-05 0 8.0249882678942e-05)
(7.77641157428951e-05 -3.82935894058785e-07 1.44455346789578e-25 7.77912241703157e-05 -1.08022120652733e-24 7.77834922027834e-05)
(7.52080374078245e-05 -4.29628229538153e-07 -4.2243157760191e-25 7.52298576275694e-05 1.06901022797462e-24 7.5224639513464e-05)
(7.25488454363261e-05 -4.64367800565259e-07 1.40967341758112e-25 7.25653199218841e-05 8.95111236114716e-25 7.25626316920863e-05)
(6.97726473774559e-05 -4.87023297123976e-07 3.88128349799657e-25 6.97837008386062e-05 -8.51045473188089e-25 6.9783562194371e-05)
(6.68605166251235e-05 -4.97379693318515e-07 -2.50495427044958e-25 6.68660601435528e-05 -3.09289427384798e-26 6.68685029465544e-05)
(6.37937818096532e-05 -4.95332397016674e-07 -2.48261152676464e-25 6.37937221654916e-05 -3.2696612749654e-26 6.37987685367847e-05)
(6.05478686476707e-05 -4.80678368331675e-07 2.41476692183601e-25 6.05421391145585e-05 -6.3928896127703e-26 6.05498123993324e-05)
(5.71723498418502e-05 -4.54170150287307e-07 2.17050565690409e-25 5.71609442004032e-05 1.20885486320249e-25 5.71712131696118e-05)
(5.37766125011319e-05 -4.16986598327312e-07 -4.24877262993474e-25 5.37594989572988e-05 -2.21987614612775e-24 5.37723956942165e-05)
(5.01920726787134e-05 -3.68658730056762e-07 4.07968859902388e-25 5.01692944055189e-05 4.05722854299721e-24 5.01847376393628e-05)
(4.63698025170058e-05 -3.09396506582795e-07 9.11201552064714e-21 4.63416974856378e-05 1.38775567301878e-21 4.63595528751397e-05)
(4.2301623130367e-05 -2.41767078927807e-07 8.64053698944749e-21 4.22688534629927e-05 6.9682028208512e-20 4.22886663480974e-05)
(3.79652326802154e-05 -1.67340838480421e-07 -7.37250468550928e-21 3.79290382705002e-05 5.91747942917967e-20 3.79503005646092e-05)
(3.34344873532744e-05 -9.25314141642994e-08 -6.80239658854613e-21 3.33966379103262e-05 -1.09334908028184e-21 3.3418222546056e-05)
(2.87109482381953e-05 -2.01187342581598e-08 0 2.86738988219779e-05 -1.09003340933178e-26 2.86948603903885e-05)
(2.40463747622806e-05 3.92418570973725e-08 0 2.40129283082747e-05 1.0821944678714e-24 2.40314141362646e-05)
(1.94475429836468e-05 8.4385034362988e-08 0 1.94208874182949e-05 -8.89664290266179e-25 1.94361257844223e-05)
(1.50811982178099e-05 1.06781013702435e-07 1.63538306965661e-23 1.50597574422172e-05 3.65001014369426e-24 1.50708098861345e-05)
(1.479695180855e-05 1.56376735273964e-07 -2.75756713552635e-23 1.48674621954494e-05 -2.52357776255753e-23 1.48327975992095e-05)
(2.16907387139534e-05 1.32887683194863e-07 1.02463762715523e-22 2.20822137746625e-05 -1.60503635965619e-22 2.18829584483779e-05)
(2.85497980000322e-05 1.61074175913523e-08 3.49819944509847e-22 2.90092115068904e-05 -3.40998237577361e-22 2.8774578572274e-05)
(3.5848304749964e-05 -5.79650080970219e-08 -3.32594396409448e-22 3.61475485447177e-05 2.0451933576407e-22 3.5990140555163e-05)
(4.14852841168269e-05 -4.18599399821518e-08 -9.41360012475603e-23 4.14252595353137e-05 7.26211333024205e-23 4.14486627102553e-05)
(4.42798858466966e-05 4.15691524849378e-08 1.33925661315362e-22 4.38080867878738e-05 -6.40577496354691e-23 4.40412720656246e-05)
(4.45732969055523e-05 1.43884370100292e-07 2.17871790115278e-22 4.37157092867983e-05 -1.61845345166843e-22 4.41463819701335e-05)
(4.17594990565296e-05 2.17280021203094e-07 -5.59751948847894e-23 4.06654964343461e-05 5.06336502382212e-23 4.12182170112367e-05)