/*--------------------------------*- C++ -*----------------------------------*\
  =========                 |
  \\      /  F ield         | OpenFOAM: The Open Source CFD Toolbox
   \\    /   O peration     | Website:  https://openfoam.org
    \\  /    A nd           | Version:  7
     \\/     M anipulation  |
\*---------------------------------------------------------------------------*/
FoamFile
{
    version     2.0;
    format      ascii;
    class       volVectorField;
    location    "20000";
    object      U;
}
// * * * * * * * * * * * * * * * * * * * * * * * * * * * * * * * * * * * * * //

dimensions      [0 1 -1 0 0 0 0];

internalField   nonuniform List<vector> 
15600
(
(-0.025953158340391 0.000296884978748399 3.1684124875814e-23)
(0.00093551458795862 -0.000155748702963766 -1.50453439634539e-23)
(-0.0196032473296142 0.0209383936653865 -1.07636755775538e-23)
(-0.0074307463129297 0.0102181660204545 0)
(-0.00208133267964053 0.00345249506695537 0)
(-0.00205498589020769 0.00333027703146566 0)
(-0.00181931030121297 0.00292829362071765 -4.00979244186412e-19)
(-0.0020404118060519 0.00316927626894367 4.41331644271794e-22)
(-0.00219912855364056 0.00335079186901387 -1.17325826603255e-16)
(-0.00231747447001082 0.00345097027385237 -1.38547355028915e-16)
(-0.00203411401091006 0.00292730967322509 1.31462078499068e-18)
(-0.00131667086941886 0.00178469997787341 1.49074185174452e-18)
(-2.09206220598792e-05 0.000144957530792388 0)
(0.00157463344217719 -0.00117947710064731 0)
(0.00297228630797743 -0.00142837974747453 2.14959392001791e-18)
(0.00312000698334998 -0.000383464451249514 1.13637610780277e-18)
(0.00203724223115842 7.78693778364373e-06 0)
(0.00132150987080459 -5.35335113311728e-06 4.3831731084756e-21)
(-0.000209471738522511 -4.39854620942834e-06 -4.38181649927827e-21)
(-0.00253827335314293 1.22206242032798e-06 4.232557252567e-21)
(-0.00537517944723838 1.37365958862108e-05 -6.86855527581197e-23)
(-0.00847913293602841 2.93102586508915e-05 -4.13248122659714e-21)
(-0.0115703428797799 4.59020734323171e-05 4.09300406402196e-21)
(-0.0144971977511857 6.1776442388059e-05 -4.07893682597273e-21)
(-0.0171797561771781 7.63510271839246e-05 4.26528602330537e-21)
(-0.0196013385492506 8.9333821779155e-05 1.89796394119547e-22)
(-0.0217710197220814 0.000100729010758472 -1.07580823867641e-16)
(-0.023710842763025 0.0001105879576958 -1.1652538217996e-16)
(-0.0254444593403815 0.000119010401960448 5.31486269644485e-21)
(-0.0269939873365125 0.000126090124966233 -5.30537860989607e-21)
(-0.028377958589587 0.000131911116684713 0)
(-0.0296113475716705 0.000136545296786013 -1.57152516750389e-16)
(-0.0307059137137334 0.000140053786162022 -1.72915510332984e-16)
(-0.0316707585614813 0.000142487574344735 0)
(-0.0325129034448308 0.000143892148062047 4.15489438681397e-21)
(-0.0332378676711771 0.000144311923733689 -4.15147374071112e-21)
(-0.0338501068343241 0.000143791585798347 0)
(-0.0343532638167083 0.000142373754015486 0)
(-0.0347503675052896 0.000140101643382228 2.53371146538712e-16)
(-0.0350441801800648 0.000137026464873719 2.74885334483949e-16)
(-0.0352375770507619 0.000133198736283225 0)
(-0.035333642798085 0.000128665354913005 0)
(-0.0353355799371777 0.00012347866463836 0)
(-0.0352466369496018 0.000117706052652055 0)
(-0.035070274454546 0.000111417302771383 -2.80093570459657e-32)
(-0.0348101213706354 0.00010467457718378 0)
(-0.0344699934297955 9.75413315602959e-05 -4.24227004785505e-16)
(-0.0340538983318173 9.00799800920499e-05 -4.49953286778664e-16)
(-0.0335660357502306 8.23537429369237e-05 -9.43431628169459e-21)
(-0.0330107978709379 7.44238911914545e-05 4.82937543005468e-21)
(-0.0323927288227084 6.63501773626287e-05 5.27181357221474e-21)
(-0.0317165090458122 5.81898765315341e-05 -5.27580329015881e-21)
(-0.0309869096560286 4.99968869429068e-05 -5.36317162025411e-16)
(-0.0302087545636237 4.18216389416285e-05 -5.6041691936679e-16)
(-0.029386885753741 3.37104915019363e-05 -2.97356302778387e-21)
(-0.0285261233913585 2.57054658989443e-05 0)
(-0.0276312347764938 1.78442058242688e-05 0)
(-0.026706906603477 1.01598458035164e-05 0)
(-0.0257577154573849 2.68085888036483e-06 0)
(-0.0247881064170063 -4.5686190591321e-06 0)
(-0.0238023772688045 -1.15687415188361e-05 9.32454083802942e-22)
(-0.0228046500688809 -1.83043010109506e-05 -9.33567999035083e-22)
(-0.0217988646367461 -2.47632726021171e-05 0)
(-0.0207887408021419 -3.09390383981482e-05 0)
(-0.0197777748313702 -3.6826443440096e-05 0)
(-0.0187691861551764 -4.24271791667136e-05 -4.23312290087673e-21)
(-0.0177659346997935 -4.77415753673646e-05 4.23830660190635e-21)
(-0.0167707471482866 -5.27761970819274e-05 0)
(-0.0157861677858297 -5.75345699400619e-05 9.03010258110981e-21)
(-0.0148148087503627 -6.20198661277264e-05 -9.04091696981769e-21)
(-0.0138592380009751 -6.62411009725232e-05 9.38831480162828e-21)
(-0.0129219253594238 -7.02072506348402e-05 1.6283661296764e-22)
(-0.0120050824350052 -7.39357797249869e-05 9.29428384074955e-16)
(-0.011110635243689 -7.74397139291849e-05 1.88306702555866e-15)
(-0.0102402402530169 -8.07383656909164e-05 9.52499257784767e-16)
(-0.00939536771755884 -8.38434529664643e-05 -1.47670451760462e-31)
(-0.00857756420246192 -8.67678932727308e-05 -2.07571318339504e-20)
(-0.00778836585229918 -8.95266432220991e-05 -2.85713465043808e-22)
(-0.00702930305716904 -9.21337759741038e-05 2.10838746918041e-20)
(-0.00630187932773213 -9.46060607480809e-05 1.03858932309021e-15)
(-0.00560745389246728 -9.69588571379661e-05 1.03797011408564e-15)
(-0.00494752111746534 -9.92073901451714e-05 0)
(-0.00432361232612638 -0.000101365816759456 0)
(-0.0037374857484423 -0.000103454089997136 2.27742426081661e-20)
(-0.00319108729279424 -0.000105489413270082 -2.27905115808726e-20)
(-0.00268654901732862 -0.000107485431509374 0)
(-0.0022263955950783 -0.000109452703700285 -2.35559622938818e-20)
(-0.00181344853963596 -0.000111411222093409 2.35690786143635e-20)
(-0.00145137987652917 -0.000113369643697433 2.40536358237046e-20)
(-0.00114424914121575 -0.000115353268337698 -2.40640421593747e-20)
(-0.000897699746188114 -0.00011736407967914 0)
(-0.000717453622196046 -0.000119448728233644 0)
(-0.00061223879804951 -0.000121588108368193 0)
(-0.0005891039483517 -0.000123872114191611 0)
(-0.000660848363518979 -0.000126183112922551 0)
(-0.000835736579827751 -0.000128744270890671 0)
(-0.00113541638644131 -0.000131271845961265 0)
(-0.00155795663617194 -0.000134254014009715 2.57243001331767e-15)
(-0.00213602865880895 -0.000136755865061042 2.52470920457647e-15)
(-0.00283125686031831 -0.000140084282723143 0)
(-0.00369333435764412 -0.000141570216113507 0)
(-0.00458296459256119 -0.000144875061807386 0)
(-0.00559615938201537 -0.000145701175066792 0)
(-0.00615362548962001 -0.000144109788874397 0)
(-0.00754690830960755 -0.00107141084535678 7.11211481121641e-18)
(-0.00759138149732088 -0.00376672706818961 -1.35190879392082e-17)
(-0.00638176167765881 -0.0049875822805863 0)
(-0.00465750068900658 -0.00460532125060221 2.1299951904874e-17)
(-0.00201323407461809 -0.00206156962849796 -1.92362732909928e-17)
(0.00100703481095551 0.00178871641665134 1.76858113821962e-17)
(0.00432261307876331 0.00637059252160887 -8.19524304570635e-18)
(0.00733388555106597 0.0106612278103468 -1.50939268556884e-17)
(0.00992371221730565 0.014572055863912 -2.0099011917183e-20)
(0.0125477405630104 0.0187900895924775 6.06935329316456e-18)
(0.0158119364244565 0.0241689698454935 5.1927426418332e-21)
(0.0226296289621483 0.0335552870442085 0)
(0.0368742781454615 0.0490549954432055 0)
(0.0833749168757022 0.0842625494514645 -3.82640020952963e-18)
(0.162038119136953 0.0757200622032073 -3.00771219310188e-18)
(0.0385669770096606 0.00184695638247141 0)
(-0.0228183296295165 0.000513836242990216 -4.80317544626505e-23)
(0.00541850774125687 -0.00128211970910044 1.34761916132009e-18)
(-0.0494738922186866 0.0583195088852096 1.66456159370999e-23)
(-0.0209018750066005 0.0301811180900565 -2.10360638104556e-22)
(-0.00664440432116182 0.0107780531126008 2.05875536600533e-22)
(-0.00592104525232534 0.00993029637907642 0)
(-0.00537372385528889 0.00879116397449029 1.23914182808571e-21)
(-0.00594400987207104 0.00943342480983571 7.13359379993322e-19)
(-0.00639314061696047 0.00994823090020296 1.88180040112567e-16)
(-0.0067031255264979 0.0102105787730234 2.05353669295391e-16)
(-0.00604487737755458 0.00874797240330949 -4.01557069043442e-21)
(-0.00433860846685647 0.00555038717227913 2.29800581886746e-18)
(-0.00118780272041281 0.000944963185827264 -5.05987312822656e-21)
(0.00297147465286867 -0.00291499334474653 6.31211720971827e-23)
(0.00705025297845931 -0.00385280952835655 -3.2783627985021e-18)
(0.00787068607954891 -0.000972760581140817 1.38702469163265e-20)
(0.00450748595223165 0.000153586365200939 3.07311389527113e-23)
(0.00150820807380078 0.00020452610851575 -6.74456530144056e-21)
(-0.00373713527710591 0.000348056552030544 6.55286293640736e-21)
(-0.0110864202243202 0.00045897981143595 -6.44371580198892e-21)
(-0.0195885586275453 0.000528128099409081 -6.11724758442652e-21)
(-0.028489824075245 0.000547293415803576 5.21650345553245e-23)
(-0.0370725917261458 0.000529953468649473 -1.81053226459184e-23)
(-0.0449960490125546 0.000492122788655431 5.8052495851917e-21)
(-0.0521208314056257 0.000446892105905309 -6.01619481663054e-21)
(-0.0584554632355991 0.00040147903001795 1.21679454463307e-20)
(-0.0640601766133786 0.000359319271715035 1.52970594867918e-16)
(-0.0690148391680047 0.000321417023319366 1.57071713196362e-16)
(-0.0733949299983841 0.000287714631283844 0)
(-0.0772662321098375 0.000257673119853455 -1.36445568881863e-32)
(-0.0806821257787888 0.000230633712022614 0)
(-0.0836849847833415 0.000205981137756116 2.17076079600873e-16)
(-0.086307914773848 0.000183193046968114 2.28693023879718e-16)
(-0.0885766866834793 0.000161849454349637 5.18679445392762e-21)
(-0.0905115077482729 0.000141634882880255 -5.16769098573871e-21)
(-0.092128597649936 0.000122324173242912 0)
(-0.0934413272757699 0.000103754351123923 2.25086490690115e-32)
(-0.0944609310125427 8.58017437214633e-05 6.86565304763197e-21)
(-0.0951971138010181 6.83879788528746e-05 -3.42395982311596e-16)
(-0.0956588568593885 5.14906201218761e-05 -3.60160084677399e-16)
(-0.0958553435829351 3.51064289926956e-05 -8.33420339221242e-21)
(-0.0957962785417442 1.92454899786725e-05 -5.27238171918664e-22)
(-0.0954915111244305 3.93621984640865e-06 8.85019883682225e-21)
(-0.0949508768484959 -1.07974494515402e-05 0)
(-0.0941847496375853 -2.49300012452835e-05 3.7151843387628e-32)
(-0.0932037305500165 -3.84402495800815e-05 5.53318092067263e-21)
(-0.0920187741351121 -5.13005941686557e-05 5.68549162121855e-16)
(-0.0906412023722056 -6.34860778384518e-05 5.92497167589692e-16)
(-0.0890826976162753 -7.49678247612213e-05 -6.42138818449562e-21)
(-0.0873552910775979 -8.57226730283877e-05 6.43420171081145e-21)
(-0.0854712732817885 -9.57301916948656e-05 0)
(-0.0834431478018141 -0.000104974926534101 0)
(-0.0812835291572156 -0.000113448222053186 7.22093681694297e-16)
(-0.0790050578899743 -0.000121146516778295 7.48786011122667e-16)
(-0.0766203219060372 -0.000128072187379744 -4.14837478285276e-21)
(-0.0741417709917885 -0.000134233047900444 4.16372779796464e-21)
(-0.0715816503010089 -0.000139641240603615 0)
(-0.0689519401424104 -0.000144313150424289 0)
(-0.0662642952358425 -0.00014826925185169 0)
(-0.0635300009018396 -0.000151532520822387 0)
(-0.0607599368023771 -0.000154128846217515 0)
(-0.0579645212795794 -0.00015608813559127 2.63748659435265e-21)
(-0.0551536893362174 -0.000157440534149931 -2.65027771818138e-21)
(-0.0523368192828344 -0.000158224519586417 0)
(-0.0495227120398798 -0.000158475000836833 0)
(-0.0467194967179227 -0.000158241102335089 0)
(-0.0439346796445347 -0.000157555269597929 0)
(-0.0411752292458363 -0.000156457502380324 1.24509300698478e-20)
(-0.0384477519145618 -0.000154955486436931 -1.25150991983618e-20)
(-0.0357589858374607 -0.000153042732894251 1.30675742337346e-20)
(-0.0331155234564155 -0.000150735147297734 2.37008542001833e-22)
(-0.0305236599043554 -0.000148052003031505 -2.71130988659232e-20)
(-0.0279890507544123 -0.000145046162790662 -1.32194866332985e-15)
(-0.0255166689624828 -0.000141750901701503 -2.71283745550626e-15)
(-0.0231108738493376 -0.000138213044832062 -1.39175463794051e-15)
(-0.0207756717109831 -0.000134435191823168 2.96882393511e-20)
(-0.0185152435125849 -0.00013041154858835 -2.98302596049681e-20)
(-0.0163337807358921 -0.000126145388237527 0)
(-0.0142354603808754 -0.000121634477973536 0)
(-0.0122244160579665 -0.000116893323651401 -1.5086961752114e-15)
(-0.0103044479149441 -0.000111921341175268 -1.55667393489861e-15)
(-0.00847983466678839 -0.000106716105236581 -3.29729252956921e-20)
(-0.00675493832910278 -0.000101249938310427 -3.84485004598916e-22)
(-0.00513479977100681 -9.54959068451024e-05 3.36213005052336e-20)
(-0.00362498137498448 -8.94309126848126e-05 0)
(-0.00223161648023156 -8.2994543345026e-05 0)
(-0.0009619458851135 -7.6100118488577e-05 0)
(0.000175847627338188 -6.86719677209869e-05 -3.58962436427504e-20)
(0.00117126303169424 -6.0574037823073e-05 1.08380792682561e-19)
(0.0020124896417739 -5.16979053988322e-05 -7.24490193850237e-20)
(0.00268349689957044 -4.18138179420316e-05 0)
(0.00316740325234945 -3.08100987691889e-05 0)
(0.00343946031564847 -1.83355185023189e-05 7.52703503147343e-20)
(0.00347793381705506 -4.47005972784504e-06 -7.53493887517534e-20)
(0.00324709874018429 1.16217171890193e-05 0)
(0.00271904764514651 2.96196584962001e-05 7.75784005036684e-20)
(0.00183234204519358 5.05396507758139e-05 -1.56186632678604e-19)
(0.000578472864966508 7.22592467785862e-05 -3.80590124360201e-15)
(-0.0011348618990495 9.70493886151343e-05 -3.94476577018449e-15)
(-0.00323312251539205 0.00011772221010349 0)
(-0.00585090968742257 0.000140411147418716 0)
(-0.008667250034792 0.000144422648209415 0)
(-0.0118856606997423 0.000142405032447786 0)
(-0.0143621020227391 0.000132591526994152 0)
(-0.0185975175541943 -0.00236127273836307 -2.11653148431756e-17)
(-0.0181973895836234 -0.00962496570542335 4.03396428155486e-17)
(-0.0141685384803344 -0.0124667618227868 -3.60996028890538e-17)
(-0.0089536015682924 -0.0108108189646868 0)
(-0.0019807193545898 -0.00349266069136394 2.92928012235156e-17)
(0.00552628973793167 0.00718082504580422 7.87353720277626e-20)
(0.0135628328287106 0.0197299658886144 -2.42274307126801e-20)
(0.0209623423611613 0.0316129540636469 2.29254229936909e-17)
(0.0275069981340474 0.0426896525822455 0)
(0.0340965926952332 0.0547532977182846 -9.23242925389127e-18)
(0.0422852160066643 0.0702159546061126 7.86448867250754e-21)
(0.0588527741283447 0.0964401352281756 6.49998929057319e-18)
(0.0939108381514256 0.138599101987041 4.86751129507815e-18)
(0.199118947138272 0.224722839648741 0)
(0.38433444172789 0.200812454093905 8.3325556280058e-18)
(0.157973507577545 0.0154721295926724 -7.33376246160902e-19)
(0.0353526666649334 0.000232323233605349 0)
(0.0153362111058583 -0.003371851917403 -1.33218846523114e-18)
(-0.0744079908027577 0.0883950665113696 0)
(-0.0346622958838621 0.0485773052222496 0)
(-0.0118030659817018 0.0184756757124224 0)
(-0.00987642429354941 0.0164289877563174 0)
(-0.00899391877441209 0.014678856282174 1.28611318253159e-21)
(-0.00985050593138175 0.0156455220771512 -7.42825323590386e-19)
(-0.010572812358952 0.0164588514985491 0)
(-0.0110762212583034 0.0168096344513311 -9.30688174523615e-19)
(-0.0101626983488567 0.0145228679146538 -4.14730976361559e-21)
(-0.00772867012395125 0.00958638506005548 -4.71978564517568e-18)
(-0.00321613300783126 0.00253287352526424 -5.2093201072526e-21)
(0.00289782390444503 -0.00353632529151579 6.41606430128123e-23)
(0.00927550035309248 -0.00536212790552002 4.59603829999113e-21)
(0.010952802523596 -0.00120061981086232 1.85772969079289e-22)
(0.00514639431825404 0.000540616466004993 -1.25325595396097e-32)
(-0.0010238132829976 0.000723153711996976 6.81189419209743e-21)
(-0.0107053071148223 0.00111797774596171 -6.63124414824347e-21)
(-0.0234360628049811 0.0014032707889027 6.20964314222998e-21)
(-0.0375167589948567 0.00154832400709271 -9.69497472053579e-23)
(-0.0516841655968574 0.00155403575454571 -5.73461251656683e-21)
(-0.0649324386351786 0.00146700186397053 5.55206434683687e-21)
(-0.0768646941113846 0.00133546373963706 -5.42123697284578e-21)
(-0.0873868708006711 0.00119311656307057 5.56986122908643e-21)
(-0.0965905198188101 0.00105700346750561 -5.46465932251234e-21)
(-0.10461705249245 0.000933894311032676 0)
(-0.111615648024258 0.000824876414289106 6.21109109346311e-21)
(-0.11771665155191 0.000728718796646011 -6.12228989149849e-21)
(-0.123028406515159 0.00064335884151472 0)
(-0.127636959111569 0.000566678532267134 7.41835732515757e-21)
(-0.131609953782387 0.000496835806966277 5.85724952087213e-22)
(-0.135000315291008 0.00043232868363898 -7.83983914837117e-21)
(-0.137849699916464 0.000371985260270389 0)
(-0.1401914013476 0.000314937798207304 0)
(-0.142052732593961 0.00026056555418038 5.17087415288633e-21)
(-0.143456695789127 0.000208418109741503 -5.13364141698434e-21)
(-0.144423079152646 0.000158158978141425 -5.88101033157569e-21)
(-0.144969383040027 0.00010955306200906 5.84672713218221e-21)
(-0.145111776169308 6.24985242697667e-05 4.68079706895705e-32)
(-0.144866291244744 1.70443944029702e-05 -7.05257573186144e-21)
(-0.144249667967706 -2.66582414834472e-05 7.01724184087047e-21)
(-0.143280239409577 -6.85634141626066e-05 0)
(-0.141975500639192 -0.000108675873564788 0)
(-0.140352612339276 -0.000146944797125052 8.74637897555851e-21)
(-0.138428870190111 -0.000183319812876835 -8.72489889825357e-21)
(-0.136221791528229 -0.000217736298687871 -4.82606991774526e-21)
(-0.133749134436769 -0.000250134630062788 4.82061918455463e-21)
(-0.131028888191991 -0.000280450045523625 5.29623251225054e-21)
(-0.128079248311021 -0.000308631657502753 -5.29694907052877e-21)
(-0.124918513994558 -0.000334637576102702 -5.78198648381121e-21)
(-0.121565028386646 -0.000358439608197037 5.78968141242345e-21)
(-0.11803706136481 -0.000380026700900865 0)
(-0.114352716016259 -0.000399401377470683 0)
(-0.110529841900609 -0.000416581122571359 0)
(-0.106585944746408 -0.000431596911288755 0)
(-0.10253811882249 -0.000444490714675416 -1.82960570396694e-21)
(-0.0984029856211484 -0.000455315104781925 3.73379610516193e-21)
(-0.0941966340569709 -0.000464132421036597 -1.90530997570924e-21)
(-0.0899345797017943 -0.000471011606696676 0)
(-0.0856317283325634 -0.00047602915926129 0)
(-0.0813023197278793 -0.000479270901282387 0)
(-0.0769599043962292 -0.000480825594712406 0)
(-0.072617262212295 -0.000480799550123666 4.61366735391962e-21)
(-0.0682863834271682 -0.000479294645454175 -9.39968614859125e-21)
(-0.0639783705381696 -0.000476437627098259 4.78824341896496e-21)
(-0.0597035379737879 -0.000472318627830442 0)
(-0.0554715378088575 -0.000467030938701306 0)
(-0.0512916496594971 -0.000460592808160162 1.06450007622686e-20)
(-0.0471733205500139 -0.000452998515053041 -1.07308981967973e-20)
(-0.0431257559834815 -0.000444297924059461 0)
(-0.0391577172656048 -0.00043455860292428 1.15116175206143e-20)
(-0.0352771104401217 -0.000423917157476963 -2.34120131994556e-20)
(-0.0314909782089402 -0.000412468475153805 1.19039862174058e-20)
(-0.027805618348636 -0.000400319307224036 0)
(-0.0242270197463434 -0.000387474853509832 2.53596296894967e-20)
(-0.0207614075556693 -0.000373919996104481 -2.5581998623031e-20)
(-0.0174151053771836 -0.000359660396700395 0)
(-0.014194432089161 -0.000344693506044551 2.71239293141197e-20)
(-0.0111057180814282 -0.0003290670939448 -2.73630127024152e-20)
(-0.00815486755855359 -0.000312778797154186 0)
(-0.00534867680507149 -0.000295822887672973 2.88939740416556e-20)
(-0.00269407671905086 -0.000278115281348053 -2.91459764473774e-20)
(-0.00019909166678857 -0.000259494922684014 0)
(0.00212741608691548 -0.000239854494611322 0)
(0.00427560316278115 -0.000219072446981211 0)
(0.00623390944059173 -0.000196956447929245 0)
(0.00798912219890531 -0.000173259891341574 0)
(0.0095245295070775 -0.000147605622275756 0)
(0.0108210186740869 -0.000119627761590062 0)
(0.0118532212916468 -8.87130397723242e-05 0)
(0.0125934659922394 -5.44012025503746e-05 0)
(0.0130026136471469 -1.58015290089409e-05 0)
(0.0130431324793001 2.71671379306126e-05 0)
(0.0126584603482592 7.6398431617685e-05 6.96914326494481e-20)
(0.0117988485837961 0.000131967505945582 -1.41081019164572e-19)
(0.0103669979350841 0.000195787171124012 -6.25812632417039e-22)
(0.00832849359788347 0.000264297460394272 1.46478583228788e-19)
(0.00553692602290461 0.000340597711940902 -7.45099895492071e-20)
(0.0020596192558623 0.0004109134355634 7.69508394273324e-20)
(-0.00231630670036543 0.000482455855660384 6.60234235797649e-22)
(-0.00717848896189555 0.000512992145148885 -7.82782763304087e-20)
(-0.0128216459949855 0.000525346586469514 7.95747669893916e-20)
(-0.0178579810162079 0.000524709527334044 -7.95530205666583e-20)
(-0.0248477968561478 -0.00289837676661928 1.04435987619865e-17)
(-0.0237206357253127 -0.0128069841520021 -7.63023333939738e-20)
(-0.0173679519843728 -0.0159204777500839 3.51393785746564e-17)
(-0.00939176920264007 -0.0125022629009224 0)
(0.000893903289677907 -0.0011679230340947 -2.88803655755707e-17)
(0.0119043158755879 0.0148698874925325 2.65450226606254e-17)
(0.0237168985599213 0.0335880525735484 1.22577902632036e-17)
(0.0347783518832561 0.0516082677798585 -2.27843505780965e-17)
(0.0448281399412973 0.0687975183754482 -1.03829393511537e-17)
(0.0550664817968697 0.087633942265291 -9.21550646444142e-18)
(0.0679637277409288 0.111725700084203 0)
(0.0934066833637936 0.151092925578535 -6.48986542052884e-18)
(0.146379983725321 0.212037738795646 -9.37990387222705e-18)
(0.289669047060133 0.3198005877416 4.28347739698354e-18)
(0.535094441038478 0.282257074364917 -7.59200358031624e-18)
(0.295344554726299 0.0354259132559651 6.31063347995724e-19)
(0.133479323652119 0.00188899155179323 -3.94898394823253e-23)
(0.0356521647221854 -0.0079048728894715 -1.24001061563706e-18)
(-0.093406623201811 0.111795965899378 -5.16610604052982e-19)
(-0.0481832861049438 0.0653032156383442 0)
(-0.0175328049033033 0.0264388779733462 -4.54158676811625e-19)
(-0.0138938026608178 0.0228323897273752 0)
(-0.0126540462879173 0.0205698872146195 -1.33376394014216e-21)
(-0.0137292089634678 0.0217974935282629 1.46215995554847e-21)
(-0.0147021668250248 0.0228698501623226 -8.58362032560148e-19)
(-0.0153900251263594 0.023242508795613 1.92344084804524e-18)
(-0.0143457119582404 0.0202416506496839 2.14954986565807e-18)
(-0.0114714976230439 0.0138792304968817 2.41514646278608e-18)
(-0.0061423760511564 0.00489107690742357 0)
(0.00121536453999765 -0.00302436614954408 0)
(0.00937948368832641 -0.00590557566781445 1.70329483865407e-18)
(0.0120760363744904 -0.00104131095696819 -9.0333804015278e-19)
(0.00360225891089235 0.00123575121043521 -6.96225071537672e-21)
(-0.00661573796870274 0.00165675885778979 6.79243350585082e-21)
(-0.0213315136250846 0.00240511765368963 0)
(-0.0394885098974646 0.00290536787957636 -5.83711366484373e-21)
(-0.0585801040475815 0.00310395031882302 5.52992119426163e-21)
(-0.0769234467446116 0.00303831679930836 -5.1362440445403e-21)
(-0.0934355526859177 0.00281259647587295 4.91401531642388e-21)
(-0.107833499745041 0.00252230740378029 -4.81868293491644e-21)
(-0.120184052770417 0.00222676061968328 9.43610170980449e-21)
(-0.130721864150478 0.00195309809758723 -9.47081567274467e-21)
(-0.139698180746751 0.00170988677441045 4.68884460364277e-21)
(-0.147342155237116 0.00149658140844115 0)
(-0.15384184720957 0.00130930193545734 5.3354179388856e-21)
(-0.159347707795841 0.00114334359460245 -5.19956832272873e-21)
(-0.163977292871674 0.00099431260310408 0)
(-0.16782257739956 0.000858563344098788 6.21468144341337e-21)
(-0.170955903965769 0.000733210375718103 -6.0831180249401e-21)
(-0.173434934665995 0.000616050891009153 6.95123535046618e-21)
(-0.175306533356038 0.000505471314448855 -6.82092456682131e-21)
(-0.176609743530002 0.000400316788470218 0)
(-0.177377827492344 0.000299744209845518 4.11200351779099e-21)
(-0.177639624064999 0.000203114803436877 2.94237797619288e-22)
(-0.177420647704579 0.000109980469027512 3.01281969340625e-22)
(-0.176744109998281 2.0280470937599e-05 -4.51668277997341e-21)
(-0.175634715347503 -6.57330578270654e-05 -5.06936221158011e-21)
(-0.174118692169612 -0.000147955871069391 -3.16195827092921e-22)
(-0.172218634682963 -0.000226450796252845 -3.1948170843251e-22)
(-0.169956627322078 -0.000301234984180331 1.13488283763655e-20)
(-0.167354183026538 -0.000372275453401214 -5.77782087205319e-21)
(-0.164432511254666 -0.000439512972581485 0)
(-0.161212639990482 -0.000502868054577722 0)
(-0.157715461839251 -0.00056226801519792 -3.46545638582498e-21)
(-0.153961761236383 -0.000617634459340499 7.05348706431076e-21)
(-0.149972207340141 -0.000668911079845521 -3.59062468859011e-21)
(-0.145767287661446 -0.000716057094995373 0)
(-0.141367272468031 -0.000759054089841751 -5.13002636420249e-16)
(-0.136792127101428 -0.000797910719131564 -5.36010774418574e-16)
(-0.132061448747875 -0.000832657078160931 0)
(-0.127194405177135 -0.000863346409345614 0)
(-0.12220967075647 -0.000890052464096198 0)
(-0.117125382397097 -0.000912865603672207 0)
(-0.111959098059799 -0.000931892102959848 1.24818829341924e-21)
(-0.106727756013058 -0.00094725255791567 -6.06674260438711e-22)
(-0.101447650296207 -0.000959077427464679 -6.46772037406267e-22)
(-0.0961344058447815 -0.000967508786915434 -6.86716993612594e-22)
(-0.0908029334643772 -0.000972702692649851 6.89835278890187e-22)
(-0.0854674161939679 -0.000974821211210686 0)
(-0.080141231945811 -0.000974052179069156 0)
(-0.0748369523240306 -0.000970578858593553 3.09717504842425e-21)
(-0.0695662497767586 -0.000964615664315518 6.95102161557838e-23)
(-0.0643400427154284 -0.000956318248703786 -3.21113610253046e-21)
(-0.0591686244715264 -0.000945832200642342 8.68582678325882e-16)
(-0.0540620066675874 -0.000933180661558455 8.87766352107109e-16)
(-0.0490304156834683 -0.000918358293484487 -6.99561829885386e-21)
(-0.0440838105721863 -0.000901455544402069 0)
(-0.0392316798249049 -0.000882601433381055 7.52065428779825e-21)
(-0.0344826474461589 -0.000862027264488323 -7.59574789316531e-21)
(-0.0298445021876486 -0.000839900131092931 0)
(-0.025324341529647 -0.000816383475204938 0)
(-0.020929099547754 -0.000791477053170168 -1.66924600651175e-20)
(-0.0166660077850517 -0.000765144941513616 3.40045370177693e-20)
(-0.0125425213584451 -0.0007373870939073 -1.73223751515194e-20)
(-0.00856615164364451 -0.000708200200037556 0)
(-0.00474447477263212 -0.000677676110096045 0)
(-0.00108485313687687 -0.000645770015819688 0)
(0.00240447902089967 -0.000612307462166409 -1.92910707147863e-20)
(0.00571464013964618 -0.000577159593954189 -2.25225905703731e-22)
(0.00883573153448068 -0.000540143705606077 3.96725710073912e-20)
(0.0117566310486172 -0.000501029032827681 -6.06615666543037e-20)
(0.0144648938388985 -0.000459562795702967 -4.34794603362969e-22)
(0.0169459770248045 -0.000415366059172791 4.16347531382868e-20)
(0.0191830987327448 -0.000367922066246775 0)
(0.0211552873190078 -0.000316492937607919 0)
(0.0228381775624576 -0.00026027691575752 0)
(0.0242000286233347 -0.000198095956774115 0)
(0.0252050568200769 -0.00012884696811648 -4.6650194807995e-20)
(0.0258040802633776 -5.0786269325558e-05 9.5205873196895e-20)
(0.0259449872835384 3.68906273688973e-05 -9.7715489208681e-20)
(0.0255522197566896 0.000137260715999884 1.00296958239383e-19)
(0.0245577190210294 0.000251581901474745 4.52716026951055e-22)
(0.022836752233166 0.000383039368842219 -1.06436570491357e-19)
(0.0203173041161571 0.000527986353935982 -4.77353130153516e-22)
(0.0168065070233792 0.000689499085679094 5.70124884889474e-20)
(0.0123145371791812 0.00084909022160684 0)
(0.00655649836435087 0.00100951909164016 0)
(-9.15190286551116e-05 0.00110899260168873 0)
(-0.00803285664471548 0.00116569197008571 0)
(-0.0158489753656998 0.00119118580698312 -7.09769915941651e-20)
(-0.025402976164243 -0.00247545682951205 7.16287687464466e-20)
(-0.023360415873332 -0.0129896027073242 0)
(-0.0154721161846832 -0.0152222959238056 5.90402348545415e-20)
(-0.00573654231956844 -0.00990133781190184 -1.06145643298212e-19)
(0.00660146248756795 0.00441710687553057 -5.1300913038934e-22)
(0.0199133342774022 0.0242370270269653 -2.30383406223253e-17)
(0.0343368575849861 0.0473167498697875 -1.09443577965363e-17)
(0.0481729843124765 0.0700549214264115 2.06902976018699e-17)
(0.0611381964108059 0.0923338545456646 9.65792930063793e-18)
(0.0745637067754877 0.116938830003609 8.75690565900788e-18)
(0.0916614511730459 0.148189725790628 -7.02956352854437e-21)
(0.124432204043537 0.197078334031671 6.23355161510406e-21)
(0.190816523705739 0.268904480909103 8.36443469498829e-18)
(0.351209262402032 0.374579135926151 -3.44579221105635e-18)
(0.619564281748759 0.324056258994655 3.00303837951779e-18)
(0.421795271802781 0.0550468653217161 -2.1710876077111e-22)
(0.243704117768788 0.00616759395308152 -3.16491602792694e-23)
(0.069909658186843 -0.0156291679151695 1.09120081586173e-18)
(-0.105714886585398 0.128721654624059 -5.49517534768072e-20)
(-0.0610657101140226 0.0802657470023206 0)
(-0.02377544808279 0.034577003976646 4.6467660768848e-19)
(-0.017973755713017 0.0291296946606512 5.46680405529751e-22)
(-0.0163329155857597 0.0264349816889763 -1.38112483966109e-21)
(-0.0175597474388772 0.0278666488587207 1.50901828862266e-21)
(-0.0187532502554183 0.0291524097569434 8.82229225133214e-19)
(-0.0196101558338606 0.0294882912540101 -1.97125439368909e-18)
(-0.01855044667891 0.025888081135411 -2.19280956966636e-18)
(-0.0155187751071674 0.0184207232413214 2.4237301510354e-18)
(-0.00991884793899079 0.00801226203629474 1.04508192864604e-20)
(-0.00207956062728138 -0.00136246874920051 2.9857839062117e-18)
(0.00717537676670223 -0.00542024207662174 -6.6292602172578e-21)
(0.010927362251929 -0.000455070310677061 0)
(-0.00050530819717559 0.00231028198676464 0)
(-0.0154867288063911 0.00310592921341379 0)
(-0.0353791722782386 0.00426315416657044 0)
(-0.0582387129346278 0.00494861595321054 0)
(-0.0808155804472394 0.00510639399782222 0)
(-0.101287531840224 0.00485663586085873 -4.30219216566191e-21)
(-0.118832776161571 0.00439100610909449 4.01309285998114e-21)
(-0.133515490829137 0.00386289455511698 0)