9.99999999996687e-07 	1.00593833258374 	1.38777878078145e-17 	-0.00596565651273101 	0.000234718770170758 	1305.87336215693 	0.000568895679939403 	0
9.99999999996688e-07 	1.01006700077429 	1.38777878078145e-17 	-0.00593650267717779 	0.00102211351731226 	297.450498773739 	0.00456933235111985 	0
9.99999999996688e-07 	1.0143469141712 	1.38777878078145e-17 	-0.00586894870972271 	0.00277248246696147 	133.150633304559 	0.0159304462324519 	0
9.99999999996688e-07 	1.01878361332929 	1.38777878078145e-17 	-0.005732531267187 	0.00531786038237199 	83.3003728062072 	0.0311114363685777 	0
9.99999999996688e-07 	1.02338284177015 	1.38777878078145e-17 	-0.00550208627435568 	0.00802215530507656 	59.5265493688032 	0.039834562173726 	0
9.99999999996688e-07 	1.02815055341735 	1.04083408558608e-17 	-0.00517011358685379 	0.0104534566969989 	44.0768865398392 	0.0379897722891442 	0
9.99999999996688e-07 	1.03309292030413 	3.46944695195361e-18 	-0.00474288811122301 	0.0125923891195955 	32.9874115119742 	0.0300695156929876 	0
9.99999999996688e-07 	1.03821634056339 	3.46944695195361e-18 	-0.00423048034472603 	0.0145523743863256 	25.0368201838783 	0.021418780679609 	0
9.99999999996688e-07 	1.04352744671036 	3.46944695195361e-18 	-0.00364244640188406 	0.0164004790041408 	19.4212059648594 	0.0145810671796269 	0
9.99999999996688e-07 	1.04903311422874 	0 	-0.00298713404520357 	0.0181495480907457 	15.4589997243955 	0.00992617269721293 	0
9.99999999996688e-07 	1.05474047047132 	-3.46944695195361e-18 	-0.00227105275207095 	0.0197928817877787 	12.6240215579633 	0.00696171172814925 	0
9.99999999996688e-07 	1.06065690388671 	-3.46944695195361e-18 	-0.00149852754578813 	0.0213250551951427 	10.548880248999 	0.00510641615515325 	0
9.99999999996688e-07 	1.06679007358401 	0 	-0.000672046188499658 	0.0227467833010265 	8.99045556433058 	0.00393286117569034 	0
9.99999999996688e-07 	1.07314791924792 	0 	0.000207121271033547 	0.024063403790123 	7.79061129409885 	0.00317201336799547 	0
9.99999999996688e-07 	1.07973867141705 	-3.46944695195361e-18 	0.0011384280369632 	0.0252825048802627 	6.84602287051968 	0.00266347707928391 	0
9.99999999996687e-07 	1.08657086213875 	-1.04083408558608e-17 	0.00212175190531337 	0.0264122688857468 	6.08806826370264 	0.00231246007805062 	0
9.99999999996687e-07 	1.09365333601424 	-1.38777878078145e-17 	0.00315722297348036 	0.027460573147312 	5.47013424741914 	0.00206223037935362 	0
9.99999999996687e-07 	1.10099526164836 	-1.38777878078145e-17 	0.00424511640271102 	0.0284345804236693 	4.95973320982309 	0.00187807764655693 	0
9.99999999996687e-07 	1.10860614351883 	-2.08166817117217e-17 	0.00538578245967528 	0.0293405939349758 	4.53360375622582 	0.00173821953864835 	0
9.99999999996687e-07 	1.11649583428022 	-2.77555756156289e-17 	0.00657960385909738 	0.0301840405980495 	4.17464019843419 	0.00162863655461219 	0
9.99999999996687e-07 	1.12467454751866 	-2.42861286636753e-17 	0.00782697460747018 	0.0309695100243256 	3.8699448108693 	0.00154009626140066 	0
9.99999999996687e-07 	1.13315287097387 	-2.42861286636753e-17 	0.0091282928549254 	0.0317008140819 	3.60957370879652 	0.00146640467299798 	0
9.99999999996687e-07 	1.1419417802455 	-2.77555756156289e-17 	0.0104839579286947 	0.0323810513604167 	3.38571450216795 	0.00140335483299274 	0
9.99999999996687e-07 	1.15105265300151 	-2.42861286636753e-17 	0.0118943618225528 	0.0330126703747724 	3.19213504670001 	0.00134807803801375 	0
9.99999999996687e-07 	1.1604972837072 	-2.08166817117217e-17 	0.0133598688476314 	0.0335975295577188 	3.02380426062657 	0.00129863185396005 	0
9.99999999996687e-07 	1.17028789889366 	-1.73472347597681e-17 	0.0148807826000922 	0.0341369536961477 	2.87662374813182 	0.0012537304146677 	0
9.99999999996687e-07 	1.1804371729856 	-1.38777878078145e-17 	0.0164573044839927 	0.034631786891857 	2.74723212556074 	0.00121256253345657 	0
9.99999999996687e-07 	1.19095824470904 	-1.73472347597681e-17 	0.0180894909053636 	0.0350824421142012 	2.63285810290272 	0.00117466557490823 	0
9.99999999996688e-07 	1.20186473410002 	-2.42861286636753e-17 	0.0197772164040031 	0.0354889473277548 	2.53120702652908 	0.00113983536654025 	0
9.99999999996687e-07 	1.21317076013637 	-2.42861286636753e-17 	0.0215201480442114 	0.0358509881902452 	2.44037093162713 	0.00110805916058338 	0
9.99999999996687e-07 	1.22489095901541 	-1.73472347597681e-17 	0.0233177334989252 	0.0361679474747098 	2.35875553588054 	0.00107946250663757 	0
9.99999999996687e-07 	1.23704050310127 	-1.04083408558608e-17 	0.0251692024523549 	0.0364389416524013 	2.28501983114802 	0.0010542634415083 	0
9.99999999996687e-07 	1.24963512056618 	-1.04083408558608e-17 	0.0270735787995884 	0.0366628554149672 	2.21802544829343 	0.00103272940589639 	0
9.99999999996687e-07 	1.26269111575138 	-6.93889390390723e-18 	0.0290296997667205 	0.0368383752386403 	2.15679402469775 	0.00101513403852012 	0
9.99999999996687e-07 	1.27622539027388 	0 	0.0310362373985487 	0.0369640233352393 	2.10047152495606 	0.00100171280192264 	0
9.99999999996687e-07 	1.29025546490642 	3.46944695195361e-18 	0.0330917178897726 	0.0370381934532714 	2.04829892967303 	0.000992618383004348 	0
9.99999999996687e-07 	1.30479950225895 	1.04083408558608e-17 	0.0351945349929669 	0.0370591899656222 	1.99958896850019 	0.000987878248871664 	0
9.99999999996687e-07 	1.31987633029101 	1.38777878078145e-17 	0.0373429551158487 	0.0370252715110618 	1.95370867491238 	0.000987357106333416 	0
9.99999999996687e-07 	1.33550546668544 	1.38777878078145e-17 	0.0395351136051041 	0.0369347001750924 	1.91006752004855 	0.000990726867282224 	0
9.99999999996687e-07 	1.35170714411495 	1.38777878078145e-17 	0.0417690037440345 	0.0367857968381722 	1.86811077608289 	0.000997446579959943 	0
9.99999999996687e-07 	1.3685023364343 	1.38777878078145e-17 	0.0440424616855102 	0.0365770029071399 	1.82731759773202 	0.00100675461048551 	0
9.99999999996687e-07 	1.38591278583198 	1.73472347597681e-17 	0.0463531514866142 	0.0363069481784709 	1.78720312287954 	0.00101767503189898 	0
9.99999999996687e-07 	1.40396103097652 	1.73472347597681e-17 	0.0486985543550957 	0.035974524046222 	1.74732370788452 	0.00102903968208765 	0
9.99999999996687e-07 	1.42267043619387 	1.73472347597681e-17 	0.0510759652139043 	0.0355789606554641 	1.70728425776993 	0.00103952673795979 	0
9.99999999996687e-07 	1.44206522171366 	2.42861286636753e-17 	0.0534824980224243 	0.0351199059288375 	1.66674651350719 	0.001047715846273 	0
9.99999999996687e-07 	1.46217049502345 	2.77555756156289e-17 	0.0559150994012659 	0.0345975036964339 	1.6254371415267 	0.00105215854541056 	0
9.99999999996687e-07 	1.48301228337162 	2.77555756156289e-17 	0.0583705685048933 	0.0340124674842854 	1.58315454804652 	0.00105146079596146 	0
9.99999999996687e-07 	1.50461756746087 	2.77555756156289e-17 	0.0608455801222301 	0.0333661459221269 	1.53977351121019 	0.00104437228050117 	0
9.99999999996687e-07 	1.52701431637603 	2.77555756156289e-17 	0.0633367077504405 	0.0326605753035193 	1.49524696934772 	0.00102987531443371 	0
9.99999999996687e-07 	1.55023152379143 	2.77555756156289e-17 	0.065840443819237 	0.0318985147054149 	1.44960459421044 	0.00100726524270905 	0
9.99999999996687e-07 	1.57429924550461 	2.77555756156289e-17 	0.0683532151475189 	0.0310834594351607 	1.40294808127218 	0.0009762143257921 	0
9.99999999996687e-07 	1.59924863834497 	3.12250225675825e-17 	0.0708713928292226 	0.0302196296297132 	1.35544337809062 	0.000936812252572065 	0
9.99999999996687e-07 	1.62511200050781 	3.12250225675825e-17 	0.0733912968331366 	0.0293119327559053 	1.30731032723042 	0.000889578259201213 	0
9.99999999996687e-07 	1.65192281336592 	2.77555756156289e-17 	0.0759091964347885 	0.0283659016151746 	1.25881040889454 	0.000835442073072275 	0
9.99999999996687e-07 	1.67971578481282 	2.42861286636753e-17 	0.0784213079454347 	0.0273876131350219 	1.21023342478941 	0.000775693432880057 	0
9.99999999996687e-07 	1.70852689419381 	2.08166817117217e-17 	0.0809237908670591 	0.0263835972326712 	1.16188408548678 	0.00071190284893815 	0
9.99999999996687e-07 	1.73839343888296 	1.73472347597681e-17 	0.0834127425538743 	0.0253607475334265 	1.11406959001869 	0.000645819587078897 	0
9.99999999996687e-07 	1.76935408256639 	1.38777878078145e-17 	0.0858841903797868 	0.0243262419582004 	1.06708943406548 	0.00057925643797412 	0
9.99999999996687e-07 	1.80144890529425 	1.38777878078145e-17 	0.0883340819715227 	0.0232874655365445 	1.02122876930141 	0.000513973281600469 	0
9.99999999996687e-07 	1.83471945536633 	1.38777878078145e-17 	0.0907582824721276 	0.0222519093889178 	0.976756497485109 	0.000451570478193696 	0
9.99999999996687e-07 	1.86920880311829 	1.38777878078145e-17 	0.0931526005496527 	0.0212270055194738 	0.933928461399267 	0.000393400685548396 	0
9.99999999996687e-07 	1.9049615966783 	1.73472347597681e-17 	0.0955128316005133 	0.0202198336821815 	0.89299414391905 	0.000340515727159505 	0
9.99999999996687e-07 	1.94202411976624 	2.08166817117217e-17 	0.0978346588299716 	0.0192366341196718 	0.854203842459061 	0.000293663451086733 	0
9.99999999996688e-07 	1.98044435161018 	2.08166817117217e-17 	0.100113734408445 	0.0182821619771175 	0.817815479097449 	0.000253186010869587 	0
9.99999999996688e-07 	2.02025965173184 	2.08166817117217e-17 	0.102327984690423 	0.0173664865451683 	0.784357852871925 	0.000219128185345708 	0
9.99999999996688e-07 	2.06006301192217 	2.08166817117217e-17 	0.104421506453387 	0.0165101177610603 	0.75474645953778 	0.000191470300706467 	0
9.99999999996688e-07 	2.09845978584128 	1.73472347597681e-17 	0.106348986877276 	0.0157261169330205 	0.729523914347918 	0.000169628352196436 	0
9.99999999996688e-07 	2.13549967996945 	1.38777878078145e-17 	0.108110536120359 	0.0150095468816073 	0.708481904985035 	0.000152294258845274 	0
9.99999999996688e-07 	2.17123064424048 	1.04083408558608e-17 	0.109723938326323 	0.0143502410304053 	0.691194121810016 	0.000138162669201629 	0
9.99999999996688e-07 	2.20569893411515 	6.93889390390723e-18 	0.111204714088358 	0.0137401010189063 	0.677309390307759 	0.000126289871837763 	0
9.99999999996688e-07 	2.23894917046122 	6.93889390390723e-18 	0.112566338948145 	0.013172766347628 	0.666546762169508 	0.000116044157252232 	0
9.99999999996688e-07 	2.27102439731725 	0 	0.113820586793562 	0.0126432731194166 	0.658690175302508 	0.000107038188675554 	0
9.99999999996688e-07 	2.30196613761521 	-6.93889390390723e-18 	0.114977776188977 	0.012147754725866 	0.65358323817783 	9.90674558282847e-05 	0
9.99999999996688e-07 	2.33181444693391 	-1.04083408558608e-17 	0.116046971314506 	0.0116831977452178 	0.651124334096673 	9.2063249488228e-05 	0
9.99999999996688e-07 	2.3606079653529 	-6.93889390390723e-18 	0.117036155807983 	0.0112472508966236 	0.651262323514194 	8.60585227651578e-05 	0
9.99999999996688e-07 	2.3883839674739 	0 	0.117952380759654 	0.0108380794223432 	0.653993103455619 	8.1164623306361e-05 	0
9.99999999996688e-07 	2.41517841067461 	0 	0.118801889833383 	0.0104542561171469 	0.659357192328699 	7.75567487740657e-05 	0
9.99999999996688e-07 	2.44102598165722 	0 	0.119590225525419 	0.0100946808079373 	0.667438399619511 	7.54660657765416e-05 	0
9.99999999996688e-07 	2.46596014135207 	0 	0.120322319995773 	0.00975852124657356 	0.678363544072188 	7.51767663959345e-05 	0
9.99999999996688e-07 	2.49001316823443 	0 	0.121002573207152 	0.0094451696008105 	0.692303108546604 	7.70266876824391e-05 	0
9.99999999996688e-07 	2.51321620011054 	0 	0.121634920565728 	0.00915420979846428 	0.709472659101967 	8.14103731515295e-05 	0
9.99999999996688e-07 	2.535599274427 	0 	0.122222891833751 	0.00888539182814966 	0.730134799696821 	8.87835886338309e-05 	0
9.99999999996688e-07 	2.55719136715571 	0 	0.122769662746996 	0.00863860972611662 	0.754601372707054 	9.96683223802931e-05 	0
9.99999999996688e-07 	2.57802043030465 	0 	0.123278100499852 	0.00841388041977362 	0.783235543530878 	0.000114657216628087 	0
9.99999999996688e-07 	2.59811342810315 	3.46944695195361e-18 	0.123750804036039 	0.00821132091466899 	0.816453325131115 	0.000134416222356613 	0
9.99999999996688e-07 	2.61749637190832 	3.46944695195361e-18 	0.124190139885678 	0.00803112158167646 	0.854724013762966 	0.000159684085197077 	0
9.99999999996688e-07 	2.63619435387806 	0 	0.124598274108767 	0.00787351361916143 	0.898568938753613 	0.000191267125526465 	0
9.99999999996688e-07 	2.65423157945406 	0 	0.124977200737132 	0.0077387292345885 	0.948557906818141 	0.000230027761265218 	0
9.99999999996688e-07 	2.67163139869691 	3.46944695195361e-18 	0.125328766954746 	0.00762695380968932 	1.00530278505541 	0.000276865446093831 	0
9.99999999996688e-07 	2.68841633651388 	6.93889390390723e-18 	0.125654695128756 	0.00753827034995317 	1.06944786112045 	0.000332689261035506 	0
9.99999999996688e-07 	2.7046081218185 	6.93889390390723e-18 	0.125956601713402 	0.00747259787258577 	1.14165698141365 	0.000398382361259962 	0
9.99999999996688e-07 	2.72022771565972 	6.93889390390723e-18 	0.12623601300878 	0.00742962695299967 	1.22259801037162 	0.000474759808258532 	0
9.99999999996688e-07 	2.73529533835694 	6.93889390390723e-18 	0.126494377773767 	0.0074087572004574 	1.31292584280064 	0.000562522847444894 	0
9.99999999996688e-07 	2.74983049567625 	3.46944695195361e-18 	0.126733076765851 	0.00740904263614643 	1.41326594585669 	0.000662214132927043 	0
9.99999999996688e-07 	2.76385200408156 	0 	0.126953429397155 	0.0074291514365799 	1.52420106688924 	0.000774179400044055 	0
9.99999999996688e-07 	2.77737801509343 	0 	0.127156697834141 	0.00746734600103487 	1.64626416328054 	0.000898541345153617 	0
9.99999999996688e-07 	2.79042603878708 	0 	0.127344089002498 	0.00752148773077351 	1.77994068408852 	0.00103519089505217 	0
9.99999999996688e-07 	2.80301296646003 	-3.46944695195361e-18 	0.127516755064858 	0.00758906847525292 	1.92568306819269 	0.00118379983179646 	0
9.99999999996688e-07 	2.81515509249872 	-3.46944695195361e-18 	0.127675792996683 	0.00766726775651865 	2.08393987443042 	0.00134385733318445 	0
9.99999999996688e-07 	2.82686813547237 	-3.46944695195361e-18 	0.127822243876029 	0.00775303217851924 	2.25520159404765 	0.00151473190056512 	0
9.99999999996688e-07 	2.83816725848142 	-3.46944695195361e-18 	0.127957092408233 	0.00784317131491168 	2.44006518973194 	0.00169575964471594 	0
9.99999999996688e-07 	2.84906708878691 	-3.46944695195361e-18 	0.128081267016994 	0.00793446304125654 	2.63931990416721 	0.00188635982776596 	0
9.99999999996688e-07 	2.85958173674616 	-1.04083408558608e-17 	0.128195640558469 	0.0080237606474746 	2.85405782116085 	0.00208617846031998 	0
9.99999999996688e-07 	2.86972481407933 	-1.04083408558608e-17 	0.128301031389906 	0.00810809389796304 	3.08581383657953 	0.00229526040898728 	0
9.99999999996688e-07 	2.87950945149043 	-1.04083408558608e-17 	0.128398204259348 	0.00818475632735769 	3.33674098232999 	0.00251425036762557 	0
9.99999999996688e-07 	2.88894831566566 	-1.38777878078145e-17 	0.128487870397432 	0.00825137149113288 	3.60982870640431 	0.00274462374837587 	0
9.99999999996689e-07 	2.89805362567106 	-1.38777878078145e-17 	0.128570686302844 	0.00830593178111218 	3.90917459185966 	0.00298894988386664 	0
9.99999999996689e-07 	2.90683716877067 	-1.38777878078145e-17 	0.128647251052235 	0.00834680482732533 	4.24032549706784 	0.00325119274080518 	0
9.99999999996688e-07 	2.91531031568569 	-1.38777878078145e-17 	0.128718102418959 	0.00837270418333261 	4.61071386830617 	0.00353706099340902 	0
9.99999999996688e-07 	2.92348403531448 	-1.73472347597681e-17 	0.128783712360968 	0.00838262222638907 	5.0302305283298 	0.00385442941042276 	0
9.99999999996688e-07 	2.93136890893229 	-2.08166817117217e-17 	0.128844482566393 	0.00837572291651774 	5.51199804447987 	0.00421386323891732 	0
9.99999999996688e-07 	2.93897514388925 	-2.42861286636753e-17 	0.128900740947445 	0.00835118905851126 	6.0734411288429 	0.00462928233223424 	0
9.99999999996688e-07 	2.94631258682425 	-2.77555756156289e-17 	0.128952739720589 	0.00830801189270914 	6.73779698171868 	0.00511879416202615 	0
9.99999999996688e-07 	2.95339073641193 	-2.08166817117217e-17 	0.12900065271357 	0.00824469920681509 	7.53627740487297 	0.00570568550899234 	0
9.99999999996688e-07 	2.96021875565915 	-1.38777878078145e-17 	0.129044567282413 	0.00815886100080113 	8.51120137876456 	0.00641944844732732 	0
9.99999999996688e-07 	2.96680548376697 	-1.38777878078145e-17 	0.129084499856831 	0.00804661009451209 	9.72059225852265 	0.00729737926585459 	0
9.99999999996688e-07 	2.97315944757337 	-1.38777878078145e-17 	0.129120565033287 	0.00790162936825619 	11.2451568187037 	0.00839753225998335 	0
9.99999999996688e-07 	2.97928887259171 	-2.08166817117217e-17 	0.129153052116725 	0.00771270142379057 	13.2006362604427 	0.00977631247540493 	0
9.99999999996688e-07 	2.98520169365902 	-2.42861286636753e-17 	0.129181966618538 	0.00746034812930496 	15.75434258633 	0.0114643249736771 	0
9.99999999996688e-07 	2.99090556520806 	-2.08166817117217e-17 	0.129206752031559 	0.0071143368635506 	19.1376538406691 	0.0134545953017611 	0
9.99999999996688e-07 	2.99640787117633 	-2.08166817117217e-17 	0.129226858765993 	0.00663179658565622 	23.6653752526116 	0.0156072413074378 	0
9.99999999996688e-07 	3.00171573456492 	-2.08166817117217e-17 	0.129242253686334 	0.00595875321077534 	29.8001497400478 	0.0175426743903424 	0
9.99999999996688e-07 	3.00683602665962 	-2.08166817117217e-17 	0.12925329023566 	0.00504116996677559 	38.343196547294 	0.0185260305297617 	0
9.99999999996688e-07 	3.01177537592612 	-2.42861286636753e-17 	0.129260536112557 	0.00385443075427092 	51.0384902278438 	0.0171166917645534 	0
9.99999999996688e-07 	3.01654017659085 	-2.77555756156289e-17 	0.129264821777293 	0.00249694247548959 	72.7623226981308 	0.012328315798884 	0
9.99999999996688e-07 	3.02113659691864 	-2.77555756156289e-17 	0.129267098259847 	0.00126307655909131 	120.844932280071 	0.00610864980057708 	0
9.99999999996688e-07 	3.02557058719784 	-2.42861286636753e-17 	0.129268111659269 	0.00045501209314827 	276.573705287806 	0.00181959982739281 	0
9.99999999996688e-07 	3.02984788744324 	-2.08166817117217e-17 	0.129268344555808 	0.000103484040754717 	1217.39966651493 	0.000265762382165208 	0
