9.99999999996687e-07 	1.00593833258374 	1.38777878078145e-17 	0.117878587266034 	-9.21351572362434e-06 	-3.27930233672559e-24
9.99999999996688e-07 	1.01006700077429 	1.38777878078145e-17 	0.21614706615719 	0.00040287137192659 	-7.93479054842341e-25
9.99999999996688e-07 	1.0143469141712 	1.38777878078145e-17 	0.324778642893631 	0.00144165503854034 	-1.58708840819642e-24
9.99999999996688e-07 	1.01878361332929 	1.38777878078145e-17 	0.431015427275968 	0.00314023489972267 	-1.34132121619248e-24
9.99999999996688e-07 	1.02338284177015 	1.38777878078145e-17 	0.522848910539513 	0.00531187526194912 	-1.09580480519132e-24
9.99999999996688e-07 	1.02815055341735 	1.04083408558608e-17 	0.594927236026898 	0.00769141698369097 	8.37149442762111e-25
9.99999999996688e-07 	1.03309292030413 	3.46944695195361e-18 	0.647992748332295 	0.0100559120328775 	3.09204079381548e-24
9.99999999996688e-07 	1.03821634056339 	3.46944695195361e-18 	0.685724094742454 	0.0122671964645703 	2.02917312837315e-24
9.99999999996688e-07 	1.04352744671036 	3.46944695195361e-18 	0.712381840376951 	0.0142731102629992 	3.22069353580728e-25
9.99999999996688e-07 	1.04903311422874 	0 	0.731565648310918 	0.0160785948610338 	4.35270913266408e-25
9.99999999996688e-07 	1.05474047047132 	-3.46944695195361e-18 	0.745859039022045 	0.0177120397613752 	8.70454875934281e-25
9.99999999996688e-07 	1.06065690388671 	-3.46944695195361e-18 	0.756964615628908 	0.01920557093965 	4.35262512603065e-25
9.99999999996688e-07 	1.06679007358401 	0 	0.765966839131009 	0.0205875659428842 	0
9.99999999996688e-07 	1.07314791924792 	0 	0.773554790564279 	0.0218809397009288 	-3.11676479486453e-25
9.99999999996688e-07 	1.07973867141705 	-3.46944695195361e-18 	0.780172885450805 	0.0231034727540738 	-2.25098679358967e-18
9.99999999996687e-07 	1.08657086213875 	-1.04083408558608e-17 	0.786114425774561 	0.024268703113738 	-2.46505457912832e-18
9.99999999996687e-07 	1.09365333601424 	-1.38777878078145e-17 	0.791578111169619 	0.0253868479754582 	1.82277865789771e-18
9.99999999996687e-07 	1.10099526164836 	-1.38777878078145e-17 	0.796702203047385 	0.0264655806883052 	2.03684710443135e-18
9.99999999996687e-07 	1.10860614351883 	-2.08166817117217e-17 	0.801585468116838 	0.027510632391012 	1.53785864286126e-25
9.99999999996687e-07 	1.11649583428022 	-2.77555756156289e-17 	0.806300268714394 	0.0285262404580584 	-5.31072283067427e-25
9.99999999996687e-07 	1.12467454751866 	-2.42861286636753e-17 	0.810900919391561 	0.0295154782492136 	-2.63624806955153e-25
9.99999999996687e-07 	1.13315287097387 	-2.42861286636753e-17 	0.815429136689114 	0.0304804974760086 	-4.27211045355634e-25
9.99999999996687e-07 	1.1419417802455 	-2.77555756156289e-17 	0.81991766955583 	0.0314227070373886 	-1.64267607468254e-24
9.99999999996687e-07 	1.15105265300151 	-2.42861286636753e-17 	0.824392770253642 	0.0323429052165532 	-1.37979272121769e-24
9.99999999996687e-07 	1.1604972837072 	-2.08166817117217e-17 	0.828875913929637 	0.0332413771447361 	-3.97296550056059e-25
9.99999999996687e-07 	1.17028789889366 	-1.73472347597681e-17 	0.833385023607848 	0.0341179663262926 	-7.39269672112783e-25
9.99999999996687e-07 	1.1804371729856 	-1.38777878078145e-17 	0.837935364123734 	0.0349721274004695 	-2.39692571908113e-24
9.99999999996687e-07 	1.19095824470904 	-1.73472347597681e-17 	0.84254021011361 	0.0358029665584196 	-2.95109873359302e-24
9.99999999996688e-07 	1.20186473410002 	-2.42861286636753e-17 	0.847211356025359 	0.0366092754710563 	-4.39705054303726e-25
9.99999999996687e-07 	1.21317076013637 	-2.42861286636753e-17 	0.851959512020495 	0.0373895638409872 	6.90491514356344e-25
9.99999999996687e-07 	1.22489095901541 	-1.73472347597681e-17 	0.856794613521735 	0.03814209466255 	0
9.99999999996687e-07 	1.23704050310127 	-1.04083408558608e-17 	0.861726060919447 	0.0388649250468422 	0
9.99999999996687e-07 	1.24963512056618 	-1.04083408558608e-17 	0.866762897801859 	0.0395559542249808 	-1.22408393782481e-24
9.99999999996687e-07 	1.26269111575138 	-6.93889390390723e-18 	0.871913930252732 	0.0402129790904691 	-4.12900869280297e-24
9.99999999996687e-07 	1.27622539027388 	0 	0.877187786181489 	0.0408337560320588 	-4.88646409469178e-24
9.99999999996687e-07 	1.29025546490642 	3.46944695195361e-18 	0.882592912375132 	0.0414160661047383 	-2.28193082099326e-24
9.99999999996687e-07 	1.30479950225895 	1.04083408558608e-17 	0.888137507719734 	0.041957779837517 	-3.00374652901597e-25
9.99999999996687e-07 	1.31987633029101 	1.38777878078145e-17 	0.893829392941525 	0.0424569180607593 	-3.77363018431388e-24
9.99999999996687e-07 	1.33550546668544 	1.38777878078145e-17 	0.899675819231195 	0.0429117051683026 	-3.46715707855147e-24
9.99999999996687e-07 	1.35170714411495 	1.38777878078145e-17 	0.905683219916862 	0.043320611258884 	1.34383764657055e-23
9.99999999996687e-07 	1.3685023364343 	1.38777878078145e-17 	0.911856911175113 	0.0436823799069828 	2.21847994791225e-23
9.99999999996687e-07 	1.38591278583198 	1.73472347597681e-17 	0.918200749893049 	0.0439960389166523 	9.05202805150694e-24
9.99999999996687e-07 	1.40396103097652 	1.73472347597681e-17 	0.924716759509603 	0.0442608922125819 	0
9.99999999996687e-07 	1.42267043619387 	1.73472347597681e-17 	0.931404738133511 	0.0444764918248694 	0
9.99999999996687e-07 	1.44206522171366 	2.42861286636753e-17 	0.938261867204434 	0.0446425898126965 	6.14417320842951e-24
9.99999999996687e-07 	1.46217049502345 	2.77555756156289e-17 	0.945282342935417 	0.0447590713972198 	1.22904758875009e-23
9.99999999996687e-07 	1.48301228337162 	2.77555756156289e-17 	0.952457055940023 	0.044825872577777 	-7.96804838182845e-24
9.99999999996687e-07 	1.50461756746087 	2.77555756156289e-17 	0.959773345477403 	0.0448428874196203 	-4.32019375517588e-23
9.99999999996687e-07 	1.52701431637603 	2.77555756156289e-17 	0.967214852684952 	0.0448098714555629 	-1.30142512488933e-23
9.99999999996687e-07 	1.55023152379143 	2.77555756156289e-17 	0.974761492197464 	0.0447263480054925 	4.71352928387646e-23
9.99999999996687e-07 	1.57429924550461 	2.77555756156289e-17 	0.982389554635756 	0.0445915237018348 	4.87252421969327e-23
9.99999999996687e-07 	1.59924863834497 	3.12250225675825e-17 	0.99007194470173 	0.0444042184309907 	3.53397314058638e-23
9.99999999996687e-07 	1.62511200050781 	3.12250225675825e-17 	0.997778551842927 	0.0441628137958958 	1.76724307411608e-23
9.99999999996687e-07 	1.65192281336592 	2.77555756156289e-17 	1.00547674298492 	0.0438652235339499 	0
9.99999999996687e-07 	1.67971578481282 	2.42861286636753e-17 	1.01313195971321 	0.0435088891118353 	2.02213852095901e-23
9.99999999996687e-07 	1.70852689419381 	2.08166817117217e-17 	1.02070839540181 	0.043090803450868 	-4.4654930600037e-24
9.99999999996687e-07 	1.73839343888296 	1.73472347597681e-17 	1.02816972167831 	0.0426075648626506 	-6.96319348608206e-23
9.99999999996687e-07 	1.76935408256639 	1.38777878078145e-17 	1.03547983092248 	0.0420554609761189 	-4.494121604354e-23
9.99999999996687e-07 	1.80144890529425 	1.38777878078145e-17 	1.04260356690991 	0.0414305783183417 	-4.7819860734192e-23
9.99999999996687e-07 	1.83471945536633 	1.38777878078145e-17 	1.04950743023439 	0.0407289306202558 	-9.56773650294729e-23
9.99999999996687e-07 	1.86920880311829 	1.38777878078145e-17 	1.05616025947913 	0.0399466031645911 	-4.78483638600479e-23
9.99999999996687e-07 	1.9049615966783 	1.73472347597681e-17 	1.06253389916595 	0.0390799038133227 	0
9.99999999996687e-07 	1.94202411976624 	2.08166817117217e-17 	1.06860391033886 	0.0381253590541404 	0
9.99999999996688e-07 	1.98044435161018 	2.08166817117217e-17 	1.07435026610983 	0.0370799786698715 	0
9.99999999996688e-07 	2.02025965173184 	2.08166817117217e-17 	1.07971438234411 	0.0359522931787853 	0
9.99999999996688e-07 	2.06006301192217 	2.08166817117217e-17 	1.0845717926973 	0.0347762940251121 	0
9.99999999996688e-07 	2.09845978584128 	1.73472347597681e-17 	1.08884657175324 	0.0335906931093722 	0
9.99999999996688e-07 	2.13549967996945 	1.38777878078145e-17 	1.09257633037035 	0.0324137123654099 	0
9.99999999996688e-07 	2.17123064424048 	1.04083408558608e-17 	1.09583168921862 	0.0312520399509872 	0
9.99999999996688e-07 	2.20569893411515 	6.93889390390723e-18 	1.09867005881137 	0.030111054274038 	0
9.99999999996688e-07 	2.23894917046122 	6.93889390390723e-18 	1.10113740089095 	0.028994888813075 	0
9.99999999996688e-07 	2.27102439731725 	0 	1.1032700172734 	0.0279065393058338 	0
9.99999999996688e-07 	2.30196613761521 	-6.93889390390723e-18 	1.1050961869762 	0.026848041333632 	0
9.99999999996688e-07 	2.33181444693391 	-1.04083408558608e-17 	1.10663757025666 	0.0258206445221143 	0
9.99999999996688e-07 	2.3606079653529 	-6.93889390390723e-18 	1.10791036195993 	0.0248249686681223 	0
9.99999999996688e-07 	2.3883839674739 	0 	1.10892620874092 	0.0238611398176805 	0
9.99999999996688e-07 	2.41517841067461 	0 	1.10969291910985 	0.0229289052640006 	0
9.99999999996688e-07 	2.44102598165722 	0 	1.11021500004936 	0.0220277280028452 	0
9.99999999996688e-07 	2.46596014135207 	0 	1.11049405366363 	0.0211568625193462 	0
9.99999999996688e-07 	2.49001316823443 	0 	1.11052906480593 	0.0203154143664524 	0
9.99999999996688e-07 	2.51321620011054 	0 	1.11031660759612 	0.0195023861120271 	0
9.99999999996688e-07 	2.535599274427 	0 	1.10985099608624 	0.0187167121126014 	0
9.99999999996688e-07 	2.55719136715571 	0 	1.10912440245051 	0.0179572843354436 	0
9.99999999996688e-07 	2.57802043030465 	0 	1.10812696500711 	0.0172229711668523 	0
9.99999999996688e-07 	2.59811342810315 	3.46944695195361e-18 	1.10684690790394 	0.0165126308570005 	0
9.99999999996688e-07 	2.61749637190832 	3.46944695195361e-18 	1.10527069396511 	0.0158251209841477 	0
9.99999999996688e-07 	2.63619435387806 	0 	1.10338323132703 	0.015159305083477 	0
9.99999999996688e-07 	2.65423157945406 	0 	1.10116815224522 	0.0145140573787498 	0
9.99999999996688e-07 	2.67163139869691 	3.46944695195361e-18 	1.09860817790688 	0.0138882663732781 	0
9.99999999996688e-07 	2.68841633651388 	6.93889390390723e-18 	1.09568557546306 	0.0132808378926931 	0
9.99999999996688e-07 	2.7046081218185 	6.93889390390723e-18 	1.09238270246966 	0.0126906980184096 	0
9.99999999996688e-07 	2.72022771565972 	6.93889390390723e-18 	1.08868261996907 	0.0121167962038147 	0
9.99999999996688e-07 	2.73529533835694 	6.93889390390723e-18 	1.08456974008153 	0.0115581087275052 	0
9.99999999996688e-07 	2.74983049567625 	3.46944695195361e-18 	1.08003045976994 	0.0110136425199067 	0
9.99999999996688e-07 	2.76385200408156 	0 	1.07505372253345 	0.0104824393203941 	0
9.99999999996688e-07 	2.77737801509343 	0 	1.06963144700476 	0.00996358010748534 	0
9.99999999996688e-07 	2.79042603878708 	0 	1.06375876719953 	0.00945618982194851 	0
9.99999999996688e-07 	2.80301296646003 	-3.46944695195361e-18 	1.05743404266264 	0.00895944258791017 	0
9.99999999996688e-07 	2.81515509249872 	-3.46944695195361e-18 	1.05065861475864 	0.00847256791393809 	0
9.99999999996688e-07 	2.82686813547237 	-3.46944695195361e-18 	1.04343630308975 	0.00799485864868718 	0
9.99999999996688e-07 	2.83816725848142 	-3.46944695195361e-18 	1.03577264880209 	0.00752568162473877 	0
9.99999999996688e-07 	2.84906708878691 	-3.46944695195361e-18 	1.02767391651755 	0.00706449175996697 	0
9.99999999996688e-07 	2.85958173674616 	-1.04083408558608e-17 	1.01914586380614 	0.00661084977037602 	0
9.99999999996688e-07 	2.86972481407933 	-1.04083408558608e-17 	1.01019227873354 	0.00616444264499254 	0
9.99999999996688e-07 	2.87950945149043 	-1.04083408558608e-17 	1.00081327439022 	0.00572510512185623 	0
9.99999999996688e-07 	2.88894831566566 	-1.38777878078145e-17 	0.991003314795317 	0.00529284006897941 	0
9.99999999996689e-07 	2.89805362567106 	-1.38777878078145e-17 	0.980748928840718 	0.00486783580015038 	0
9.99999999996689e-07 	2.90683716877067 	-1.38777878078145e-17 	0.970026047447221 	0.00445047877899976 	0
9.99999999996688e-07 	2.91531031568569 	-1.38777878078145e-17 	0.958796867013006 	0.00404136094369365 	0
9.99999999996688e-07 	2.92348403531448 	-1.73472347597681e-17 	0.947006087800121 	0.003641282013387 	0
9.99999999996688e-07 	2.93136890893229 	-2.08166817117217e-17 	0.934576292938831 	0.00325124839848636 	0
9.99999999996688e-07 	2.93897514388925 	-2.42861286636753e-17 	0.921402119022708 	0.0028724716313868 	0
9.99999999996688e-07 	2.94631258682425 	-2.77555756156289e-17 	0.907342715375345 	0.00250637026580166 	0
9.99999999996688e-07 	2.95339073641193 	-2.08166817117217e-17 	0.8922117869143 	0.00215457287129634 	0
9.99999999996688e-07 	2.96021875565915 	-1.38777878078145e-17 	0.875764256427859 	0.00181889120626531 	0
9.99999999996688e-07 	2.96680548376697 	-1.38777878078145e-17 	0.857678261939747 	0.00150123191964186 	0
9.99999999996688e-07 	2.97315944757337 	-1.38777878078145e-17 	0.837528443764735 	0.00120399855944971 	0
9.99999999996688e-07 	2.97928887259171 	-2.08166817117217e-17 	0.814712482125733 	0.000930485885789956 	0
9.99999999996688e-07 	2.98520169365902 	-2.42861286636753e-17 	0.788342789316544 	0.000684559589561641 	0
9.99999999996688e-07 	2.99090556520806 	-2.08166817117217e-17 	0.757234882799944 	0.000470667865443682 	0
9.99999999996688e-07 	2.99640787117633 	-2.08166817117217e-17 	0.719966779903872 	0.000293157874135799 	0
9.99999999996688e-07 	3.00171573456492 	-2.08166817117217e-17 	0.674869986072251 	0.000154638581525331 	0
9.99999999996688e-07 	3.00683602665962 	-2.08166817117217e-17 	0.620005225613797 	5.50976390672643e-05 	0
9.99999999996688e-07 	3.01177537592612 	-2.42861286636753e-17 	0.553161522784305 	-8.14453592475785e-06 	0
9.99999999996688e-07 	3.01654017659085 	-2.77555756156289e-17 	0.472441593790172 	-3.98963575118928e-05 	0
9.99999999996688e-07 	3.02113659691864 	-2.77555756156289e-17 	0.378246533627852 	-4.65519132476963e-05 	0
9.99999999996688e-07 	3.02557058719784 	-2.42861286636753e-17 	0.274432723309198 	-3.63817264296269e-05 	0
9.99999999996688e-07 	3.02984788744324 	-2.08166817117217e-17 	0.1659815188068 	-1.94034611823294e-05 	0
