5 	0.00273779077457385 	-3.12250225675825e-17 	-0.0294384385463589 	-5.48540558563059e-05 	3.27522535385077e-22
5 	0.00831366561724395 	-2.94902990916057e-17 	-0.0801025636230241 	-0.000179742112577524 	-4.94968993941452e-22
5 	0.0140938010840031 	-2.60208521396521e-17 	-0.118359720859689 	-0.00047128294328644 	-2.2722258618227e-21
5 	0.0200856798396764 	-2.25514051876985e-17 	-0.141093458378163 	-0.000931856828357903 	-4.34616591930127e-21
5 	0.0262970586610137 	-2.94902990916057e-17 	-0.150206593485311 	-0.00148519965897891 	-5.78710850727746e-22
5 	0.0327359784782122 	-3.81639164714898e-17 	-0.152065182285052 	-0.00208446857117458 	3.39436827595893e-17
5 	0.0394107747842906 	-4.16333634234434e-17 	-0.150923142886921 	-0.0027253206422011 	4.25298363323569e-17
5 	0.0463300884257855 	-3.46944695195361e-17 	-0.148516078928293 	-0.00340681820090724 	-2.88084954342909e-17
5 	0.0535028767887471 	-2.60208521396521e-17 	-0.14548384561291 	-0.00412509825739021 	-3.95898872603554e-17
5 	0.0609384253945081 	-1.73472347597681e-17 	-0.142080479340615 	-0.00487731088325799 	8.10769200487214e-18
5 	0.0686463599202388 	-1.21430643318376e-17 	-0.13841611349679 	-0.00566223298629333 	1.0314082782966e-17
5 	0.0766366586598531 	-2.08166817117217e-17 	-0.134540497871688 	-0.00647954013262614 	4.52898205456501e-22
5 	0.0849196654413917 	-2.77555756156289e-17 	-0.130475024879083 	-0.0073293250482734 	4.51013121389419e-22
5 	0.0935061030176072 	-2.60208521396521e-17 	-0.126226371409965 	-0.00821190786133725 	7.74611608840043e-23
5 	0.102407086947087 	-2.42861286636753e-17 	-0.121792833268668 	-0.00912775605911282 	-2.80479392905395e-23
5 	0.11163413998388 	-2.60208521396521e-17 	-0.117167465299313 	-0.0100774378355744 	-7.67220974594445e-22
5 	0.121199206994262 	-2.08166817117217e-17 	-0.112339708090821 	-0.0110615904610065 	-1.20134492752322e-22
5 	0.131114670419936 	-1.21430643318376e-17 	-0.107296246585524 	-0.0120808978590586 	-6.28553400944436e-22
5 	0.141393366307709 	-2.25514051876985e-17 	-0.102021454401793 	-0.0131360736351228 	1.18021785627778e-21
5 	0.152048600926373 	-3.46944695195361e-17 	-0.0964976016248438 	-0.0142278470720561 	1.46831476837822e-22
5 	0.163094167992309 	-3.81639164714898e-17 	-0.0907049196542544 	-0.0153569505837764 	5.16715400449282e-22
5 	0.174544366526125 	-5.03069808033274e-17 	-0.0846215743023756 	-0.0165241076618316 	-5.44832557517451e-22
5 	0.186414019363427 	-5.72458747072346e-17 	-0.078223576011505 	-0.017730020622529 	-1.70614480285684e-24
5 	0.198718492343699 	-5.20417042793042e-17 	-0.0714846438545451 	-0.0189753576020008 	1.90499555028424e-25
5 	0.211473714202121 	-4.85722573273506e-17 	-0.0643760331185901 	-0.0202607383155936 	1.1241069688784e-22
5 	0.224696197190089 	-5.03069808033274e-17 	-0.0568663323432341 	-0.0215867181218492 	1.1779824977227e-21
5 	0.238403058451124 	-4.85722573273506e-17 	-0.0489212334495781 	-0.0229537699236959 	1.07905412535989e-22
5 	0.25261204217984 	-4.16333634234434e-17 	-0.0405032773895484 	-0.0243622634065413 	-3.32896257510712e-23
5 	0.267341542592663 	-3.98986399474666e-17 	-0.0315715772130054 	-0.0258124410487544 	9.2015578221297e-22
5 	0.282610627740031 	-4.33680868994202e-17 	-0.0220815204051657 	-0.027304390237926 	-4.72760842391585e-26
5 	0.298439064190913 	-4.85722573273506e-17 	-0.011984452698842 	-0.0288380107842091 	-1.27094412214191e-22
5 	0.31484734262158 	-5.55111512312578e-17 	-0.00122734691518131 	-0.0304129775546228 	-1.25933867285299e-21
5 	0.331856704341784 	-5.55111512312578e-17 	0.0102475273861709 	-0.0320286938134942 	9.1962668891285e-22
5 	0.349489168792654 	-5.3776427755281e-17 	0.0225029285854662 	-0.0336842372889887 	9.2233948023084e-22
5 	0.367767562051934 	-5.20417042793042e-17 	0.0356069907990418 	-0.0353782960254556 	-2.4077591154683e-21
5 	0.386715546383437 	-4.5102810375397e-17 	0.0496335658632387 	-0.0371091008207706 	-2.2797397593747e-22
5 	0.406357650868994 	-4.16333634234434e-17 	0.0646625245121473 	-0.0388743422593562 	-3.74033758464226e-22
5 	0.426719303162537 	-3.98986399474666e-17 	0.0807800086010499 	-0.0406710753501829 	-2.7064722875702e-21
5 	0.447826862407422 	-3.98986399474666e-17 	0.0980786105255167 	-0.0424955932324905 	-1.027527120989e-22
5 	0.46970765335962 	-4.0766001685455e-17 	0.116657445918339 	-0.0443432347116207 	1.0033411897041e-22
5 	0.49239000176093 	-3.46944695195361e-17 	0.136622077328495 	-0.0462082677521311 	2.81077184096702e-21
5 	0.515903271008024 	-2.77555756156289e-17 	0.158084253000949 	-0.0480845784616866 	2.81956749067089e-21
5 	0.540277900164783 	-2.68882138776405e-17 	0.181161622435827 	-0.0499667072178096 	-2.84974930134285e-21
5 	0.565545443367137 	-2.77555756156289e-17 	0.205993140546602 	-0.0518402371106048 	1.35204367984008e-24
5 	0.59173861067142 	-2.60208521396521e-17 	0.232977884676346 	-0.0536764445091167 	-6.3744182830289e-21
5 	0.618891310399116 	-2.64545330086463e-17 	0.262778889416745 	-0.0554559288656649 	7.05228687638037e-21
5 	0.647038693032828 	-2.38524477946811e-17 	0.295823969524735 	-0.0571318444330357 	1.49969494940542e-20
5 	0.676217196720269 	-2.12503625807159e-17 	0.332111727053208 	-0.0586711694313999 	-4.05405734444372e-22
5 	0.706464594445211 	-2.34187669256869e-17 	0.371417087754199 	-0.0600566673046804 	-1.13985919559215e-22
5 	0.737820042926438 	-3.14418630020796e-17 	0.413476223986684 	-0.0612720471396922 	1.01493318967776e-22
5 	0.770324133308009 	-3.88144377749811e-17 	0.458076414466086 	-0.0622962812482986 	9.73400739716408e-21
5 	0.804018943706461 	-4.27175655959289e-17 	0.505051882003747 	-0.0631041056768434 	-6.61355725689082e-23
5 	0.838948093682961 	-5.53756259596971e-17 	0.554228164040839 	-0.0636689560334609 	-7.8824833620765e-25
5 	0.87515680071094 	-6.29650411670957e-17 	0.605363047922364 	-0.0639656830303284 	-2.82676423591994e-23
5 	0.912691938712296 	-6.93889390390723e-17 	0.658108015726946 	-0.0639708132647371 	-2.1064897413286e-20
5 	0.951602098737956 	-7.63278329429795e-17 	0.711968695167976 	-0.0636716850127108 	-4.12703581870861e-22
5 	0.991937651871333 	-7.28583859910259e-17 	0.766376343169653 	-0.0630546841501548 	-2.07291794943395e-22
5 	1.03375081443614 	-6.93889390390723e-17 	0.820738385568962 	-0.0620997477575941 	1.93418510045666e-20
5 	1.07709571559294 	-6.93889390390723e-17 	0.874286805525503 	-0.0607770716813907 	-7.17224787409379e-22
5 	1.12202846741195 	-7.28583859910259e-17 	0.925796238636316 	-0.0590616047856905 	-1.88041921109295e-20
5 	1.16860723751286 	-6.93889390390723e-17 	0.973817412112297 	-0.056957143375759 	1.61786784997839e-20
5 	1.2168923243656 	-6.24500451351651e-17 	1.01741533813158 	-0.0545125363339747 	3.09137698581216e-20
5 	1.26694623534961 	-6.24500451351651e-17 	1.05684275056237 	-0.0517511492014578 	6.60986262111894e-24
5 	1.31883376767273 	-6.93889390390723e-17 	1.09266970116224 	-0.0486890501375064 	-5.52961858862112e-24
5 	1.37262209225426 	-7.28583859910259e-17 	1.12419504575643 	-0.045452927989263 	2.38786900059824e-20
5 	1.41220272459524 	-6.59194920871187e-17 	1.14457854516504 	-0.0429582108488335 	5.85222706154512e-24
5 	1.43617694926586 	-6.24500451351651e-17 	1.15651101142849 	-0.0413703839234178 	0
5 	1.45930396367274 	-6.59194920871187e-17 	1.16663075136072 	-0.0399045362197757 	0
5 	1.48161370685419 	-6.93889390390723e-17 	1.1756748168494 	-0.0384875926705798 	0
5 	1.50313505985141 	-6.59194920871187e-17 	1.18375683545101 	-0.0371205321798792 	0
5 	1.52389588309638 	-5.89805981832114e-17 	1.19097553257689 	-0.0358021869597438 	0
5 	1.54392305247857 	-6.24500451351651e-17 	1.19741598712512 	-0.0345307741662371 	0
5 	1.56324249413703 	-6.59194920871187e-17 	1.20315100806117 	-0.0333043124931907 	0
5 	1.58187921802306 	-6.24500451351651e-17 	1.20824250316999 	-0.0321206996886172 	0
5 	1.59985735027679 	-6.24500451351651e-17 	1.21274274891744 	-0.0309777805373138 	0
5 	1.61720016445966 	-5.89805981832114e-17 	1.21669551483674 	-0.0298734056302793 	0
5 	1.63393011168312 	-5.55111512312578e-17 	1.22013702536554 	-0.0288054683084458 	0
5 	1.65006884967273 	-5.55111512312578e-17 	1.22309675844162 	-0.0277719246824942 	0
5 	1.66563727080512 	-5.20417042793042e-17 	1.22559808862932 	-0.0267708028867899 	0
5 	1.68065552915414 	-5.20417042793042e-17 	1.22765878631786 	-0.0258002054082557 	0
5 	1.69514306658136 	-4.5102810375397e-17 	1.22929138558146 	-0.0248583069767694 	0
5 	1.70911863790442 	-2.77555756156289e-17 	1.23050343296042 	-0.0239433497853836 	0
5 	1.7226003351761 	-2.42861286636753e-17 	1.23129762863859 	-0.0230536373227107 	0
5 	1.73560561110536 	-2.77555756156289e-17 	1.23167187092273 	-0.0221875277664891 	0
5 	1.74815130165068 	-2.42861286636753e-17 	1.23161921509796 	-0.021343427685479 	0
5 	1.76025364781502 	-2.08166817117217e-17 	1.23112775911466 	-0.0205197867004633 	0
5 	1.77192831667064 	-1.73472347597681e-17 	1.23018047162245 	-0.0197150937403742 	0
5 	1.78319042164083 	-1.38777878078145e-17 	1.2287549830656 	-0.0189278755763791 	0
5 	1.79405454206499 	-1.73472347597681e-17 	1.22682336828163 	-0.0181566984043337 	0
5 	1.80453474207227 	-2.77555756156289e-17 	1.22435195946402 	-0.0174001733468639 	0
5 	1.81464458878828 	-3.46944695195361e-17 	1.22130124113162 	-0.016656966820078 	0
5 	1.8243971698984 	-3.81639164714898e-17 	1.21762589266839 	-0.0159258166976379 	0
5 	1.83380511059041 	-4.16333634234434e-17 	1.21327505647196 	-0.0152055550273533 	0
5 	1.84288058989839 	-3.81639164714898e-17 	1.20819291644863 	-0.0144951376197345 	0
5 	1.85163535646909 	-3.46944695195361e-17 	1.20231966647457 	-0.0137936800515283 	0
5 	1.86008074377113 	-3.46944695195361e-17 	1.19559292468312 	-0.0131004984828193 	0
5 	1.8682276847667 	-3.81639164714898e-17 	1.18794960163342 	-0.0124151522464943 	0
5 	1.8760867260648 	-4.5102810375397e-17 	1.17932815803595 	-0.0117374836101623 	0
5 	1.88366804157438 	-4.5102810375397e-17 	1.16967109868796 	-0.0110676488225363 	0
5 	1.8909814456749 	-3.81639164714898e-17 	1.15892746159958 	-0.0104061348819262 	0
5 	1.89803640592158 	-3.12250225675825e-17 	1.14705500017287 	-0.0097537605742462 	0
5 	1.90484205530155 	-2.77555756156289e-17 	1.13402174605575 	-0.00911166051224478 	0
5 	1.91140720405698 	-2.77555756156289e-17 	1.11980669340177 	-0.00848121127256626 	0
5 	1.91774035109035 	-2.77555756156289e-17 	1.10439945153713 	-0.00786382066721678 	0
5 	1.9238496949667 	-3.12250225675825e-17 	1.0877984491781 	-0.00726096173202174 	0
5 	1.92974314452705 	-4.16333634234434e-17 	1.069993208098 	-0.00667602743564904 	0
5 	1.9354283291268 	-4.5102810375397e-17 	1.05082940700481 	-0.00610884552622059 	0
5 	1.9409126085123 	-4.5102810375397e-17 	1.03012729964711 	-0.00555906484493692 	0
5 	1.94620308234835 	-4.5102810375397e-17 	1.00791293168021 	-0.00503047401047691 	0
5 	1.95130659940914 	-4.5102810375397e-17 	0.984306337292438 	-0.00452590987966148 	0
5 	1.95622976644424 	-5.20417042793042e-17 	0.959428978809696 	-0.00404744530921418 	0
5 	1.96097895673142 	-5.55111512312578e-17 	0.933360673427478 	-0.00359665756547252 	0
5 	1.96556031832711 	-5.55111512312578e-17 	0.906124473087848 	-0.00317458279483305 	0
5 	1.96997978202541 	-5.55111512312578e-17 	0.87768300583227 	-0.00278174348403113 	0
5 	1.97424306903575 	-5.20417042793042e-17 	0.847936989868906 	-0.00241824593857166 	0
5 	1.9783556983893 	-5.20417042793042e-17 	0.816721483549225 	-0.00208387511744409 	0
5 	1.98232299408358 	-4.85722573273506e-17 	0.783798207766674 	-0.00177816340281456 	0
5 	1.98615009197469 	-4.16333634234434e-17 	0.748843806197015 	-0.00150043965762786 	0
5 	1.98984194642589 	-4.85722573273506e-17 	0.711433729652495 	-0.00124987864431351 	0
5 	1.99340333672126 	-4.85722573273506e-17 	0.671018779234103 	-0.00102559726036986 	0
5 	1.99683887325273 	-4.85722573273506e-17 	0.626875726698157 	-0.000826656711846597 	0
5 	2.00015300348844 	-5.55111512312578e-17 	0.577963043147679 	-0.000650992898355068 	0
5 	2.00335001773022 	-5.55111512312578e-17 	0.522963875136581 	-0.000496876338517032 	0
5 	2.00643405466757 	-5.55111512312578e-17 	0.460755728823072 	-0.000362824827865976 	0
5 	2.00940910673542 	-5.55111512312578e-17 	0.391247598711626 	-0.000249196090605024 	0
5 	2.01227902528252 	-4.85722573273506e-17 	0.316472632069547 	-0.000157456607982902 	0
5 	2.01504752555717 	-4.16333634234434e-17 	0.240390782324698 	-8.86380435351839e-05 	0
5 	2.01771819151684 	-4.85722573273506e-17 	0.166626545014558 	-4.16451470576539e-05 	0
5 	2.02029448046774 	-5.55111512312578e-17 	0.0968956582168322 	-1.37623025079347e-05 	0
5 	2.02277972754047 	-5.3776427755281e-17 	0.0314118875610786 	-1.43337890166302e-06 	0
