/*--------------------------------*- C++ -*----------------------------------*\
  =========                 |
  \\      /  F ield         | OpenFOAM: The Open Source CFD Toolbox
   \\    /   O peration     | Website:  https://openfoam.org
    \\  /    A nd           | Version:  7
     \\/     M anipulation  |
\*---------------------------------------------------------------------------*/
FoamFile
{
    version     2.0;
    format      ascii;
    class       volTensorField;
    location    "20000";
    object      gradU;
}
// * * * * * * * * * * * * * * * * * * * * * * * * * * * * * * * * * * * * * //

dimensions      [0 0 -1 0 0 0 0];

internalField   nonuniform List<tensor> 
15600
(
(0.0333883573868024 -0.00197179348493539 2.72028335555329e-23 12.884096819155 -0.0317113758008117 9.75993562622445e-26 0 0 0)
(0.229349509169559 -0.011030350332651 -5.14984027266287e-19 14.8678117545297 -0.242112603875296 -2.35385260853473e-18 -8.67584618733987e-22 3.92190249109451e-23 2.01414668542557e-39)
(0.838109864711808 -0.0692071956814335 -1.22872323132782e-18 11.3900992469541 -0.82790544288875 -1.47289959306521e-17 8.66062099129927e-22 -3.91501996540311e-23 -2.01061207018713e-39)
(0.283332811385282 -0.0381335580501846 4.77070353584207e-19 2.22617343829712 -0.316680954763729 5.70251114378024e-23 0 0 0)
(-1.49785526167504 0.491859583284283 0 -4.47471634136429 1.45571860098086 0 0 0 0)
(-2.24463449950541 0.956158363907665 -1.85609813250659e-22 -5.23359080926956 2.20798181152706 -5.38470957047101e-25 0 0 0)
(-1.95033030897863 0.970804318777096 -2.0768800107304e-21 -3.90065141610685 1.92942772702688 -4.49448182285163e-21 -2.96452075414414e-22 1.50140456859884e-22 2.43161297501008e-44)
(-1.71557035188773 0.928216269230814 8.20827582048007e-22 -3.14220506089395 1.69510438325078 4.43563916130294e-21 2.86599997955798e-22 -1.45150795685856e-22 -2.35080247858941e-44)
(-1.40090372988406 0.786864162147378 9.99476927327706e-21 -2.47553301760093 1.38897586271931 1.82044342214176e-20 -1.56316228687004e-21 8.63833750394142e-22 -4.90918772819386e-41)
(-1.19052504647549 0.664147191194991 -1.6695567647866e-17 -2.11561344850377 1.18084538229398 5.14134319392409e-19 1.43294496477424e-22 -8.83006935264245e-23 -4.190127683257e-37)
(-1.01884788427692 0.554403627612987 6.65297719678651e-17 -1.86018646308775 1.01333588634641 1.56242516241693e-16 -1.92330108556664e-17 1.04769448446969e-17 1.60733521348471e-33)
(-0.931644051859588 0.495471845895258 -1.61828486033988e-16 -1.74150134210669 0.927088800425346 -3.31430728032486e-16 0 0 0)
(-0.86813322489265 0.453950414736258 2.77372927339079e-16 -1.65356553512282 0.865283930573205 4.96326635969656e-16 0 0 0)
(-0.845704006526357 0.437406527207521 2.59573909519607e-16 -1.6305740078755 0.843740018048818 5.02629201159502e-16 0 0 0)
(-0.857313120659621 0.441069016484452 6.50494384695207e-20 -1.6635073388828 0.856293101216613 1.67846658375147e-19 4.37880942119949e-21 -2.22857937207262e-21 8.99050125669352e-40)
(-0.891408515151048 0.45334647517155 -2.58214268305438e-16 -1.74895480628448 0.89071760289974 -5.10685566166487e-16 1.77635261541389e-17 -9.04637981755078e-18 5.18764842186309e-33)
(-0.927987566979919 0.457282048440997 -2.52296976711417e-16 -1.8772627778234 0.927781783059046 -5.152968562962e-16 4.45087281653172e-21 -2.21775715149041e-21 8.03940855331368e-40)
(-0.961099733505674 0.447903571962331 -1.03180830178182e-20 -2.05207931402542 0.961108028924438 6.60805934535032e-22 0 0 0)
(-0.969983037225331 0.415172425385347 1.7781610595386e-16 -2.24894180218397 0.970189263352842 5.33607002857581e-16 0 0 0)
(-0.943151593092267 0.357383139865314 1.2356617069725e-16 -2.46107665943143 0.943852966863689 3.32074182142647e-16 -2.38563702081366e-17 9.14660493538724e-18 3.22052342520736e-33)
(-0.888289582725568 0.286898774207769 3.40997628811827e-17 -2.70651853939563 0.889772941755879 -3.08966376009431e-18 -6.0220967574336e-21 2.11822326284188e-21 -3.39492908874534e-36)
(-0.806529728174239 0.213512254348646 9.66899463695456e-17 -2.9740083054173 0.808485384234016 3.63453917424318e-16 -1.39396865793471e-17 3.78817902135957e-18 1.70662195096447e-33)
(-0.688305444808913 0.140606026159298 -1.38339169265686e-17 -3.23542427806718 0.690784100249116 1.23451828103965e-18 -2.95810492568885e-20 6.17425286144326e-21 -5.36687523089031e-36)
(-0.53246336974743 0.0750864521794205 -6.16328922211526e-17 -3.4873030825554 0.536680407933402 -4.07588402223066e-16 -1.59670393655222e-17 2.45480777546446e-18 -1.86412185998032e-33)
(-0.341564403622882 0.0244616831287981 2.43868334222167e-17 -3.67948416452199 0.344502179395007 -1.58234976902177e-18 0 0 0)
(-0.142076053699219 -0.000953015475878787 -1.62450983899086e-15 -4.09991670136712 0.147367375841852 7.28753235366743e-17 0 0 0)
(-0.0311042050903299 -0.00186811400923217 -1.66445082832598e-15 -4.96099294259743 0.0380640707442134 9.7906648201591e-15 -2.72736445264208e-15 2.08805868132019e-17 5.44698698064539e-30)
(-0.0250110592075272 -1.93794292117806e-05 1.6235298455864e-15 -5.75016721412953 0.0293327002557043 9.05556745331546e-15 -3.1735490619914e-15 1.61753529235326e-17 4.93508081052748e-30)
(-0.0171862896103892 -2.97381209749988e-06 1.66661435994784e-15 -6.25374800830678 0.0221926835099062 -9.62519005937512e-17 0 0 0)
(-0.0128672855391743 -8.9122458109675e-07 5.34355653060709e-34 -6.63071031189709 0.017704993413081 2.92508151987885e-19 0 0 0)
(-0.00940349632524804 -1.42654252988129e-06 -1.96211196446409e-15 -6.89896936367655 0.0143611596848679 1.02076224220858e-16 0 0 0)
(-0.00673521999983649 -4.89561001123759e-06 -2.05657041701595e-15 -7.0887288479106 0.01171364824797 1.09306999419863e-14 -4.05068506465492e-15 6.68717540415632e-18 6.31596277273849e-30)
(-0.00445565776053484 -8.85546280338044e-06 1.96209578713534e-15 -7.21161616388919 0.00945810699387639 1.06142429476181e-14 -4.13546130182925e-15 5.43109125404536e-18 6.01917784030417e-30)
(-0.00245078478949813 -1.34597254812947e-05 2.0565704170161e-15 -7.2770716676943 0.00744092852999847 -1.00201763563299e-16 -1.73696259181883e-20 4.08414614254273e-23 -1.39185857709693e-34)
(-0.000623944041344934 -1.80890966129659e-05 1.61773285325299e-20 -7.29056031138453 0.00556220866990027 -7.54541214223199e-22 0 0 0)
(0.00105346954391066 -2.23070993093368e-05 0 -7.25664121234428 0.003800665626107 0 0 0 0)
(0.00260097323608624 -2.59960856765307e-05 -1.99222930965148e-20 -7.17923574111574 0.00213589640540906 8.21996511583646e-22 0 0 0)
(0.00402836942274606 -2.91306167990709e-05 2.52433371207942e-15 -7.06184176712892 0.000565528403066102 -9.99361418821829e-17 -1.70577596256247e-20 3.34657253286384e-23 1.7084074209468e-34)
(0.00533884939425188 -3.17136449869732e-05 2.63854049585976e-15 -6.90782373950699 -0.000914525780388723 -1.3817724721046e-14 3.79919784954941e-15 5.14403664111291e-19 7.66505154710524e-30)
(0.00653237560850345 -3.37201465625797e-05 -2.52431134344645e-15 -6.72045877596157 -0.00229774840986272 -1.37648705540551e-14 3.70619982655736e-15 1.25707241088971e-18 7.5293043507826e-30)
(0.00760499806203759 -3.51029242782348e-05 -2.63851977111427e-15 -6.50307287064643 -0.00358051621773792 9.50310423516465e-17 1.5739646000031e-20 -2.66615921779678e-23 -1.5681748619207e-39)
(0.00854938054782346 -3.57783985608827e-05 -4.55802049975897e-20 -6.25910355390044 -0.0047486387386105 -9.43732118664514e-19 -5.78605767297728e-22 2.42141376632082e-24 3.0847813287409e-39)
(0.00936287253354132 -3.58939997027751e-05 -8.02452466004496e-22 -5.99216578661314 -0.00579541382625016 1.27581165997856e-19 -1.51610402327334e-20 2.42401784116472e-23 -1.51660646682016e-39)
(0.0100505425164494 -3.55530523994494e-05 2.32115720409559e-20 -5.70573590246801 -0.00672336977158548 -7.07874535134579e-22 0 0 0)
(0.0106187054356514 -3.48248800682148e-05 0 -5.4031099773812 -0.0075347825613732 0 0 0 0)
(0.0110740400067597 -3.3763785631021e-05 -3.46301149054022e-15 -5.08739700036222 -0.00823458779571837 8.72538489029354e-17 0 0 0)
(0.0114235838032644 -3.24304993236732e-05 -3.57235717258424e-15 -4.7615138253726 -0.00882610639888125 2.03210440690368e-14 -2.72314200640039e-15 -5.05571631523115e-18 1.16826856727438e-29)
(0.0116748966399284 -3.08793827209065e-05 3.46301149053988e-15 -4.42817602740341 -0.00931602647027318 2.06197948515954e-14 -2.53691600388955e-15 -5.33113454624244e-18 1.1760020818173e-29)
(0.0118367954616809 -2.91920827873883e-05 3.57235717258452e-15 -4.08988165053822 -0.00970958021272027 -7.62930375540348e-17 0 0 0)
(0.0119185523333615 -2.74213365012431e-05 -5.70902570942773e-34 -3.74887120531709 -0.0100166463284212 -3.10053321913076e-19 0 0 0)
(0.0119247080808432 -2.55109951087912e-05 0 -3.40716922395357 -0.0102401280101452 0 0 0 0)
(0.0118593432592 -2.35449724063632e-05 -3.86524455011739e-15 -3.06677379171438 -0.0103814223482479 5.54714830181391e-17 0 0 0)
(0.0117307522478287 -2.1587338609417e-05 -3.95066521307781e-15 -2.72946956929809 -0.0104500947755216 2.46374981116823e-14 -1.50243600848603e-15 -5.75603620073728e-18 1.36002116175588e-29)
(0.0115485917856113 -1.96966804522863e-05 3.86524455011719e-15 -2.39680741903258 -0.0104530242841 2.51806185531492e-14 -1.3206278127656e-15 -5.75721487926304e-18 1.3845478499117e-29)
(0.0113225825959213 -1.78944477152299e-05 3.95066521307771e-15 -2.07006237936141 -0.0104024877333332 -4.26999963986589e-17 0 0 0)
(0.0110615269834322 -1.62022712899452e-05 0 -1.75027862021155 -0.0103045832294626 9.20253140958493e-20 0 0 0)
(0.0107759113481487 -1.46635065919361e-05 2.14159321321732e-21 -1.43826654379712 -0.0101719041525669 1.42073453282196e-21 0 0 0)
(0.0104688721376407 -1.31324634833193e-05 -2.14416803892473e-21 -1.13453799521108 -0.0100082439321236 -6.1149596625067e-20 1.91887181128434e-22 2.28510576554013e-25 1.08912057718999e-44)
(0.0101385766244337 -1.167560123216e-05 -2.14159321321738e-21 -0.839762658795984 -0.00980977666902718 -3.33824956205844e-20 -1.91887181128456e-22 -2.28510576554039e-25 -1.08912057719012e-44)
(0.00978740707855902 -1.03974347468858e-05 2.14416803892488e-21 -0.554540706751542 -0.00958561349200516 -3.84646363858382e-24 0 0 0)
(0.0094197223406739 -9.32657831198248e-06 -2.26264671967801e-21 -0.279404273178861 -0.00934010000802829 -4.05900478986056e-24 0 0 0)
(0.00904429138424218 -8.4085280860555e-06 2.26457177939464e-21 -0.0147100236327446 -0.00908258755706607 -3.52270704196509e-20 -2.9502068881958e-23 -3.96894272863616e-25 8.14277309523655e-45)
(0.00866515274252246 -7.45153136890274e-06 2.26264671967753e-21 0.239470148996481 -0.0088128673978303 -6.81092513275211e-20 2.9502068881956e-23 3.96894272863589e-25 -8.142773095236e-45)
(0.0082814905470359 -6.51314706431674e-06 -2.26457177939462e-21 0.48298080132988 -0.0085287494561251 -1.09099712674742e-21 0 0 0)
(0.00789423646542452 -5.68313573249272e-06 0 0.715706054198792 -0.00823309767098419 -1.05784568699456e-19 0 0 0)
(0.00750558402704385 -4.98618597220234e-06 0 0.937541338307534 -0.00792758989832873 -1.98020619760492e-21 0 0 0)
(0.00711846631864776 -4.39259636248985e-06 1.91946934450901e-34 1.14849244144261 -0.00761803285491491 2.10144845495247e-19 0 0 0)
(0.00673330730195225 -3.87401637284591e-06 1.92843284474584e-20 1.34861003728083 -0.0073035095305414 2.76756175224502e-22 0 0 0)
(0.00634951324524329 -3.43921258456892e-06 -1.9271425150775e-20 1.53792323007287 -0.00698564429099982 2.99995164337607e-19 -1.54214921272766e-21 4.40485921679285e-24 -4.36635253006081e-43)
(0.00596756239100453 -3.09214647955018e-06 -1.92843284474591e-20 1.71645152490989 -0.00666425310440371 -3.00416720079716e-19 1.54214921272776e-21 -4.40485921679314e-24 4.36635253006109e-43)
(0.00558849901194099 -2.82676512365122e-06 1.92714251507773e-20 1.88424807767573 -0.00634244517450404 -4.33146085588899e-19 0 0 0)
(0.00521188542467685 -2.61647873844887e-06 4.9257162649606e-15 2.04138769143125 -0.00601927769601395 1.06468580271882e-16 0 0 0)
(0.00483623985007679 -2.47038231777172e-06 9.90136021905436e-15 2.18790210669429 -0.00569445864665541 -3.15525679441037e-14 -1.2057784886884e-15 3.13800457902916e-18 1.73203503844547e-29)
(0.00446080184778875 -2.39298724589808e-06 4.80791970374218e-17 2.32378783034763 -0.00536737649932539 -6.42436281616491e-14 -2.55963988075733e-15 5.91225969437398e-18 7.07826449348864e-29)
(0.00408535568831213 -2.38020506851646e-06 -9.90136021905487e-15 2.44903177688834 -0.00503890274206494 -3.27757026324052e-14 -1.34774342087326e-15 2.77313897645911e-18 1.81255473026114e-29)
(0.00370852536011062 -2.40841807194264e-06 -4.97379546199845e-15 2.56361533538199 -0.00470792941727902 -1.33838787682808e-16 0 0 0)
(0.00332741174696832 -2.4837579381914e-06 0 2.66745141001288 -0.00437196204063739 0 0 0 0)
(0.00294038546134841 -2.62539427881888e-06 4.11358953614245e-20 2.76036727451448 -0.00402970348780773 1.32830030688196e-21 0 0 0)
(0.00254430552192126 -2.79731465697595e-06 5.14722453279179e-15 2.84217787824715 -0.00367976303922161 1.76080958329144e-16 -5.97218843494545e-21 1.05757004214178e-23 -3.48357121905763e-34)
(0.00213705555684971 -3.04195867988071e-06 5.15358259317085e-15 2.91253882769903 -0.0033176692777679 -3.21288119616145e-14 -1.60580338000751e-15 1.83021136112425e-18 1.75994506909297e-29)
(0.00171175505658173 -3.27225701507569e-06 -5.14722453279154e-15 2.97113936493591 -0.00294249981325117 -3.35826282805631e-14 -1.63451752359156e-15 1.61728103230365e-18 1.86034000752072e-29)
(0.00126603055247905 -3.63307674760713e-06 -5.15362372906668e-15 3.01726894056484 -0.00254221288058722 -1.93229968365239e-16 0 0 0)
(0.000786586673553848 -3.88912057894516e-06 -1.69185989535642e-33 3.05045929993819 -0.00212188107561912 -9.18837657186422e-19 0 0 0)
(0.000274243689373679 -4.44315589734558e-06 -1.71289815039124e-33 3.06929816552348 -0.00165210757784778 9.3026339109061e-19 0 0 0)
(-0.000299897829787603 -4.60986704832783e-06 0 3.07328790208635 -0.00115804914718726 -9.30585741848926e-19 0 0 0)
(-0.000922493664472884 -5.45545902337132e-06 0 3.05952827891285 -0.000563522636316364 0 0 0 0)
(-0.0016727455308487 -5.05140725103925e-06 4.34738835591675e-20 3.02805483925463 5.89590230099655e-05 9.51059037910747e-19 0 0 0)
(-0.00249762871236846 -6.67341227603418e-06 -4.34869818022818e-20 2.97192120285695 0.000918813018660446 6.80984075494754e-19 -6.02517400549356e-21 1.32875422658939e-23 8.86464107459281e-43)
(-0.00360566068773786 -4.64412484546608e-06 -4.3473883559165e-20 2.89347449337587 0.00177439809429446 -1.63666163390925e-18 6.02517400548829e-21 -1.32875422658823e-23 -8.86464107458505e-43)
(-0.00480445355282457 -8.37602982868128e-06 4.34869818022824e-20 2.77515447348337 0.00320689785348781 2.26235147946713e-21 0 0 0)
(-0.00667856057470636 -1.65531462136513e-06 0 2.62809064324256 0.00448003457774385 0 0 0 0)
(-0.00850971313126852 -1.0641824293927e-05 -4.52323814404923e-20 2.40499942487882 0.00717375212623101 -9.94759260937626e-19 0 0 0)
(-0.0123242924713986 2.23253468689358e-05 4.54461496855289e-20 2.15055865522011 0.00934477141895648 2.94791905206259e-19 3.59399551830847e-21 -1.34900315127183e-23 1.44674270527182e-41)
(-0.0171533647996988 0.000431821676287099 -5.8365109790643e-18 1.71416836910484 0.0165366743629134 3.51037475066577e-19 -3.60015288222809e-21 1.35131431256538e-23 -1.44922131752635e-41)
(-0.0430359225536681 0.000155284065180382 -2.4763106397155e-17 1.20581689908336 0.0426412233136673 3.70023893177824e-17 6.82379191252301e-19 2.40725519352287e-20 2.17797124283611e-35)
(-0.105780984814755 -0.00619485117151161 3.87799998721526e-17 1.27717236794823 0.104717157462205 -3.63333541826289e-16 -5.16800656224085e-21 -6.66540172271169e-22 3.22708299755335e-36)
(-0.239255152764238 -0.031085198354888 1.26153827882155e-14 1.70020359672027 0.243166319212068 1.90070498801164e-15 1.27489105475345e-20 2.10283870895453e-21 1.75073282452995e-33)
(-0.440825982187017 -0.0851667321502444 2.91043722382026e-14 2.19646398863287 0.444678199397176 -8.08737329192716e-14 -2.75944829649639e-15 -5.58595826588835e-16 1.00358795095869e-28)
(-0.732056890631866 -0.18577802097539 8.55860237811602e-15 2.82201448892119 0.735875019786742 -8.31444354066481e-14 -3.5278294088352e-15 -9.19584120988552e-16 1.05223565843931e-28)
(-1.12153486551391 -0.349468388899384 -1.28261261778418e-14 3.54122267622278 1.1232529667091 -2.91556016234759e-16 3.37333150182162e-17 1.06962903913093e-17 5.47881739350021e-33)
(-1.64307572943617 -0.602567719459211 7.16197293353763e-16 4.41702498441049 1.63883975805672 -1.39514453599363e-15 -9.50318401527441e-21 -3.34827643510028e-21 1.33357608649602e-35)
(-2.30860864516391 -0.958253475586781 -3.35567282589457e-16 5.48806341288589 2.29454764524862 1.39369309187629e-15 -5.40697321442703e-17 -2.26019485403831e-17 -1.3570613604688e-32)
(-3.07270768766149 -1.39108816143803 -5.60527543827833e-16 6.69935194491991 3.04634244406917 8.188611549662e-16 -6.69206108974447e-17 -3.04263620523623e-17 -8.30016381628189e-33)
(-3.88284250686682 -1.86283478293569 -3.33903306413808e-16 7.99016102111069 3.84301835483081 4.89058694095324e-16 8.06633106172342e-17 3.8793599063507e-17 4.99523340585994e-33)
(-4.70432677578985 -2.33645678574455 -6.36689272419445e-16 9.35194459989475 4.65029655583936 1.27402211417434e-15 -2.34144489618227e-20 -1.1262440116428e-20 2.81907977368934e-37)
(-5.44652275945873 -2.74776036984777 -3.79868495543107e-16 10.6653252328546 5.38398030498664 4.62578238413913e-16 1.08631724920768e-16 5.48374734135119e-17 4.78662591654508e-33)
(-6.10989023578014 -3.11345240664507 -1.60563781032518e-16 11.8479509010542 6.04155347163979 4.61680371892326e-16 1.20879667677327e-16 6.16383119842313e-17 4.66948593804278e-33)
(-6.83046391179006 -3.53036900339892 -7.62618757408125e-16 13.0550289358048 6.75367065003542 1.58828483780871e-15 1.70205015716994e-20 8.54900661989289e-21 -3.0167497185817e-36)
(-7.72617636191326 -4.0702181262395 -1.79538727132e-19 14.4788998595647 7.63576340697553 2.56507625311219e-19 -2.03002627724244e-20 -1.05791921947527e-20 2.09080223500043e-39)
(-8.89244087606007 -4.79635109590184 7.7707666522968e-16 16.2630675380441 8.78146088171269 -1.41768021389538e-15 -1.68137878092569e-16 -9.07864889211988e-17 1.46566842681206e-32)
(-10.5974530469003 -5.86564359499733 -7.41857514701116e-17 18.8601440911239 10.4429117455957 -1.69521428326123e-18 0 0 0)
(-12.9191909279972 -7.19308097493124 2.62003951943928e-16 22.8297585176223 12.6966858943048 -5.01970718912126e-16 2.38130191048905e-16 1.32435514000092e-16 -5.238672547501e-33)
(-15.291578060738 -8.22514541361875 4.72795967822902e-16 27.9877490525163 15.0090525913855 -6.5067333714978e-16 2.64068130276741e-21 1.30658183244044e-21 3.00206487586259e-38)
(-17.2168734981723 -8.51482559656787 -1.07133593063916e-16 34.3194286905625 16.8789317683375 2.80743980233245e-16 -3.48455494038197e-16 -1.71375658301836e-16 -2.85169189137116e-33)
(-17.6849796859276 -7.49716569429917 -1.16739318630178e-16 41.3051179240406 17.3350065543235 1.76275460364645e-16 -4.07608339854185e-16 -1.71060107295019e-16 -1.73826482519149e-33)
(-15.0489588234393 -4.83550746754079 -2.04736047748824e-17 46.78565359406 14.75425621773 4.2647527342399e-17 -4.45512358847103e-16 -1.40486771044355e-16 -4.0538190274021e-34)
(-8.24465461561135 -1.65021021675687 5.14183871089035e-17 42.7175301229267 8.14990263921045 -2.52125336727413e-16 6.85454965632608e-21 1.70853731973414e-21 -3.30739613106319e-38)
(-2.75854939972327 -0.293680254945244 2.41876920559635e-19 30.2348807186351 2.73294264096273 9.08722431137389e-21 -1.56950842990824e-21 -9.7762258104537e-23 -1.0253735786372e-39)
(-0.443748239357406 -0.0280077682023195 -1.20864793718269e-19 17.961672863392 0.460358959206337 7.57374342215259e-18 1.57226102891651e-21 9.79337132490754e-23 1.02717187563381e-39)
(-0.0328761414686593 -0.00272022646990143 -2.43387019568379e-19 12.1916889155441 0.0235036656501976 8.73233161356932e-22 0 0 0)
(0.0549131547897372 -0.00680310533129244 -7.83442230145728e-20 14.8478159078698 -0.0466435391343295 -2.81086369838966e-22 0 0 0)
(0.21620481489224 -0.0230197109065349 7.14000358775809e-20 15.7279218696432 -0.229451445970093 4.4347985178056e-18 8.51788136929447e-18 -1.31105222969933e-19 6.13979176209537e-37)
(0.771415209639769 -0.0647544920331769 -4.28733457694146e-19 12.9724987583815 -0.750734400083409 -6.16353324902075e-18 -2.92125900366096e-21 2.33217888741307e-22 3.18033305850476e-44)
(0.535837212883958 -0.0386329307160887 -1.90586185894663e-22 5.01607461701759 -0.518156711209724 -1.71152932986641e-22 2.92064056425416e-21 -2.3316851580567e-22 -3.1796597723334e-44)
(-1.00277616621001 0.403551768511163 1.66989156951989e-22 -2.4689287848356 1.04221487929115 1.89079341827524e-24 0 0 0)
(-1.8377879093463 0.818250277514934 2.70062756480569e-21 -4.28760737796189 1.86596555076456 6.31213066481375e-21 0 0 0)
(-1.67038630177772 0.843226614483745 5.69695150930217e-21 -3.42016277175672 1.69528768765715 1.13339783518396e-20 0 0 0)
(-1.49742530215268 0.816590574474099 2.38553284037577e-16 -2.79871249305904 1.51266240453547 4.36463430896207e-16 0 0 0)
(-1.25354071302707 0.705562706300831 5.35790769959597e-20 -2.25557701019409 1.26617564082311 9.42943540486938e-20 4.31763055282683e-21 -2.42769976504459e-21 -7.25985783831737e-41)
(-1.08383181030885 0.604706727784497 2.86310454499298e-16 -1.9517275615151 1.09132247451855 4.63466653391628e-16 -3.61907261765828e-22 2.34648175631447e-22 -6.19880302921712e-37)
(-0.945440980436092 0.514212572563157 -7.87807233111988e-17 -1.74244549914357 0.951377746471468 -1.46833792707502e-16 1.85378916655859e-17 -1.00982850742421e-17 -1.54782765486653e-33)
(-0.87430895259673 0.465517099957837 -8.40273039722201e-17 -1.64368153503919 0.878122282514083 -1.66698662642879e-16 6.40484633121119e-21 -3.46130205882306e-21 -1.14280911591732e-36)
(-0.826683859493638 0.433125818233135 -2.17505281965021e-16 -1.57923108057883 0.829506934967647 -4.76191967239345e-16 3.24823345026831e-17 -1.7028766077209e-17 -4.9265159437407e-35)
(-0.81612201022047 0.423946737587135 -1.78387893216832e-17 -1.57179930448083 0.817723428778013 1.90716755810279e-17 3.20732340426536e-17 -1.66407252842175e-17 -5.12450750543102e-33)
(-0.835962951210831 0.432867173713862 -6.06324230593379e-17 -1.61415420537951 0.837140276287328 3.43055106693888e-18 -8.79673948480538e-22 4.02462795495832e-22 -4.94594806208727e-36)
(-0.875065437199335 0.448084065142477 2.09925287839329e-16 -1.70305409839593 0.875684614406177 4.85920048290701e-16 -1.71283558334622e-17 8.72281359947467e-18 -5.00073768868199e-33)
(-0.915394351017252 0.453722809412735 2.67452754860689e-16 -1.83173714145925 0.915888899223 4.84270381547434e-16 -3.67799945709017e-17 1.82812707049163e-17 -1.11294430601431e-34)
(-0.948676257586387 0.443700573187141 6.73464485692652e-17 -1.99959611747489 0.94930751915081 -4.6556701774753e-18 0 0 0)
(-0.957993700601123 0.409497012609224 -1.36820669613583e-16 -2.18977193600561 0.958637798422536 -4.99414356944142e-16 4.29806395275199e-17 -1.8671132212278e-17 -1.69495462675101e-34)
(-0.934713302149494 0.351163521579833 5.91603613098626e-17 -2.39958907369083 0.935059675264726 2.42843943613183e-16 6.93117033545888e-17 -2.67114539379966e-17 -8.5393408059927e-33)
(-0.882195920709989 0.279779159486186 -3.27156383757603e-17 -2.63700033386877 0.882622677450006 2.42042166203188e-18 -3.88317133293711e-20 1.16429405098816e-20 5.12991099693129e-36)
(-0.800762698847759 0.204539939103763 -1.40573995324886e-17 -2.88967545485937 0.800984482488255 -5.62764970360307e-17 4.0484109156556e-17 -1.10713692242476e-17 -3.02553216911476e-33)
(-0.684024648481003 0.129754336261149 -3.66986237175735e-17 -3.1383485371174 0.683788885515089 3.29376946538768e-18 8.5232807696565e-20 -1.80111424862098e-20 -4.96421305002322e-36)
(-0.530760442939173 0.0627419994070672 9.91549009631017e-17 -3.37640934868625 0.531771471466542 6.61433059632237e-16 -1.55240234755177e-17 2.43989135458813e-18 3.03110155710044e-33)
(-0.358431326176769 0.0128079890589824 -1.11976208800548e-20 -3.62812428996505 0.354500302275364 -5.24775820419737e-19 0 0 0)
(-0.179696282029176 -0.00983582357984061 2.32967085980264e-15 -4.05598584185494 0.176757120502059 -1.16716433599457e-16 0 0 0)
(-0.0771989710996368 -0.00590885348524912 2.33575428572634e-15 -4.66920135893508 0.0757958924606866 2.54861795164987e-14 2.65415603746851e-15 -2.02898500914416e-17 -5.30410360786884e-30)
(-0.0601319246817123 -0.00102967206013488 -2.32871002097521e-15 -5.17135816164588 0.0550453022146707 2.64134665898715e-14 3.03897300636725e-15 -1.5461181467283e-17 -4.71248657014806e-30)
(-0.0407555332466572 -0.000771026671705503 -2.33731154042645e-15 -5.48572308431884 0.0367806680750025 1.33632379880315e-16 -7.91475704193235e-20 3.13308701496085e-22 1.52592299821961e-34)
(-0.0295850531893685 -0.000520499446301427 3.85654485916026e-20 -5.70294533888252 0.0252764948354438 2.56767584166338e-19 4.09041774209086e-20 -1.31485550416246e-22 1.24631795720135e-39)
(-0.0207202958766124 -0.000397443151737781 2.75526469815257e-15 -5.84164727263929 0.0165473501761786 -1.43074466787763e-16 0 0 0)
(-0.0138136691365607 -0.000321397180066456 2.84559179346086e-15 -5.9215866252857 0.00968279500712439 3.07933231823683e-14 3.93490733705338e-15 -6.49095519517152e-18 -6.14319785950554e-30)
(-0.00790453489204506 -0.000275324723196892 -2.75530669025883e-15 -5.95165482009999 0.00389757729530214 3.2541518449907e-14 3.96295941258521e-15 -5.20053976309083e-18 -5.75751155906971e-30)
(-0.00270207523332182 -0.00024546131182634 -2.8455917934607e-15 -5.93861547736262 -0.00116179163804286 1.3836421328563e-16 -4.56063401178574e-20 3.25984695877291e-23 1.85777139978651e-34)
(0.00201812850652478 -0.000223637121332486 2.25166493493843e-20 -5.88686770516883 -0.00571100343748161 -3.03802326149269e-19 0 0 0)
(0.00632889922107672 -0.000205013423326745 0 -5.8003373582761 -0.00981120814146705 3.27459873417759e-19 0 0 0)
(0.0102805826693376 -0.000188454643838576 8.22670203451131e-34 -5.68244627579674 -0.0135260453096931 -3.26063230415614e-19 0 0 0)
(0.0139000372753376 -0.000172901247790628 -3.53069575908606e-15 -5.53618369480625 -0.0168840064244338 1.39289702860789e-16 0 0 0)
(0.0171986203722984 -0.000157758265440465 -3.65851936196608e-15 -5.36437383140151 -0.0199052026273123 -3.96550582129756e-14 -3.68381805300071e-15 -5.01464200211987e-19 -7.44118900685768e-30)
(0.0201789127720053 -0.000142538152079927 3.53069688381582e-15 -5.16972341262422 -0.0225928331692423 -4.1709364934307e-14 -3.55715808946892e-15 -1.207592559509e-18 -7.21789956356901e-30)
(0.0228343153089557 -0.000126778895107828 3.65845559475284e-15 -4.9549082417607 -0.0249492633988869 -1.31595001758799e-16 -1.49077157461516e-21 8.27694505093135e-24 -2.38847608691393e-34)
(0.0251532028507934 -0.00011036261718859 3.14345826610118e-20 -4.72260251443069 -0.026964193987777 -4.68758712033355e-20 -7.7814068054165e-20 -1.3297675837538e-22 -6.12715921205877e-39)
(0.0271357699134422 -9.42499715866624e-05 6.37672130155949e-20 -4.47545648393548 -0.028642857438916 3.6389471699253e-19 3.80859522623545e-20 7.00909713911097e-23 2.03745332072432e-39)
(0.0287980090972787 -7.89313172316428e-05 -3.25593121239321e-20 -4.21595368376889 -0.030006008284009 4.41286664308307e-19 0 0 0)
(0.0301578277903853 -6.44948771421226e-05 1.86947611534881e-20 -3.94641166268151 -0.0310735599330702 -4.42815683534605e-19 0 0 0)
(0.0312335444106381 -5.09538385539558e-05 4.93801775027974e-15 -3.66898875920677 -0.0318677128938604 -1.24007737831512e-16 1.52131043341165e-20 4.44673010749351e-23 -1.61193455268466e-34)
(0.0320440499713902 -3.83618566314999e-05 5.08218759791727e-15 -3.38568795232396 -0.0324081513349284 5.45219592074746e-14 2.6352176592208e-15 4.89392484597114e-18 -1.13144078922252e-29)
(0.0326093855180398 -2.67897865280151e-05 -4.9379771896983e-15 -3.09835582644743 -0.0327182641599194 5.64747098957013e-14 2.4395361461963e-15 5.1269771964543e-18 -1.13022451946253e-29)
(0.0329520330222388 -1.63653368797526e-05 -5.08222693630815e-15 -2.8086757274416 -0.0328196938206425 1.09426704850186e-16 2.51295540819191e-20 9.37223396273064e-23 -1.65901598824632e-34)
(0.0330938914934835 -6.87853502071228e-06 -4.05605818735687e-20 -2.51815929954281 -0.032737489631105 2.58448473642426e-19 -1.20269466583677e-20 -4.71282785346632e-23 6.50153624502829e-40)
(0.0330463805060035 2.17710331657601e-06 2.06436299891193e-20 -2.2281998792719 -0.03248325767939 -2.71210559194061e-19 0 0 0)
(0.0328212384817333 1.04448942479167e-05 5.64470424563012e-15 -1.94014452643618 -0.0320677711556778 -8.10091345128688e-17 0 0 0)
(0.032439640125272 1.76263792864563e-05 5.77596758644062e-15 -1.65518265153354 -0.0315148390800899 6.0984944668859e-14 1.45182172790391e-15 5.56291003182169e-18 -1.31478911647595e-29)
(0.0319254955497481 2.36018663379628e-05 -5.64471602763158e-15 -1.37434647858323 -0.0308450819635533 6.24816137449747e-14 1.2718081993825e-15 5.54483070766246e-18 -1.33311691639922e-29)
(0.0313024511953576 2.84456546986734e-05 -5.77596145931213e-15 -1.09848845762257 -0.030084843961931 6.21660566434656e-17 -3.34771876010077e-21 -2.27974851504826e-23 9.42729244668279e-35)
(0.030592306578811 3.21591130697375e-05 1.18773624693946e-20 -0.828317689011119 -0.0292516213939513 -1.53243982022076e-19 1.16874818961745e-21 1.09041587446509e-23 -5.07805387410656e-41)
(0.02981962028328 3.49407123251882e-05 -1.24195145979054e-20 -0.564382802701909 -0.0283708905903642 1.28389048306105e-22 -2.43352174581619e-22 -2.85144419848328e-25 1.01353265264174e-40)
(0.0289904993430412 3.77325823773568e-05 -9.5361167820343e-23 -0.307078982242139 -0.0274496401607467 4.79941641550731e-20 -9.25396015035754e-22 -1.06190143248017e-23 -5.05727265231031e-41)
(0.0281009615044132 4.02494927056745e-05 6.29238613462854e-21 -0.0569137844710948 -0.0264871707639483 -9.39436816436662e-21 0 0 0)
(0.0271576946861559 4.20558223241281e-05 0 0.185668719500694 -0.02549311012754 -4.30451975678902e-20 0 0 0)
(0.0261723875875138 4.31652932070421e-05 0 0.420276655203496 -0.0244650008554847 -4.41467692056459e-20 0 0 0)
(0.0251665853547738 4.38245485001539e-05 -6.88330299841582e-21 0.646655137400063 -0.0234238985891248 7.79432210963383e-20 0 0 0)