/*--------------------------------*- C++ -*----------------------------------*\
  =========                 |
  \\      /  F ield         | OpenFOAM: The Open Source CFD Toolbox
   \\    /   O peration     | Website:  https://openfoam.org
    \\  /    A nd           | Version:  7
     \\/     M anipulation  |
\*---------------------------------------------------------------------------*/
FoamFile
{
    version     2.0;
    format      ascii;
    class       volScalarField;
    location    "20000";
    object      k_conv;
}
// * * * * * * * * * * * * * * * * * * * * * * * * * * * * * * * * * * * * * //

dimensions      [0 2 -3 0 0 0 0];

internalField   nonuniform List<scalar> 
15600
(
-9.58057587668084e-07
-8.58111803792567e-09
-7.0125432703893e-08
-2.14672745481434e-08
7.53749285086938e-09
-1.14530505601392e-08
-2.13876212123668e-08
-1.3191698586993e-08
-5.21927350312941e-09
-2.57532540898192e-09
-2.94445562629714e-10
-1.19418971125088e-10
-2.12817817628327e-10
-3.61065957663065e-10
-5.92937019714205e-10
-9.39950734994426e-10
-1.46854957680509e-09
-2.2110443701003e-09
-3.15560768077973e-09
-4.36878914898994e-09
-5.91037849963122e-09
-7.49278016924663e-09
-8.90543346572417e-09
-1.02040115892931e-08
-1.24585624240757e-08
-2.38841009107316e-08
-3.92518429233665e-08
-4.24055496401303e-08
-4.3489057975703e-08
-4.40962778579852e-08
-4.42205410423547e-08
-4.40408773145775e-08
-4.36902038824798e-08
-4.33068464787562e-08
-4.19446247059888e-08
-1.19069822936175e-07
-2.45015991437371e-07
-3.73345797400378e-07
-5.01459007057986e-07
-6.26155135945977e-07
-7.44626882137965e-07
-8.53470508527665e-07
-9.50316169497451e-07
-1.03401104955803e-06
-1.10378661694588e-06
-1.15948779073296e-06
-1.20114697682483e-06
-1.22939415645608e-06
-1.24494721678023e-06
-1.2490898917354e-06
-1.24249187768591e-06
-1.22584834423165e-06
-1.20075026075414e-06
-1.16854447826318e-06
-1.13104812805795e-06
-1.08942332330566e-06
-1.04536741368587e-06
-9.99523689825328e-07
-9.51698240203049e-07
-9.02705732419421e-07
-8.52875362349496e-07
-8.03534154056817e-07
-7.55009724775081e-07
-7.07011365704188e-07
-6.60470935392423e-07
-6.15099335142023e-07
-5.71338525463176e-07
-5.29076132654016e-07
-4.88363572103818e-07
-4.49121868838863e-07
-4.11506011597507e-07
-3.7538661384344e-07
-3.40669498181347e-07
-3.07247078423568e-07
-2.7511529271948e-07
-2.44156627945534e-07
-2.14175764147542e-07
-1.85062689836229e-07
-1.56723631651434e-07
-1.28912764559841e-07
-1.01606037811895e-07
-7.42309904821416e-08
-4.71372452056428e-08
-1.90407452606235e-08
-5.44875826096794e-09
-5.38245893121016e-09
-5.41833380364599e-09
-5.57766422457495e-09
-5.68388584052415e-09
-5.97049368844679e-09
-6.03497041643487e-09
-6.44879838636757e-09
-6.22081573343201e-09
-6.74080371854123e-09
-1.00092961462836e-09
-3.67161041739621e-07
-6.03375657216183e-07
-8.88848977742709e-07
-1.14624159636671e-06
-1.43543411594644e-06
-1.87840672017806e-06
-2.22787869110745e-06
-2.27184174023909e-06
-2.11096633687757e-06
-1.74675502896101e-06
-1.01461715427816e-06
-5.58902011850631e-07
-5.3118920678919e-07
-6.95938776845778e-07
-1.19885968440025e-06
-2.58396143601724e-06
-4.05924384272998e-06
-4.73903638893487e-06
-5.62026367736203e-06
-3.95673570681738e-06
-2.27786094155528e-07
-3.8920411981539e-07
-2.56911502513128e-07
-1.08893568741474e-07
-7.2488391954263e-09
-1.45670010735605e-05
-8.23254657578682e-07
-4.43782572505639e-06
-2.28625876199574e-06
8.67427328105685e-07
5.1300185684324e-08
-4.15705778542797e-07
-2.40875685764742e-07
-1.02691905245622e-07
-4.81303996610595e-08
-6.91546337060132e-09
-1.05685870474484e-08
-1.85126495251711e-08
-3.11767011710035e-08
-5.06529578909402e-08
-8.02640613092328e-08
-1.2476730716087e-07
-1.87410997045347e-07
-2.68704210169331e-07
-3.727270754396e-07
-5.01140674623904e-07
-6.35432264414219e-07
-7.57867601881059e-07
-8.80610517303788e-07
-1.11465682126619e-06
-1.91293086997018e-06
-2.91572954895873e-06
-3.17689772072006e-06
-3.32304149753347e-06
-3.42482863386945e-06
-3.4916472675245e-06
-3.53870470462242e-06
-3.57981799099297e-06
-3.62808493894435e-06
-4.22021374169684e-06
-6.84352801510098e-06
-9.47854354092022e-06
-1.21126042447382e-05
-1.46949194543518e-05
-1.71682970565985e-05
-1.94809995053564e-05
-2.15776502548501e-05
-2.3421123416867e-05
-2.49939563298368e-05
-2.62861150090099e-05
-2.72972129335804e-05
-2.8031278729465e-05
-2.85015147930617e-05
-2.87235545574792e-05
-2.87197274213397e-05
-2.85036141127504e-05
-2.80910808672428e-05
-2.75121395964363e-05
-2.67940881400012e-05
-2.59703929416586e-05
-2.50653148833628e-05
-2.41091881047535e-05
-2.31131061981258e-05
-2.20746116011306e-05
-2.10087245349671e-05
-1.99244784890817e-05
-1.88070405492421e-05
-1.77412826654958e-05
-1.66960122560219e-05
-1.56702822054292e-05
-1.46670969661284e-05
-1.36948820674002e-05
-1.27525362027183e-05
-1.18407876758447e-05
-1.09587696557012e-05
-1.01092289494607e-05
-9.29029011174805e-06
-8.5000645645727e-06
-7.73659865577883e-06
-6.9996083581986e-06
-6.28691049170687e-06
-5.59473238926928e-06
-4.92068290056124e-06
-4.2623844869791e-06
-3.61550414826859e-06
-2.97776458448519e-06
-2.34009479035959e-06
-1.70404298725622e-06
-1.05130123230985e-06
-5.6485351237123e-07
-5.30734788002283e-07
-5.07539765450705e-07
-4.91098233031278e-07
-4.73811845805981e-07
-4.60620810474639e-07
-4.39063161882515e-07
-4.23331747777768e-07
-3.79480035742592e-07
-3.33660302965735e-07
7.66565800389999e-08
-6.71239237134472e-06
-1.25957455275094e-05
-1.84212378037676e-05
-2.3739319652452e-05
-2.96366032748786e-05
-3.81016623447222e-05
-4.52005673091303e-05
-4.72021625064284e-05
-4.52659148335885e-05
-3.91678732157889e-05
-2.65845965799815e-05
-1.71492368193262e-05
-1.46913185724345e-05
-1.6671048626256e-05
-2.54292041206228e-05
-4.98424868898708e-05
-7.83090947312974e-05
-9.6905609827918e-05
-0.000115092498531774
-9.33691245370375e-05
-1.55020612780955e-05
-2.16754580323425e-05
-1.52535086095642e-05
-6.36231126756108e-06
-2.18193593467768e-07
-3.99256649005065e-05
-5.0611142118978e-06
-2.83029906310697e-05
-2.12402758104807e-05
1.14880448157905e-05
6.71721661647327e-07
-2.06368700441396e-06
-1.15241260239381e-06
-5.24157065913635e-07
-2.44423629810348e-07
-4.31315245234303e-08
-1.11762978319596e-07
-1.95113613807846e-07
-3.26307208313233e-07
-5.26717455643304e-07
-8.32830794844843e-07
-1.28833824391577e-06
-1.93011737430121e-06
-2.77102560156456e-06
-3.83437635605429e-06
-5.12003166641106e-06
-6.47869592742264e-06
-7.74862562119589e-06
-9.06680805833642e-06
-1.12430703047938e-05
-1.76909008288001e-05
-2.5618641698513e-05
-2.81286593183002e-05
-3.04324642325585e-05
-3.21300427418572e-05
-3.35798737039324e-05
-3.48882253194555e-05
-3.62471434237536e-05
-3.75917608519753e-05
-4.87299200367928e-05
-6.07632309706078e-05
-7.25697372740759e-05
-8.39807562479686e-05
-9.48290624293976e-05
-0.000104941133173372
-0.000114163907752995
-0.000122353891633602
-0.000129427584867511
-0.000135357221008929
-0.00014013652578167
-0.000143784595337637
-0.000146334426921496
-0.000147843551475618
-0.000148375330439658
-0.000148004088209934
-0.000146779365468626
-0.00014476496664897
-0.000142071496423015
-0.000138802855204975
-0.000135082020176997
-0.000131004634059169
-0.000126680685047059
-0.000122146879817899
-0.000117389350211492
-0.000112274441235979
-0.000106932892960371
-0.000101882043430558
-9.68651659716264e-05
-9.18777682200582e-05
-8.69396740423056e-05
-8.20682238181439e-05
-7.73002789910429e-05
-7.26374568078577e-05
-6.80848191549757e-05
-6.36426840267996e-05
-5.93235754454392e-05
-5.51236872420584e-05
-5.10369079655546e-05
-4.70567000710743e-05
-4.3181945397317e-05
-3.94043786258551e-05
-3.57086568627608e-05
-3.2083363849166e-05
-2.85161527371806e-05
-2.49879678917742e-05
-2.14821947812059e-05
-1.79618493634798e-05
-1.44150058837638e-05
-1.07734514434494e-05
-7.0562343610225e-06
-6.40623022395373e-06
-5.79466089458873e-06
-5.24017199508466e-06
-4.65174384679232e-06
-4.06354144045544e-06
-3.3323183126989e-06
-2.62259509383678e-06
-1.44723746776425e-06
-3.42542107355888e-07
3.05731705393684e-06
-2.78240467899021e-05
-6.0491023784776e-05
-8.93063219243982e-05
-0.00011520231145626
-0.000143451361878469
-0.000181755792030537
-0.000216765825634077
-0.000233771572538537
-0.000233971594522181
-0.000214516570647614
-0.000166514300551638
-0.000122099972320368
-0.000102099504309792
-0.00010484924814511
-0.000140229432299438
-0.000245049937411598
-0.000376753680267961
-0.000482583079886748
-0.000566202984974366
-0.00050621114029806
-0.000127532799547496
-0.000123437910607387
-6.80699675876725e-05
-1.72161029713732e-05
1.5934690188602e-05
5.40524440914791e-05
4.84032279622549e-06
-6.63572983867264e-05
-7.44786315198142e-05
4.24891372270188e-05
5.6680051716308e-06
-5.04644545631728e-06
-2.87967593806711e-06
-1.39232108353107e-06
-6.52320669325639e-07
-2.01655318456955e-07
-5.00576639316683e-07
-8.88107097086256e-07
-1.49035682635025e-06
-2.40822860656528e-06
-3.79889440922308e-06
-5.84039032592572e-06
-8.68282891035223e-06
-1.23511411931604e-05
-1.68510294452875e-05
-2.21210126885025e-05
-2.75558019060244e-05
-3.25210035765656e-05
-3.7282424933489e-05
-4.36936728750416e-05
-6.41774788883316e-05
-8.78923136744949e-05
-9.48868792656977e-05
-0.000105072136745616
-0.000112290897929841
-0.0001190794441241
-0.000125517604095739
-0.00013257594205422
-0.000149827029727042
-0.000173020194796592
-0.000192465181120558
-0.000210555403358412
-0.000227213263767781
-0.000242340225269866
-0.000255845979440868
-0.000267662559757403
-0.000277759246318964
-0.000286151511425271
-0.00029288586383087
-0.000298018167366741
-0.000301616388045773
-0.000303757491870635
-0.000304532747896018
-0.00030402931210193
-0.000302325178454755
-0.000299476979332382
-0.000295566289060027
-0.000290728912773812
-0.000285091043957384
-0.000278801910053798
-0.000271978806228425
-0.000264755626373373
-0.000257164486601628
-0.000247796689058554
-0.00023906005814978
-0.000230395780139857
-0.000221647810070573
-0.00021287238970023
-0.000204062331317331
-0.000195244437924769
-0.000186446308997977
-0.00017772246758424
-0.000169086046167466
-0.000160549752892889
-0.000152120095840746
-0.000143816139558783
-0.000135639561891492
-0.00012758663464512
-0.000119651602411515
-0.000111832141347516
-0.000104116756589417
-9.64840853616202e-05
-8.89136776732499e-05
-8.13811128662115e-05
-7.38515428781984e-05
-6.62838038762852e-05
-5.86154422352725e-05
-5.0788116461607e-05
-4.26962311702468e-05
-3.40953158339285e-05
-2.83719474437078e-05
-2.4745475802867e-05
-2.13179835398483e-05
-1.75739944001309e-05
-1.37577744614358e-05
-8.95121588288813e-06
-4.34051579206022e-06
3.44051586154165e-06
8.74410619165894e-06
2.06576047612195e-05
-3.32569341932735e-05
-0.000104583746218531
-0.000163093824448538
-0.000214302404954057
-0.000268719834682935
-0.000338601626984856
-0.000410762393451103
-0.000464713063077124
-0.000494346517565838
-0.000488709881703726
-0.000431998385593502
-0.00035790851781691
-0.000305775416780468
-0.000297020126845009
-0.000351994541197271
-0.000543433859627823
-0.000805593364474264
-0.00106938843876186
-0.00124192238481154
-0.00122160348709861
-0.000428540389305409
-0.000265743184832406
5.21905616245118e-05
0.000169651020639023
0.000191454888569666
0.000398103578699664
0.000106810341615359
-3.13231286676257e-07
-0.000111815862294457
9.04852850529544e-05
2.93835691196069e-05
-5.92116030417332e-06
-4.24155673007611e-06
-2.23927760393691e-06
-1.04373599309141e-06
-5.11478761013626e-07
-1.40795829575424e-06
-2.58617014261047e-06
-4.39575097164773e-06
-7.11997365615531e-06
-1.11344125344675e-05
-1.68185112747601e-05
-2.43744849442994e-05
-3.35312235679706e-05
-4.39447489372137e-05
-5.52767933435604e-05
-6.61313309373082e-05
-7.54313011751111e-05
-8.3414231181223e-05
-9.34621891297404e-05
-0.000129020423111049
-0.000163245161560979
-0.00017426941080896
-0.000198524985375333
-0.000213842379138627
-0.000228590794215007
-0.000241989023304486
-0.00025433532742685
-0.000290392499043651
-0.000308484176478959
-0.000324769595755802
-0.000339151610317409
-0.000351720846194085
-0.000362517087871922
-0.000371594954750766
-0.000379021975938819
-0.000384908263174414
-0.000389363575089747
-0.000392483005871917
-0.000394350152385027
-0.000395042819685388
-0.000394639214071547
-0.000393217653025398
-0.000390843093040993
-0.00038755493442667
-0.000383382401632603
-0.000378379868244645
-0.000372647334785189
-0.000366272555085896
-0.000359363953436016
-0.000351998861226715
-0.000344285568581677
-0.000333664655454605
-0.000324673585777297
-0.000315663600017704
-0.000306394402569655
-0.000297000362677535
-0.000287530516010448
-0.0002779772798336
-0.000268356909351316
-0.000258687982246911
-0.000249012337395414
-0.000239349021983675
-0.000229713579877091
-0.000220114567914228
-0.000210564359940632
-0.000201068465044548
-0.00019162916864737
-0.000182245342793579
-0.000172911840800014
-0.000163616978543492
-0.000154344566909492
-0.000145074329359371
-0.00013577863092409
-0.000126419663369552
-0.000116943974165255
-0.000107292006345824
-9.73677105502809e-05
-8.70815895124414e-05
-7.62523318940315e-05
-6.26904402103118e-05
-5.41765421198549e-05
-4.54029383027869e-05
-3.54657466602529e-05
-2.49643548230362e-05
-1.12944444806443e-05
2.43854306142914e-06
2.63412018761888e-05
4.19163045309957e-05
5.98879308792215e-05
1.50382260669185e-05
-7.02647932003429e-05
-0.000140551266500327
-0.000200737587462307
-0.000261826235841208
-0.000335941251300195
-0.000421704749882721
-0.000505575846077283
-0.000574718614861183
-0.00061115551629712
-0.000599426424648814
-0.000547937398720028
-0.000483886576246586
-0.000458741564580885
-0.00049532734788453
-0.000691022705218918
-0.000984478414127023
-0.00139575426143577
-0.00164133111445072
-0.00182925953092499
-0.000856761349265042
-0.000484245100270399
0.000520897665132855
0.000956579610738244
0.000872118891617793
0.000971048590636993
0.000400904866626137
0.000348887088742121
9.55657664288127e-05
0.000177718281619858
0.00011068608026
6.28500568962934e-06
-1.31176205154661e-06
-1.28706055243446e-06
-5.18468556488722e-07
-7.21893422869044e-07
-2.80588698220602e-06
-5.49381997340075e-06
-9.5375433610513e-06
-1.54137204184705e-05
-2.35761770509949e-05
-3.43163678734261e-05
-4.73630687501976e-05
-6.16337812535419e-05
-7.65510988892579e-05
-9.20447222463126e-05
-0.000106854876200149
-0.000120740346720098
-0.00013467175424783
-0.000154828690178103
-0.000204242653947946
-0.00023931946552315
-0.000257628552028737
-0.000294588120925406
-0.000314430530029483
-0.000333011292000103
-0.000348778414583618
-0.000380368663436456
-0.000393382784617591
-0.000405294942321652
-0.000415425840427173
-0.000423822998622738
-0.000430639367306358
-0.000435971495204822
-0.000439932007271853
-0.000442644974273378
-0.000444269582278536
-0.000444939969756385
-0.000444751510420091
-0.000443774294886487
-0.000442065736881993
-0.000439679385769634
-0.000436664464647889
-0.000433054374270271
-0.000428852570881005
-0.000424056366921984
-0.000418685428741363
-0.000412802227808594
-0.000406455561226995
-0.000399714162687215
-0.000392613682729915
-0.00038267413236981
-0.000373628815435806
-0.000365298449549339
-0.000356702328787979
-0.000347870168706458
-0.000338901065071669
-0.000329835684794357
-0.000320668839195666
-0.000311407741131979
-0.000302059645182971
-0.000292650741135084
-0.000283200570976078
-0.000273726132585159
-0.000264235602123864
-0.000254733396081939
-0.000245224580171546
-0.000235715885877452
-0.000226209995745398
-0.000216699316084216
-0.000207171211102696
-0.000197615044461407
-0.00018801459486862
-0.000178343311215013
-0.000168565321504884
-0.000158625077168499
-0.000148473908085545
-0.00013800283060979
-0.000127147900013916
-0.000115678919351173
-9.96886121113467e-05
-8.72262906882623e-05
-7.46060910062167e-05
-5.99183455899964e-05
-4.41648098003453e-05
-2.26920933444432e-05
-6.267589842404e-07
4.02445863486444e-05
7.00075016691088e-05
9.16172559245217e-05
7.17149799096653e-05
-3.04306031651238e-06
-6.96081731360064e-05
-0.000125905088225018
-0.000180553272505237
-0.000244216648679541
-0.000324058003299635
-0.000414596899466841
-0.000502154574700771
-0.000566820632946973
-0.000595409366430942
-0.000580721647954712
-0.000524077031582143
-0.000488679045014721
-0.000487619839741333
-0.00063953675425466
-0.000873804064845969
-0.00136159994042082
-0.00164600500516449
-0.00210761387101487
-0.00155717034982216
-0.00101424181007168
0.000638734167808843
0.00180436378076446
0.00191345508332034
0.00169655942554443
0.000862732270533803
0.000851780072783046
0.000606064996894176
0.000414591261048854
0.000332299725207613
5.29973152010154e-05
1.37010194616155e-05
5.20764008850936e-06
2.89812606918248e-06
1.11306223235249e-07
-3.8609558900272e-06
-8.73434908470149e-06
-1.58119732253521e-05
-2.55090960870425e-05
-3.79229692648834e-05
-5.29077911716411e-05
-6.96591128850054e-05
-8.7094176722769e-05
-0.000105626848430992
-0.000125859761036127
-0.000147015717575116
-0.000169890479703894
-0.00019640702335441
-0.000234016445077368
-0.000293407390429157
-0.000324055878082686
-0.000347572579808147
-0.000387407956780601
-0.000405435854728168
-0.000422079031923769
-0.000432652466112453
-0.000458783076813047
-0.000466626704247252
-0.000473216462888652
-0.000478301481267959
-0.00048197365687093
-0.000484390614406385
-0.000485664171155236
-0.000485921105933337
-0.000485303188561955
-0.000483978139863143
-0.000482081545902079
-0.000479699058173636
-0.000476880957831187
-0.000473662647529319
-0.00047007311487072
-0.000466136735323003
-0.000461862345407108
-0.000457228539753326
-0.0004522061663157
-0.000446785322377877
-0.000441000349142344
-0.000434871262348726
-0.000428438263572671
-0.000420248446406139
-0.000410243333102311
-0.000402639348839353
-0.000394749988696413
-0.000386631958128427
-0.000378293250566045
-0.000369807859918173
-0.000361210519261358
-0.000352499357407656
-0.000343677165294645
-0.000334742885388696
-0.000325711882482711
-0.000316602831162017
-0.000307434831865554
-0.000298215952710666
-0.000288945538352665
-0.000279627133829332
-0.000270270876661136
-0.000260882597408394
-0.000251453491593883
-0.000241969646147139
-0.000232423988200966
-0.000222804492856902
-0.000213086221120282
-0.00020323462853322
-0.000193194740430039
-0.000182924653685094
-0.000172314045732209
-0.000161312062488546
-0.000149671731177033
-0.000137782168867003
-0.000119893953787989
-0.000105750685889687
-8.90327543691465e-05
-7.11416503401645e-05
-4.60017470319355e-05
-2.03074281001432e-05
2.94989312728494e-05
6.97043755274706e-05
9.95016987957638e-05
0.000107941080247911
5.45846746253444e-05
-8.19900611931362e-07
-4.83431939694513e-05
-9.3335770565908e-05
-0.000145172186842798
-0.000214714328173611
-0.000301149084740208
-0.000391872168113327
-0.000467694243275004
-0.000515317805173186
-0.000523852620904883
-0.000476310680019852
-0.000435914884024329
-0.000399088908911268
-0.00050515196538013
-0.000655653996183238
-0.00114313027313071
-0.00141028940137787
-0.00205749109976954
-0.0017200997044428
-0.00156453479609381
5.48511445828759e-05
0.00170249860363109
0.0024895932339134
0.00216176919589516
0.00119988580938211
0.00126163222579504
0.00114288062043528
0.000940033068193605
0.000661902251838784
0.000146122256337496
5.00687414711793e-05
2.21760002829321e-05
1.20378009979185e-05
3.82047257223221e-06
-2.68721385451041e-06
-1.01181942183388e-05
-2.04622984861146e-05
-3.38013271751652e-05
-4.9773267452113e-05
-6.81081262284113e-05
-8.81009129198841e-05
-0.000109506046993152
-0.000133548719766408
-0.000160608642305444
-0.000190288635972651
-0.000224390763775504
-0.000265526010525354
-0.000319827176603678
-0.000382989742930337
-0.000408101277979151
-0.000432629388272993
-0.000468523329743457
-0.000481941250268438
-0.000494705136531599
-0.000509866952087333
-0.00051896097697726
-0.000522728926499106
-0.00052537653893286
-0.000526793295360551
-0.000527090164813152
-0.000526413478503549
-0.000524878449615142
-0.00052261143257866
-0.000519757707290697
-0.00051648006141352
-0.000512910257541443
-0.000509124545719647
-0.000505155446321587
-0.000501019887663181
-0.000496726565563164
-0.00049228065865198
-0.000487673258554082
-0.000482865965374642
-0.000477808170347362
-0.00047246562630558
-0.000466851731244937
-0.00046096556403061
-0.000454827125122092
-0.000444023524288295
-0.000436490264755452
-0.000429191127354281
-0.000421656285401927
-0.000413911011289028
-0.000405949126168622
-0.000397827334432056
-0.000389576162158086
-0.000381197071449005
-0.000372691330839404
-0.000364052057715454
-0.000355287579938701
-0.000346415594219728
-0.000337457747280831
-0.000328422480206102
-0.000319306207385934
-0.000310111013664975
-0.000300849931348948
-0.000291531562897763
-0.000282146677733241
-0.000272680186067598
-0.000263127292888054
-0.000253479599632795
-0.000243713564165876
-0.000233794780843525
-0.000223669295185414
-0.000213297577465761
-0.000202572253170728
-0.00019144434542683
-0.000179664386897609
-0.000167476443622716
-0.000149419591735145
-0.000135120159962037
-0.000117508192796328
-9.86816760229833e-05
-7.19345228873953e-05
-4.46100530703862e-05
8.75269171853878e-06
5.68188931198058e-05
9.54094508042483e-05
0.000126876226743187
9.65642391524761e-05
5.48054151929857e-05
1.71075603227808e-05
-1.86242699535595e-05
-6.08143554879321e-05
-0.000121474978291647
-0.000201749254503083
-0.000289941218596804
-0.000368417354128116
-0.000422092419886942
-0.000440435477748897
-0.00039729044549272
-0.000352957615458778
-0.000287273598561815
-0.000355012752812067
-0.000431375086263672
-0.000873621981665754
-0.00108867355422716
-0.00180736928482442
-0.00163864577525116
-0.00186497861962168
-0.000628482966751288
0.000729133361163614
0.00247084069399024
0.00221062968496548
0.00134892911486152
0.00157785464523819
0.00149087615535765
0.00171279652562665
0.00101102586348861
0.00023954140923791
0.000111704809602881
5.24766956903005e-05
2.90425885283785e-05
1.22573201385345e-05
2.51064296961161e-06
-7.81255884830952e-06
-2.15830422812463e-05
-3.85687292120795e-05
-5.81850618991481e-05
-8.02785407601555e-05
-0.000104367778991749
-0.000130977582005972
-0.000161486696999303
-0.000195823258071124
-0.000234292107722921
-0.000279501315540077
-0.000334021889493975
-0.000401158968883471
-0.000464136890421556
-0.000484145694878214
-0.000506836835815784
-0.000536519348944741
-0.000545132282188975
-0.00055328691583089
-0.000567210409974325
-0.000567970755875357
-0.000568686104425617
-0.000568475488964856
-0.00056727029528069
-0.000565191743433876
-0.000562370024496496
-0.000558918899765845
-0.000554957818867356
-0.000550628649534375
-0.000546083740696917
-0.000541449361722605
-0.000536793674760183
-0.000532133997578807
-0.000527471936986476
-0.000522799593587645
-0.000518107148767627
-0.000513372821928356
-0.000508546373150918
-0.000503559490401621
-0.000498357603475497
-0.000492938068422304
-0.000487284557046925
-0.000479238507511217
-0.000469735137297275
-0.000462809915886279
-0.00045574392677868
-0.00044846723511512
-0.000440985276680211
-0.000433281638968306
-0.000425400989743003
-0.000417370819941246
-0.000409195849524597
-0.000400877525312822
-0.000392404847966783
-0.000383781535258637
-0.00037502457773603
-0.000366158399694876
-0.000357192143050208
-0.000348120490117172
-0.000338944339489395
-0.000329679353891303
-0.000320336631797353
-0.000310906797764061
-0.000301373660523925
-0.000291733986338592
-0.000281982376526687
-0.000272096254046385
-0.000262040334964376
-0.000251761436077046
-0.000241219436117215
-0.000230311056428491
-0.000218981954624782
-0.000206986353319312
-0.000194475633028538
-0.000176714994897802
-0.000162074598787298
-0.000143794531079107
-0.000124212656216661
-9.65019650591001e-05
-6.77774185487573e-05
-1.30431743950745e-05
4.21433889459581e-05
8.83282514664082e-05
0.000135586853922536
0.000126105476372401
9.82609961318866e-05
7.018716446901e-05
4.25661564867702e-05
7.68959912261113e-06
-4.64050748669015e-05
-0.000121185436500036
-0.000205340865426319
-0.000282907676765963
-0.000336687676203832
-0.000356991240465639
-0.000314187495290558
-0.000265291669140963
-0.000177244208248169
-0.000212865162299715
-0.0002328637031652
-0.000614424424937373
-0.000773018346200123
-0.00149172653671496
-0.00146070260821122
-0.00200426291198729
-0.00103655892045034
-0.000348700547018574
0.00167835488203777
0.00175558419004415
0.00120540877238607
0.00186613305824816
0.00167276167645811
0.0025169620087625
0.0014623073324813
0.000440611192378538
0.000195310150268811
9.44167099946961e-05
5.36732750273425e-05
2.5736958212717e-05
1.17799224862882e-05
-2.00744929039865e-06
-1.95245679960559e-05
-4.0430077791874e-05
-6.40805146462378e-05
-9.0364557338124e-05
-0.000118990272946754
-0.000151128946417172
-0.000188039692899665
-0.000229373078300165
-0.000276225803804845
-0.000331579546401815
-0.000397308548349269
-0.00047360103928173
-0.000534595330494848
-0.000550244979896759
-0.000569965663690892
-0.000593454962796789
-0.000597955972576334
-0.000601500312834393
-0.000610927979066627
-0.000609587390166502
-0.000608053717198632
-0.000605793862362484
-0.00060274259952422
-0.000599025797919037
-0.000594755290165634
-0.000590040148583214
-0.000584988900955176
-0.000579735718965531
-0.000574419645416162
-0.000569160411027175
-0.000564019048508551
-0.00055899969491053
-0.000554090981089159
-0.000549271223393441
-0.000544518601560501
-0.000539801909892361
-0.000535062658070927
-0.000530217688363706
-0.00052519521296435
-0.000519980020110255
-0.000514544619586136
-0.00050379091513358
-0.000496705215211903
-0.000489929749044576
-0.0004830322119766
-0.000475932828220337
-0.000468623657822859
-0.000461080573217736
-0.000453339822644152
-0.000445426746485328
-0.000437349361090935
-0.000429110362785685
-0.000420695835508611
-0.000412106464358391
-0.000403358959430017
-0.000394480709057684
-0.000385481784838802
-0.000376355760810796
-0.000367102636615626
-0.000357740619193932
-0.000348283120637855
-0.000338720614631584
-0.00032903579192913
-0.00031922661206769
-0.000309290165542602
-0.000299204347097221
-0.000288932185147328
-0.000278420772712169
-0.000267627584898265
-0.000256453210382916
-0.000244833610262712
-0.000232529067703888
-0.000219616793625496
-0.000205977023406866
-0.00018699826102556
-0.000167990171856197
-0.000147548971670283
-0.000119003737277734
-8.86307610987367e-05
-3.32370539845633e-05
2.86846518511432e-05
8.14625512295982e-05
0.000138814669950211
0.000146849470604214
0.00013227305285935
0.000113266916030167
9.26088572167281e-05
6.31684693914715e-05
1.36552295107049e-05
-5.67631023995667e-05
-0.000136740262670215
-0.0002118495572781
-0.000263155022871822
-0.000281415384285191
-0.000236659187008132
-0.00018256330361571
-7.76079090853966e-05
-8.55896890962571e-05
-6.49116605170353e-05
-0.000384391909859414
-0.000495936769259739
-0.0011804833690997
-0.00126904623178428
-0.0020812738627135
-0.00130679610609923
-0.00107012741034441
0.000568817043759746
0.000979673898963234
0.000772010729832147
0.00194648280586856
0.00166185271030008
0.00339907021126552
0.00197832560079892
0.000741166045590972
0.000298961724149583
0.000144057030268286
7.58099296907463e-05
4.29303157065482e-05
2.37030716177546e-05
5.91719130874581e-06
-1.54285233557758e-05
-4.02256391215162e-05
-6.79233691005607e-05
-9.83838667149521e-05
-0.000131529932432038
-0.000169062363964161
-0.0002120252549943
-0.000259946877908987
-0.000314589083511698
-0.000378909906831034
-0.000453716974736887
-0.00053644794652608
-0.000594961905960372
-0.000607093611546721
-0.000623647240139374
-0.000641709464179127
-0.000642942241720777
-0.000642208900477085
-0.000648898078942612
-0.000645925408226238
-0.000642773826490999
-0.000639088296072771
-0.000634789460507246
-0.000630003136493394
-0.000624821128917513
-0.000619345097408838
-0.000613669563719094
-0.000607917987445146
-0.000602214255608894
-0.000596670505514396
-0.000591341178692529
-0.000586218729404025
-0.000581280546664455
-0.000576493303242531
-0.00057182536969101
-0.000567238629485232
-0.000562669043423823
-0.000558020853403852
-0.000553207558240174
-0.000548203989997575
-0.000540770301758307
-0.000531322858614126
-0.000524760143482385
-0.000518098365066531
-0.000511316045322799
-0.000504328729477945
-0.000497119352895935
-0.000489657941809566
-0.000481974939855874
-0.000474094273861536
-0.000466027425898834
-0.000457779073913559
-0.000449333256980299
-0.000440688703813044
-0.000431862344964177
-0.000422884748409485
-0.000413767091229635
-0.000404502130490657
-0.000395089228224574
-0.000385549191054761
-0.000375897650752358
-0.000366124771935675
-0.000356212033847028
-0.000346158441214478
-0.000335963209255359
-0.000325604206714732
-0.00031504211936681
-0.000304223741427824
-0.000293103097337257
-0.000281583802225912
-0.000269589645310787
-0.000256887233439695
-0.000243488312601232
-0.000229146750930164
-0.000210085200961858
-0.000190517113360735
-0.000169071855384076
-0.000139646057938244
-0.000107337854991219
-5.13762292207086e-05
1.68225314917211e-05
7.55728147804953e-05
0.000139247524298417
0.000161481131913203
0.000159172100042012
0.000148594372666367
0.000133897079570049
0.000108445050594854
6.20111159199178e-05
-5.01451054505682e-06
-8.09988075437762e-05
-0.000152867666953232
-0.000200556735813433
-0.000214857472565701
-0.000167133446031794
-0.000107576150129845
9.83550708432036e-06
2.5996081014219e-05
7.57922854054475e-05
-0.000184741159263351
-0.000260900921988028
-0.000897313241317109
-0.00109368874481627
-0.00212216292619832
-0.0015662359677926
-0.0014797915110806
-0.000331935169449867
0.000189943836403446
0.00026677787593603
0.00164026626594325
0.00168051049992821
0.00387604544115498
0.00259069151938775
0.00116597123432095
0.000389282500809182
0.000199825044936602
0.000105887852649968
6.22871610784309e-05
3.69160498738665e-05
1.48675049839424e-05
-1.00192294575908e-05
-3.83107580686708e-05
-6.97382551518098e-05
-0.000104116062894629
-0.000141577761793382
-0.000184220429041614
-0.000232851438688403
-0.000286952452562775
-0.000348746966984392
-0.000420894703905345
-0.000503011575512874
-0.000590371798502008
-0.000646584503154224
-0.000656006082655826
-0.000669587434948205