/*--------------------------------*- C++ -*----------------------------------*\
  =========                 |
  \\      /  F ield         | OpenFOAM: The Open Source CFD Toolbox
   \\    /   O peration     | Website:  https://openfoam.org
    \\  /    A nd           | Version:  7
     \\/     M anipulation  |
\*---------------------------------------------------------------------------*/
FoamFile
{
    version     2.0;
    format      ascii;
    class       volScalarField;
    location    "20000";
    object      k_diff;
}
// * * * * * * * * * * * * * * * * * * * * * * * * * * * * * * * * * * * * * //

dimensions      [0 2 -3 0 0 0 0];

internalField   nonuniform List<scalar> 
15600
(
0.000366738521267533
0.000353691940044741
0.000242256052400059
0.000122193974855987
4.44242441274235e-05
2.00209013984843e-05
1.74595665140325e-05
1.23072797358754e-05
8.10649452719063e-06
6.03948530241707e-06
5.08294546927802e-06
4.77349885956774e-06
4.80786194268992e-06
5.15793022125768e-06
5.89217340476251e-06
7.05500955726923e-06
8.66208089137444e-06
1.07806083804218e-05
1.34326524681406e-05
1.65983626528022e-05
2.03782652472796e-05
2.49149709210672e-05
3.01135711896359e-05
3.58733802240971e-05
4.22938484677812e-05
5.02444158026187e-05
6.3787630492092e-05
8.18877272741531e-05
9.91704286278951e-05
0.000115521377957178
0.00013120348037415
0.00014632828149583
0.000160991414969899
0.000175286815752467
0.000189325437292242
0.000202813338173029
0.00021540804854455
0.000227038054791666
0.000237632592294436
0.000247126142485124
0.000255471125019977
0.00026263667618543
0.000268628527156521
0.00027348007651265
0.000277235679926785
0.000279950878598033
0.000281687324878211
0.000282515833833588
0.000282509255362582
0.000281741694483161
0.000280273098998146
0.00027816990779688
0.000275516256928798
0.000272394252758288
0.000268889167701973
0.000265075004780148
0.000261036002011716
0.000256806101067468
0.000252402645363298
0.0002478674448109
0.000243220837520099
0.000238521413356555
0.000233796625691975
0.000229050955837424
0.000224295126290662
0.000219541658251635
0.000214809542495268
0.000210105871900585
0.000205434440844135
0.000200796368522379
0.000196196868830104
0.000191636240417392
0.000187111585169795
0.000182618072318147
0.000178152435477383
0.000173709484137732
0.000169280187505908
0.000164854955067329
0.000160422970844695
0.000155970783077814
0.000151484294182184
0.000146941120655769
0.000142324122222657
0.000137595943470833
0.000132758583052453
0.000127952309098519
0.000123065102894064
0.000117944455735363
0.000112576452103836
0.000106707386199698
0.000100407788308953
9.30995817060689e-05
8.50674924387056e-05
7.4551146765969e-05
7.21169983256451e-05
8.69595894953732e-05
0.00010616142315564
0.000127390008675115
0.000150179333373371
0.00017591400694511
0.000207239700836418
0.000240935650910484
0.000271514417716721
0.000297367354683757
0.000316984247052979
0.00032588819419777
0.000331905637922181
0.00034434990795836
0.000366006225764833
0.000403603368294574
0.000471942762098691
0.000565847986882966
0.000660785260781697
0.000761310694409473
0.00081768093809739
0.000743365760889366
0.000583969102041343
0.000443651786934256
0.000347266735569885
0.000336145434781285
0.0019797184068259
0.00192152540139521
0.00132029169031742
0.000670102239996756
0.00024652705863424
0.000110282357885846
9.52746506723705e-05
6.74885501672505e-05
4.45628024420417e-05
3.31579920804064e-05
2.78726865137563e-05
2.6118515087704e-05
2.62585543670901e-05
2.81177225649935e-05
3.20658645439659e-05
3.83491548377661e-05
4.70526399441747e-05
5.85413101565141e-05
7.29445076858317e-05
9.01510538507386e-05
0.000110694383182981
0.000135360523989471
0.000163658164951938
0.000195018200725316
0.000229898836644149
0.000272806238612431
0.000345344424833105
0.000442203125335669
0.00053474461106061
0.000622281576385478
0.000706259624970113
0.000787297420193801
0.000865923396114703
0.000942653625406932
0.00101756594180712
0.0010876449044239
0.00115306160356352
0.00121342804830324
0.00126840976404825
0.00131770072742469
0.00136107945925575
0.00139841425951277
0.00142974795176348
0.00145525045196338
0.00147514373136384
0.0014897017903866
0.00149922996664433
0.00150407674824067
0.00150460299197319
0.00150117292227899
0.00149408749106123
0.00148368393061116
0.00147038341688436
0.00145460213015655
0.0014367692056695
0.00141726464328459
0.00139651866249733
0.00137470994656793
0.0013519421750369
0.00132843344346342
0.001304291759602
0.00127985557496576
0.00125519529235278
0.0012303727606941
0.00120545309764753
0.00118050637966578
0.00115563166109221
0.00113087311007915
0.00110625447981672
0.0010817862752636
0.00105749686701483
0.00103339252658697
0.00100946179954687
0.000985682486876324
0.00096203876042091
0.00093850613488404
0.000915040770914339
0.000891594109098468
0.000868110703387523
0.000844522846503494
0.000820756807947304
0.000796701420463374
0.000772261872396048
0.000747255674637905
0.000721514318576408
0.000695521444300537
0.000669097203743872
0.000641434147859607
0.000612441909332798
0.000580779776505396
0.000546782088010084
0.0005073904839277
0.000464042362047256
0.000407585850872808
0.000394786915096566
0.000468613004383004
0.000567393503778525
0.000677053680365032
0.000795515757223852
0.000929210046441186
0.00108993097670328
0.00126361978717968
0.00142459657590436
0.00156343398463649
0.00167235108045485
0.0017309919686745
0.00177245495168499
0.00184218714742015
0.00195727522977665
0.00215158596729325
0.0024929975039691
0.00296096743590529
0.00343774578383176
0.00393462684670324
0.00422818732055682
0.00390180928512808
0.00308736041106379
0.00237778520274927
0.00188448734948813
0.00183019544612467
0.00451443642924903
0.00441928497630614
0.00310901172039708
0.0016236748865215
0.000619166408569243
0.00026825141280374
0.00022785742150912
0.000162445464428108
0.000107702662354055
8.01479517683349e-05
6.73837255724171e-05
6.29534059681782e-05
6.31184554479028e-05
6.73790839658641e-05
7.65947811409755e-05
9.13172867743788e-05
0.000111696413388444
0.000138506036310648
0.000171962060964272
0.00021169604784958
0.000258827315628941
0.000315074129246865
0.000379299530806694
0.000450047061565217
0.000527859134470969
0.000622475127248039
0.000779919627623682
0.000988169349883702
0.00118590293085314
0.00137353056302041
0.00155397881882466
0.00172888923021375
0.00189939006004741
0.00206683576680153
0.00222200592467595
0.00236812622903333
0.0025054570696232
0.00263326193721717
0.00275083635938782
0.00285750770385368
0.00295273496404924
0.00303614944465079
0.00310769138865112
0.00316752521426831
0.00321592471007784
0.00325327350244077
0.00328003820552939
0.00329678403979056
0.00330412965995063
0.00330271958329147
0.00329311766156391
0.00327598065176816
0.00325212578295947
0.00322239023650106
0.00318763822329625
0.0031486701886912
0.0031063920864594
0.00306123542521284
0.00301352346138654
0.00296395369022973
0.00291271389245476
0.00286009312225051
0.00280662320813185
0.00275249980783368
0.00269791181683391
0.00264306052435576
0.00258818524940356
0.00253343519478948
0.00247890527832888
0.00242466128825018
0.00237079028692163
0.00231734308896059
0.00226432940972913
0.00221173199570438
0.00215953803893368
0.00210771977890619
0.00205621145462912
0.00200493016345377
0.001953776238139
0.00190262826414382
0.00185134589646099
0.00179972797173086
0.001747577349265
0.0016945670387922
0.00164039450310048
0.00158325478265657
0.00152544252522094
0.00146525025437012
0.00140241151781209
0.00133418532327064
0.00126103030942589
0.00117654117213355
0.00108337302753495
0.000962385058755463
0.000935209758248599
0.00106970011298881
0.0012605973832048
0.00147728813108237
0.00171437029496212
0.00198054538335265
0.00229233860725569
0.00263040520729573
0.00295342443364643
0.00324050253236365
0.00347861073823251
0.00363763679280301
0.00375963213856819
0.0039219793783538
0.00416179699041093
0.0045379991336119
0.00514675137673634
0.00596420154247133
0.00677656167906907
0.00757751897064905
0.0080423630710698
0.0076340922290348
0.00617796139581027
0.00500707330994852
0.00422990694270696
0.00421458564367757
0.00611689396368474
0.00611580650580611
0.00468022914247725
0.00271743309176284
0.00115266077979583
0.000472775436916141
0.000387552437213222
0.000278139481066142
0.000185356794513425
0.000138096587198613
0.000116151841544976
0.000108054917661781
0.000107817675830469
0.00011440457979266
0.000129118130825292
0.000152617585031525
0.000184789049944927
0.00022634783859591
0.000276993438742528
0.0003355194212316
0.000403142158227493
0.000482025138081735
0.000570434561502832
0.000666383083316899
0.000770928124597402
0.00090127753642408
0.0011188620645623
0.00140038830850785
0.00166368311662816
0.00191760981868234
0.00216242932605574
0.00240069539503939
0.00263259270967803
0.00285012306160092
0.00305182252359867
0.00324502848621795
0.0034269373117874
0.003596451025449
0.00375257912723334
0.00389443200911244
0.00402131946763631
0.00413279663503415
0.0042287856260816
0.0043094761921139
0.00437520494071125
0.00442643999163574
0.00446375239630784
0.00448782144413795
0.0044993987391411
0.00449927405204316
0.00448817439647158
0.00446692291061808
0.00443648623299966
0.00439787206339433
0.0043521020466139
0.00430015976401716
0.004243142445023
0.00418166391807955
0.00411765026610908
0.00404958499733353
0.00397843327168156
0.00390511842024869
0.00383016565639741
0.00375394936728413
0.0036768013865135
0.00359906299712881
0.00352109130789812
0.00344316796370986
0.00336550226419604
0.00328826801659772
0.00321164445796088
0.00313577772586103
0.00306076220536346
0.00298665565963753
0.00291351039430886
0.00284136347956638
0.00277021059750152
0.00270001954742306
0.00263073798139529
0.00256229141497889
0.00249458470589249
0.00242746605939237
0.00236077842899513
0.00229425417345668
0.00222776427681236
0.0021579391433743
0.00208648082578007
0.00201338823461396
0.00193856587562344
0.00185898519769828
0.00177537906816325
0.00167983062815547
0.001576963572885
0.0014417541079887
0.00140771341972795
0.00152795251895287
0.0017182077899508
0.00194801655463064
0.00220950498511172
0.00250373806959792
0.00284008359607356
0.00320686377305081
0.00356865357504188
0.00389920544094265
0.00418738847355176
0.00440959844240018
0.00458586947230237
0.00478874765436952
0.00505756846390972
0.00544123231667193
0.00598492711541068
0.00669561417898468
0.00733285766382803
0.00788715842322274
0.00809626610030651
0.00795758070794681
0.00649282485962162
0.00549550774320259
0.0051961643055934
0.00557317125433073
0.00428530520613656
0.00476627446050029
0.00455736511024329
0.00331932723063653
0.00182565992697405
0.000736961767896446
0.000560746427494273
0.000403099001151673
0.000269841939554447
0.000201245139580009
0.000169071642469759
0.000156204996302278
0.000154474102526419
0.00016198379286961
0.000180062477570522
0.000208801120372269
0.000247021970075089
0.000294417092166743
0.000349443649127532
0.000410231386542031
0.000478811211763783
0.000558385975713951
0.000648291722376028
0.000749156123350505
0.000868524351019581
0.00103829518872745
0.00131648598399703
0.0016455187835376
0.00193791940998693
0.00221796135870377
0.00248005719387605
0.00272861167870885
0.00296450978565266
0.00316275475303285
0.00336007620542837
0.00354216037677398
0.00370900673087096
0.00386028323464869
0.00399579305093411
0.00411544310937105
0.00421929033931347
0.0043075641200481
0.0043807308418736
0.0044394199818218
0.00448433147913931
0.00451620691017609
0.00453581328225151
0.00454394170853274
0.00454139896022331
0.00452898659244816
0.00450743891331018
0.00447751683909853
0.0044400264710928
0.00439579781581128
0.00434563502087386
0.00429032783681239
0.00423072547412517
0.00416989935365399
0.00410409437934115
0.00403518051694855
0.003963785825466
0.00389035627305576
0.00381531781738568
0.00373899644353894
0.00366166918996948
0.00358362144279762
0.00350514006064635
0.00342647641756272
0.00334782662509676
0.00326936486131047
0.00319126608170883
0.00311369000539915
0.00303675794545158
0.00296056444155714
0.00288520018201656
0.00281075002909998
0.00273727095684083
0.0026647960099208
0.00259334850844049
0.00252293721672383
0.00245356671764039
0.0023851962577397
0.0023178041858955
0.00225127309517902
0.0021855541561571
0.0021219344139424
0.0020541155722663
0.0019864271105943
0.00191918174600577
0.00185001885777734
0.0017810006120243
0.00170468628957555
0.0016308524424863
0.00153382648371651
0.00147912215604257
0.00152488295429872
0.00164883617862408
0.00182323327234851
0.00203915502532312
0.00228869864629991
0.00257430112433174
0.00289393918908095
0.0032235983046124
0.00353595360058892
0.00381837666121904
0.00404510316023763
0.00420466199294385
0.0043518340977752
0.00452081915407199
0.00475487520865112
0.00506432324584042
0.00553400549605464
0.00594199137650346
0.00634668659657711
0.00645973646864902
0.0066846784188954
0.00508226091050278
0.00372424943167944
0.00337105162121791
0.0036472313454475
0.000416785545507801
0.00139080869719279
0.00273635079441434
0.00283383834817568
0.00238016995434298
0.00111852670833381
0.000749500375568668
0.000531145093144358
0.000355585158784329
0.000264701655996622
0.000221138339160627
0.000202041185792651
0.00019681653964249
0.000202332953793711
0.000219341341607902
0.000246805004097019
0.000282461374496334
0.000325619416429645
0.000375150413547344
0.000431225622564456
0.000498534479803413
0.000581063934329822
0.000678781644031518
0.000795738358965346
0.00094593974933933
0.00116620833036219
0.00148639088123653
0.00180815083171713
0.0020742873264097
0.00232314287920576
0.00254800922267771
0.00275565037969977
0.00293036418910859
0.00310415046270242
0.0032611286084835
0.00340334809970449
0.00353126172846698
0.00364513223199019
0.00374524090473846
0.00383188929146371
0.00390542205892424
0.00396626352629141
0.00401495990187883
0.00405215480970156
0.0040785307961592
0.00409477419981918
0.00410157037123886
0.00409959823368435
0.00408953807334199
0.00407206008182581
0.00404778624107687
0.0040173345715355
0.00398131863763863
0.00394037393134304
0.00389509864376286
0.00384609711433942
0.00379655982410844
0.00374339156713139
0.00368706887797173
0.0036287092096129
0.0035685692100561
0.00350692660202942
0.00344407227322506
0.00338023883218196
0.00331561146323994
0.00325037869320963
0.00318472027237207
0.00311879998931128
0.00305274112904908
0.00298665389505211
0.00292064669927752
0.00285482155177154
0.00278925300005764
0.00272399745601127
0.00265910969614656
0.00259464348437744
0.00253063453755888
0.00246709909988776
0.00240404963868646
0.00234148842443674
0.00227941998673313
0.00221780991155643
0.0021566486903863
0.00209583717386379
0.00203537665978249
0.00197831594184889
0.00191697044719864
0.00185513403131983
0.00179376549058765
0.00173080915314749
0.00166906411164237
0.00160127460751499
0.00154006847681474
0.00146037733045626
0.00137229559795679
0.00136470528852472
0.00144749015922387
0.00158713332841727
0.00177128731142248
0.00198939756269226
0.00224141771554239
0.00253049031873157
0.00284261191425407
0.00315608164040763
0.00345896307428428
0.00372554243264207
0.00392368014803971
0.00408519089701348
0.00422965527923969
0.00441179858636993
0.00465208182067216
0.00512215310821641
0.00562266690493528
0.00630832031073107
0.00676721094453578
0.00719821382113465
0.00555815106823505
0.00304153481755592
0.00138809404935571
0.000521082033944859
-0.000872331436473655
-0.000823573898860985
0.000832874909936354
0.00169667756064426
0.0023394305209555
0.00168001742191685
0.000975591608929519
0.000663932891770888
0.000440751826516246
0.000325424242484676
0.000268424594864225
0.000241483076614994
0.000230616740234567
0.000231392910096238
0.000243988571129361
0.000266971721389946
0.000298641482413969
0.000339622555094033
0.000389968234975718
0.000450936116624201
0.000526786700755082
0.000619028304523462
0.000726855620248762
0.00085635194545288
0.00102142312022752
0.00125109028985762
0.00154368170924625
0.00180169816002791
0.00201488165701055
0.00221609433711461
0.0023976875365893
0.00256771701083947
0.00270661356852044
0.00284690322692468
0.00297357897934055
0.00308791756769155
0.00319029725594987
0.0032810077979727
0.00336033053520084
0.00342856199084825
0.00348601250561958
0.00353305112399391
0.00357013030285408
0.00359778824343868
0.00361660728763407
0.00362717048833831
0.00363006001542719
0.00362584697266008
0.00361510452255612
0.00359840213283633
0.00357628193996049
0.00354927231981186
0.00351787255867189
0.00348260420447745
0.0034439503295525
0.0034038725261146
0.00336313342597999
0.00331797987465072
0.00327123078302748
0.00322296919459196
0.00317341006862536
0.00312274486206454
0.00307119058851182
0.00301893378133139
0.00296611716774994
0.00291288196028839
0.00285935147478614
0.0028056403513445
0.00275183155202843
0.00269799940786876
0.00264421253504158
0.00259053491148613
0.00253700831418069
0.00248366104337754
0.00243051941776123
0.00237760875974556
0.00232494104199006
0.00227251097683514
0.00222031133046675
0.00216832727497163
0.00211654566430035
0.00206492292795404
0.00201343263470953
0.0019619789468662
0.00191054682934959
0.00185827820092887
0.00181014800906561
0.00175721770085245
0.00170444329699654
0.0016500845937167
0.00159675784606547
0.00153801820805903
0.00148529247816306
0.00141842777735807
0.00131841070138729
0.00127935307214782
0.00132917945759056
0.00143815313390235
0.00159242714880521
0.00178066996255099
0.00200027690791686
0.00225632422686295
0.0025428185439566
0.00284566666542499
0.00315696481722726
0.00346080304784868
0.00372415192108411
0.00396502008428506
0.004186040050807
0.0044442546099239
0.00475147433652933
0.00531800667597599
0.00595715454011393
0.00688903046955299
0.00761841695495937
0.00852092581565683
0.00746568294507173
0.00447580264302748
0.00135453038501901
-2.16487503900144e-05
-0.000715995418363781
-0.00119235377555141
-0.000180529992332798
0.000667109684397836
0.00168729670084421
0.00219593994532044
0.00124379904718785
0.000807733228165635
0.000529083651988534
0.00038520952487148
0.000311848933557312
0.000276137908519486
0.000259081660387331
0.000255203078151807
0.00026458556499619
0.000286195694458725
0.000319104019699173
0.00036387573532071
0.000419162150229175
0.000484704205738922
0.000562971338824662
0.000654006280839142
0.000758004095202742
0.000882012806455813
0.00103623466964674
0.00124148906365659
0.00148001033562732
0.00167937635811742
0.00185418990373123
0.00202224163589354
0.00217554593580886
0.00231185355404971
0.00244028744198192
0.00256005607145129
0.00266841617223859
0.00276621150421855
0.00285370627187511
0.00293115135451965
0.0029987857426441
0.00305687365492626
0.00310568258989208
0.00314553361574921
0.00317681079680566
0.00319997745778489
0.00321554678342713
0.00322403248807905
0.0032259483308619
0.00322179464932048
0.00321207294994622
0.00319728490858781
0.00317792175108776
0.0031544576282942
0.00312731994002684
0.00309695632472959
0.00306377647634504
0.00303266504975
0.00299636309141035
0.00295815207336816
0.00291863918217641
0.00287793331020341
0.00283622465932669
0.00279365560898679
0.00275039857972256
0.00270661641605643
0.00266243315415361
0.00261796806449388
0.00257331561634336
0.00252856513690705
0.00248378101107229
0.00243902252754565
0.00239434028141302
0.00234978030361889
0.00230536983995267
0.0022611262952099
0.00221706487660915
0.00217319901189902
0.00212953175909853
0.0020860508500621
0.00204274365292203
0.00199959252477894
0.00195658043535202
0.00191366898965231
0.00187082923556018
0.00182798718425203
0.00178512368435133
0.00174172638589413
0.00170225936645522
0.00165784120856608
0.0016140875540734
0.00156922219512463
0.00152538448183183
0.00147771092585673
0.00143495272499108
0.00138542357407306
0.00129159889333758
0.00123283973740446
0.00125291549930072
0.00133106344846232
0.00145445259778003
0.00161112107269192
0.00179572662407221
0.0020138898187892
0.00226514778120901
0.00254099690415341
0.00283646913739605
0.00314446713135711
0.00343692765406415
0.00372650781094529
0.00400704895965063
0.00433211224374826
0.00469068948030807
0.00528499574352491
0.00593644631908923
0.0068806756984798
0.00760795647693665
0.00863862738402846
0.00846855407429712
0.00651844547849366
0.00280296543724098
0.000457089457614606
0.000255184058267701
-0.000686774473988819
-0.000304176777025458
0.000149382589893825
0.000956155371019275
0.00226310549973262
0.00146489126634681
0.000956745966521528
0.000622710271387763
0.000448383523878533
0.000356659517823817
0.000312450073970185
0.000290378077776083
0.000283781202672247
0.000292375688689135
0.000314854738660447
0.000349608923158104
0.000395549419353098
0.000449590737201721
0.00051088278390163
0.000581619119225348
0.00066211546324352
0.000753829810109812
0.000863159258185293
0.000996412253548132
0.00117009541281113
0.00136182777537414
0.00152246504508603
0.00167358131606806
0.00182035118609312
0.00195624865130285
0.00207373366204602
0.00219193359682345
0.00229818849582512
0.00239443120003186
0.00248127291262786
0.00255891512762482
0.00262759139249912
0.00268752049643878
0.00273895448822935
0.00278214080147809
0.00281737806291246
0.00284501180075692
0.00286545743026493
0.00287918271290076
0.00288665505795271
0.00288834146255135
0.00288469284317762
0.00287615823084949
0.00286318763436506
0.00284623507167371
0.00282573773872813
0.00280207098283504
0.00277562636077371
0.00274892473531534
0.00272155512933633
0.00268996868962164
0.00265706015271301
0.00262304734530698
0.0025880523154691
0.0025522475478999
0.00251574140041874
0.00247867337824152
0.00244119072010769
0.00240340735021807
0.00236543005508839
0.0023273352849819
0.00228919656344208
0.00225106834806235
0.00221300316612517
0.00217504259562044
0.00213722327148507
0.00209956583584076
0.00206208435026096
0.00202479075975168
0.00198769437224516
0.00195079639633146
0.00191408456092015
0.00187754793493121
0.00184117285258691
0.00180494554847823
0.00176883862636075
0.00173282838343943
0.00169686770555142
0.00166094242549461
0.00162473557886239
0.00159205946486232
0.00155501070789839
0.00151898072173563
0.00148239416167318
0.00144687162561159
0.00140934202882297
0.00137563286510803
0.00134271359775585
0.00126224575412923
0.00119345546457109
0.00119038686285663
0.00124112092233671
0.00133559355568837
0.00146180409820233
0.00161226790794686
0.00179290035014032
0.00200726569286505
0.00225069347492406
0.00251979518542753
0.00281263011284593
0.00310476500490408
0.00340478921391439
0.00370308516545778
0.00404711839276006
0.00440697181351968
0.00495636509012209
0.00553383077750262
0.00635713990907129
0.00695730228675895
0.0078744582774963
0.00812481650525461
0.00763523378263034
0.00454043833974234
0.00181356446516338
0.00171176599611628
0.00029574602495877
4.50347091521107e-05
-0.000109906110769398
0.000616317258334801
0.00184366469910234
0.00168992134059789
0.00109376936349946
0.000713346753984025
0.000513401296260386
0.000404295124750896
0.000352623809935566
0.00032664522022618
0.000318041533547821
0.000325437817920183
0.000346587734653427
0.000378884949980789
0.000420099962147207
0.000466837414028192
0.000518778597696168
0.000578326857438117
0.000646147120685469
0.000724121679208969
0.000817287308589702
0.000929349258794677
0.00107519545581082
0.00123206721092284
0.00136732412818614
0.00150255681377778
0.00163441723773192
0.00175874716731905
0.00186580440598207
0.00197253824371221
0.0020688541653875
0.00215609133035863
0.00223473447663269
0.0023049581073759
0.00236699583224088
0.00242106339861827
0.00246741577993266
0.00250629615267236
0.00253799802521004
0.00256284799403004
0.00258122990065756
0.00259357980860167
0.00260033204527703
0.00260191913271534
0.00259875459912311
0.00259124556504854
0.0025797983694065
0.00256483656425784
0.00254676983876741
0.00252593205795535
0.00250266776773823
0.00248241845587419
0.00245672607425406
0.00242924831531632
0.00240058117784338
0.00237095739650062
0.00234050621410088
0.00230938562251
0.00227767675028321
0.00224549125088557
0.00221296404396184
0.00218020240332808
0.00214730437393662
0.00211433276114196
0.00208134912576107
0.00204840154273857
0.0020155390604868
0.0019827977837896
0.00195020824154592
0.00191778756951832
0.00188554939188855
0.00185350536010597
0.00182166352347038
0.00179002571946326
0.00175858206336163
0.00172732570461863
0.00169624882284036
0.00166534304065254
0.00163459243619182
0.00160398069863953
0.00157348563519574
0.00154310041159838
0.00151263616566582
0.00148142833467488
0.00145424975600844
0.00142457040028505
0.00139477965771875
0.00136603169978399
0.00133694077143227
0.00131062449136586
0.00129125117059927
0.00122524019584163
0.00115317844659342
0.00113359389246895
0.00116135605137035
0.00122984732137148
0.00132777534887139
0.00144637549689129
0.00159205758494633
0.00177159474863735
0.00198306012804533
0.00222393865542667
0.00249478470982938
0.00277293382941871
0.003062077672492
0.00335155540985651
0.00368056160410841
0.00400833503700096
0.00447465590700038
0.00494934683311581
0.00561628806226607
0.00608462904818898
0.00683445023615192
0.00715622442492205
0.00753986736212762
0.00571100491639327
0.0034777171308521
0.00310926970457753
0.00181534749111615
0.000655077704498865
6.41572714962142e-05
0.000137966519367446
0.00125236852919783
0.0018854397269771
0.00121800993876785
0.000791233222488099
0.00056505845147634
0.000449616230114545
0.000391722050825477
0.000362271801682063
0.000351100356741485
0.000355410321418827
0.000372188665194977
0.000398500445455124
0.000431900430608689
0.000469455304324699
0.000511411030173396
0.00056010811794225
0.000616222784269388
0.000681534611883552
0.000759838236125257
0.000853461082547683
0.000976728581066056
0.00110753721530208
0.00122475278710852
0.0013479743486269
0.00146827567584955
0.00158415962075729
0.00168213157738328
0.00177986964832168
0.00186820451639047
0.00194812610915752
0.00202004909250865
0.00208414202311423
0.00214064876841794
0.00218979266226358
0.00223184126027835
0.00226704338304908
0.00229569889570367
0.00231812891944165
0.00233469612801509
0.00234581319169381
0.0023518894514797
0.00235333049157153
0.00235051991773889
0.00234382941014224
0.0023336258118564
0.00232030576489396
0.00230425730133216
0.00228577914051487
0.00226738076272934
0.00224902403516637
0.00222623156052325
0.00220219045141528
0.0021770742690647
0.00215112277852994
0.00212446896759693
0.0020972580252454
0.00206954718499812
0.00204142251932382
0.00201300821730813
0.00198440661681809
0.00195570863593851
0.00192696522730948
0.00189822757523086
0.00186953903075235
0.00184094663759586
0.00181248245744921
0.00178417210273016
0.00175603043522438
0.0017280718216503
0.00170030870959579
0.00167274878015805
0.00164539518282137
0.00161824107587452
0.00159128427754252
0.00156452285503455
0.00153795402499545
0.00151157207741932
0.00148536822263676
0.0014593414442307
0.00143349218769023
0.00140772197904159
0.00138157993717668
0.00135887316589027
0.00133418157050924
0.0013099607332118
0.00128671544429097
0.00126450178498112
0.00124413981327119
0.00123519923002146
0.00118234356358588
0.00111108228105796
0.00108020736615103
0.0010891642287215
0.00113455513679101
0.00120641766687983
0.00129558629594623
0.00140930395433461
0.00155702719242653
0.00173881220515163
0.00195267878986835
0.00220004916954005
0.00245884795520661
0.00272713140516098
0.00299437378718348
0.00328971755879276
0.00356819111764551
0.00393559832718245
0.00430571268223641
0.00482221810907238
0.0051943739485859
0.00580088285778632
0.00608958642786094
0.00676166691118802
0.0060473885312686
0.00450406109081818
0.00382573156603001
0.00283962957236104
0.00130802716124343
0.000530505313098997
4.18087757433135e-05
0.000544465260259058
0.00205156664886626
0.00131080400832035
0.000858319895433165
0.000611815716773611
0.00048800061342725
0.000424755133552331
0.000391969850690945
0.000377678949656918
0.00037765519178685
0.000388556594379001
0.000407715478294481
0.000432920727488814
0.000461784669605608
0.000494821042267009
0.000534057886461514
0.000580002664123575
0.00063419371859503
0.000699531258364448
0.000777715471548136
0.000882716985084908
0.000993214413780672
0.00109643910919362
0.00120966168185031
0.00132022567525711
0.00142540804501699
0.00151915529900149
0.00160933428174699
0.00169083550438889
0.00176442336657134
0.00183047433535478
0.00188916425838733
0.00194075347233181
0.0019854796721431
0.00202362952464888
0.00205546382342773
0.00208129683677957
0.00210145426453082
0.00211628476057941
0.00212618290312824
0.00213153833088935
0.00213273464724587
0.00213013056441054
0.00212406665568259
0.00211487239987994
0.00210291944724082
0.00208857806441099
0.00207211583302577
0.00205901352351097
0.002041008425461
0.00202108119825104
0.00200002169559382
0.00197799167288369
0.00195523360069985
0.001931882156191
0.0019080706741173
0.00188383412465173
0.00185923387305254
0.00183438430276949
0.00180938389814716
0.00178431715498359
0.00175922375809776
0.00173414507611905
0.00170912064782315
0.00168419630156112
0.00165940058837204
0.00163475447514778
0.00161027103328229
0.00158596592641511
0.00156185276647333
0.00153793895665093
0.00151422896607363
0.00149071906436467
0.0014674117310363
0.00144431038499048
0.00142141741977783
0.00139873571077499
0.00137626359403454
0.00135401744207067
0.00133200455402579
0.00131019287629085
0.00128825081979212
0.00126956244510794
0.00124889737703175
0.00122932983398423
0.00121064357763642
0.0011940586193832
0.00117858229986319
0.00117754888828432
0.0011358505660928
0.00106762858441049
0.00102919753654392
0.00102294913158812
0.00104784297863684
0.00109566852194803
0.00115766962266344
0.00124228246454258
0.00136121349086357
0.00151585504888046
0.0017045598607065
0.00192864702655357
0.00216600614188308
0.00240878513130415
0.00264725115521056
0.00289922805206686
0.00312000615720154
0.0033832802648365
0.00365637846493682
0.00404154678503637
0.00435883175005886
0.00486278440846183
0.00511494380293938
0.00579352625877983
0.00574262953341724
0.0049040641421296
0.00402369302825066
0.00347640801436485
0.0019626066857761
0.00119544583296175
-4.97956934198416e-06
0.000251840810037125
0.00172499169664202
0.00141630962855827
0.000917676293429065
0.000652104165947858
0.000519479485030863
0.000450922913008528
0.000414681114329161