/*--------------------------------*- C++ -*----------------------------------*\
  =========                 |
  \\      /  F ield         | OpenFOAM: The Open Source CFD Toolbox
   \\    /   O peration     | Website:  https://openfoam.org
    \\  /    A nd           | Version:  7
     \\/     M anipulation  |
\*---------------------------------------------------------------------------*/
FoamFile
{
    version     2.0;
    format      ascii;
    class       volScalarField;
    location    "20000";
    object      omega;
}
// * * * * * * * * * * * * * * * * * * * * * * * * * * * * * * * * * * * * * //

dimensions      [0 0 -1 0 0 0 0];

internalField   nonuniform List<scalar> 
15600
(
3736.31926092749
3730.71984783345
3716.216662618
3712.47995735357
3746.10099034118
3716.67024677589
3572.29483921029
3339.18760594478
3055.42000532747
2751.54292721456
2471.67446020394
2239.85184329488
2046.37871271882
1882.86204576439
1742.91343315173
1616.40390234354
1495.33486323393
1381.26763254156
1276.0737801163
1181.63655142307
1102.01816957529
1039.28909512041
991.929421131594
958.804596868214
939.275073405246
933.140784902787
934.078523112099
934.079815230393
934.079815230368
934.07981523042
934.079815230406
934.079815230433
934.0798152305
934.079815230381
934.07981523042
934.079815230407
934.079815230446
934.079815230446
934.079815230392
934.079815230434
934.079815230446
934.079815230382
934.079815230368
934.079815230393
934.079815230391
934.079815230407
934.079815230434
934.079815230472
934.079815230418
934.079815230434
934.079815230432
934.079815230396
934.079815230418
934.07981523042
934.079815230395
934.079815230395
934.079815230443
934.079815230447
934.079815230446
934.079815230447
934.079815230486
934.079815230434
934.079815230444
934.079815230446
934.079815230368
934.079815230368
934.079815230381
934.079815230407
934.079815230341
934.079815230471
934.079815230446
934.07981523042
934.079815230443
934.079815230397
934.079815230469
934.079815230392
934.079815230419
934.079815230373
934.07981523041
934.079815230403
934.079815230394
934.079815230393
934.079815230474
934.079815230441
934.079815230421
934.079815230459
934.079815230279
934.079815230551
934.079815230524
934.07981523026
934.079815230267
934.079815230508
934.079815230532
934.078751859226
933.138515912279
939.322222133526
958.900603015115
992.075832980879
1039.48912410706
1102.27711362715
1181.95782582193
1276.44015879689
1381.67046299031
1495.76782508836
1616.85997431571
1743.39567446572
1883.41795800045
2047.03200158495
2240.62895177719
2472.61116565788
2752.65263507128
3056.52459232418
3340.17148199761
3573.03584560647
3717.02244084274
3746.03882814265
3712.43643865107
3716.28449931898
3730.76534325486
3736.31926092579
631.636014631784
631.205172004871
630.755470915635
629.277572069033
633.094910516385
626.738047554178
602.371905764139
563.331828248361
515.757493307206
464.662391887002
417.494288218467
378.338356740139
345.661805034629
318.059839010131
294.465909922917
273.170043955913
252.814378137996
233.627338083711
215.915536918069
200.010988368416
186.603903774537
176.02724875126
168.040911035464
162.461467519363
159.216727619823
158.534703360911
158.915240331848
158.766801360414
158.667220886337
158.604246611747
158.548147853108
158.49380632067
158.43644625402
158.374479109759
158.307308146034
158.23594963369
158.161092581226
158.083842873481
158.005286004564
157.926672494664
157.849172847272
157.774077809568
157.702416223548
157.634920996105
157.572216181648
157.514763713077
157.462940793253
157.41695381708
157.376930570883
157.34283088803
157.314684212559
157.292461751795
157.275895238382
157.264703091917
157.258456868235
157.256808927252
157.259256622229
157.265491071912
157.275365372678
157.288498423144
157.304586078572
157.323094417382
157.343687319229
157.366140698961
157.390157641966
157.415472485061
157.441743787733
157.468775927411
157.496345198629
157.524266180166
157.552300898727
157.580300444596
157.608120401489
157.635628038709
157.662668291886
157.689131693148
157.714946164151
157.740018838536
157.764263933038
157.787647857245
157.810088758432
157.831683662921
157.852255411355
157.87217927059
157.890971592961
157.909684501543
157.927047265981
157.946366015584
157.963768370534
157.988517879662
158.009037278824
158.050485647827
158.083632428654
158.242889084598
157.92139236877
158.556610561452
161.749681714163
167.270209176157
175.238463029781
185.815660859294
199.219046604023
215.178025345063
233.069216040663
252.543509242173
273.287263773807
295.09259318508
319.113482388514
346.976935940593
379.849918365252
419.12775996886
466.338501050018
517.849010002779
566.550280729501
607.038573000988
633.457549189274
642.119875988988
639.841965747723
638.044234884436
636.44906162025
633.127613738122
212.648291111502
212.535393786198
214.38162164315
212.581131968808
210.841681488729
206.618823523432
198.112206885217
185.348414381396
169.816139230903
153.087970208762
137.626407966757
124.761322063775
114.028130128155
104.985112733519
97.2774493269966
90.3292095342714
83.6976924094036
77.4419613246742
71.6561171218962
66.4724473264854
62.1227607973452
58.6877886892043
56.0966618511462
54.3136325969247
53.3981111527766
53.5892415772064
53.8885783112971
53.608036092509
53.3887058865614
53.2252924454341
53.0751420471423
52.9323317146975
52.7900725186959
52.6468148196934
52.5030918942015
52.3598849164388
52.2181555122844
52.0793296339379
51.9447197177758
51.815743044823
51.6936460466363
51.5797062185286
51.474771698296
51.3793139890603
51.2936888212995
51.2180788428334
51.1525857787834
51.0971351435068
51.0515838990293
51.0156421706164
50.9891518835388
50.9718788867589
50.9633094669375
50.9629289798415
50.9700748637816
50.9841895513919
51.0045398816455
51.0306950768937
51.0624138434507
51.0991577554758
51.1404624329289
51.185597646601
51.2340468912854
51.2854724306502
51.3394443789933
51.3955500989167
51.4532792117868
51.5123068351712
51.572287686819
51.6329114500448
51.6937981354635
51.7546774348896
51.8152978125755
51.8754188892597
51.9347664716402
51.9931215696934
52.0503228779926
52.1061828983811
52.160521476438
52.2132156498063
52.264101897771
52.3132159474655
52.3603035465863
52.4057135556498
52.4488741226109
52.4910357019399
52.5305768790295
52.5711375474676
52.6088224062776
52.6537535954418
52.6945121822475
52.7577733417592
52.8164881633661
52.9968131667254
52.6368982103967
52.3195112994224
53.1593258610238
54.856213542962
57.4106421458064
60.8439285621519
65.1920453323908
70.450396634703
76.4867863563406
83.1675030119307
90.3935133845729
98.1527389692034
106.63572445623
116.252184143065
127.435500223592
140.627535679707
156.237886464647
173.511327091536
190.525392389004
205.301892044235
216.378590270481
223.699990881988
228.764836349559
228.479803073371
223.410948187068
216.249300211683
106.744234180609
105.299451199753
107.431591729085
105.089517131004
99.9430911814373
95.2026854776167
90.5711031049515
84.7656035652163
77.7516354948197
70.1805093147022
63.1787972058856
57.3366260790457
52.4672069925234
48.3908267808302
44.9365651262159
41.8280622911137
38.8669602767701
36.0671394909794
33.4678370738574
31.1499820099151
29.2164513933981
27.6792624208797
26.5216016948242
25.7653472550693
25.5037786444738
25.8343941391113
25.8826887051096
25.4032250968786
25.0728521702185
24.8225965253796
24.6082356935131
24.4188568001603
24.2449102462973
24.0837016846635
23.9332634568591
23.7923984050428
23.6606950432651
23.5381576615596
23.4247888441987
23.3207797978179
23.2262609067869
23.1414591990835
23.0662993148765
23.0005143607015
22.9438625698306
22.8960592780441
22.8568435745253
22.825889335427
22.8028850372716
22.7874720828113
22.7794652098992
22.778644596777
22.7845952200748
22.7969345379633
22.8151846902725
22.8389655827877
22.8677628749556
22.9013169444906
22.9395211596422
22.9821279784752
23.0287918708217
23.0789562841549
23.1322551542883
23.1884937552465
23.2473766685427
23.3086069776487
23.3717863384858
23.4366733608908
23.5030085605697
23.5705491718503
23.638973638627
23.7080490450832
23.777562675159
23.8473061080547
23.9170272738832
23.9865148135165
24.0556175035686
24.1241618106006
24.1919730620714
24.2589336028724
24.324886096739
24.3898877708489
24.4537097243338
24.5167573381736
24.5785058638337
24.6405714077071
24.7013722986448
24.7647381545045
24.8268482019146
24.8989159099476
24.9695738936545
25.0687658435379
25.1651527197081
25.4021012854421
25.098452579577
24.4932122574085
24.5937271998479
25.1904255217788
26.2285509600886
27.6874860664081
29.5436986412159
31.8410316269362
34.5856304951128
37.7250477211207
41.2214771549604
45.1493515602289
49.5008464621055
54.3270561494719
59.8054158476065
66.1008898588038
73.235538058699
81.0627218998848
89.1610750327926
96.4963043901271
102.766267657639
109.077534257964
118.151584707899
123.040559329639
120.35893391261
112.436152945393
70.3479889133064
67.2176115046127
69.1827383795537
67.2908232729696
59.5296514015073
53.1682483496523
49.6415847732976
46.4852428251575
42.7342374496208
38.6646696287889
34.8977804172195
31.7428031743708
29.1202312116476
26.9501707942258
25.127067394699
23.4863973776482
21.9206105781329
20.4253868952648
19.0226179719117
17.7731638957376
16.7267740143914
15.8776986979698
15.2415701586596
14.8627346079317
14.8080330667053
15.0450013487234
14.874144096363
14.3550413001185
14.0610199308364
13.8484572185922
13.6836994094776
13.5495520798124
13.4355302693088
13.3373040553064
13.2498476922964
13.171685037602
13.1014428814107
13.0383201553013
12.9816708557718
12.9311288225619
12.8863970581773
12.8473328952319
12.8136515514647
12.7850200766313
12.7611846961037
12.74190550313
12.7269938549272
12.7162451570539
12.7094868834167
12.7065381220074
12.7073543034401
12.7118748071951
12.7199203482071
12.7313440815212
12.7459403043639
12.763566496252
12.7839968587524
12.8071378353971
12.8331385824443
12.8618908733851
12.8932304979117
12.9268622587209
12.9626257628939
13.0004827347735
13.0403134936716
13.0819912786242
13.1253092152592
13.170169325276
13.2164602109159
13.2640760416782
13.3128438027809
13.3626494942456
13.413395956928
13.4649874967395
13.5172887693451
13.5701883762227
13.6236257574576
13.6775282455693
13.7318187421657
13.7864730908715
13.8414331894442
13.8968471776759
13.9526190198479
14.0092514195894
14.0664412604384
14.1257806225782
14.1865425787474
14.2525382917984
14.3204061578048
14.402005676475
14.486645246498
14.6082301534748
14.7288044536853
15.0205509658733
14.8650782439774
14.2526929651819
14.0602811990024
14.2113486065736
14.6440674479118
15.3238707573859
16.2061401413204
17.3231999755215
18.7120086225204
20.3581277033639
22.2439929478703
24.4704642033025
27.0243616668976
29.8545126249732
33.0219414044638
36.5743054757862
40.3703314597754
44.3052214646448
48.5159464637944
52.3255585822867
55.8989897933526
60.1880931982136
69.9867114345936
79.3993619154636
82.1364404204751
76.720263346155
53.9517851362484
49.8834093214881
51.6483958926721
51.4213311690605
42.534186695387
33.9103351085211
30.3529919249043
28.420713214091
26.2287097359238
23.8254322358912
21.5960845580151
19.7177592192396
18.1643303504637
16.8998069929315
15.8454857553074
14.8885889148257
13.9631941548182
13.0586856821664
12.1951611339387
11.4249633070881
10.7746900183273
10.2408060069996
9.85503815570555
9.65651577393481
9.67172622948118
9.81369584996151
9.59348028523259
9.19902072384149
9.01886018591555
8.89225577280095
8.80450358992185
8.73815750017891
8.6859067636682
8.6431072041257
8.60617303885388
8.57427252662858
8.54628957400217
8.52163330556512
8.49983737783214
8.48065862392775
8.46392088044829
8.4495623871329
8.43743100339292
8.42735958975868
8.41924116487143
8.41297908715124
8.40851110021612
8.40576425782066
8.40468597653787
8.40522108078203
8.40740673765732
8.41126605960195
8.41674431678651
8.4238091050923
8.4323875476279
8.44244204451917
8.4538844401006
8.46675015683375
8.48122128079973
8.49722464134574
8.51469355907344
8.53347623242859
8.55351049723392
8.57481883449026
8.59736403116799
8.62110190810281
8.64593166795732
8.67182679336929
8.69875343780271
8.72667975602634
8.75552418298405
8.78524427238717
8.81581228004558
8.84720260537324
8.87936009833332
8.91224401782401
8.94585389181673
8.98018593501414
9.01523279193744
9.05103269824644
9.0875977156204
9.12511627568358
9.1635859699608
9.20350909306793
9.24475863056631
9.28859357422517
9.33483360576408
9.38708141632795
9.44250851940322
9.51222581017815
9.58649493394561
9.69965338672637
9.81015252057156
10.0963970573227
10.0737965479259
9.58708353673525
9.32363579794698
9.30049565375525
9.47444304982709
9.81299366513161
10.2714548044319
10.863809680867
11.621473627126
12.5427047050241
13.6143290803036
14.919182580193
16.4649902296229
18.1922273673311
20.1214712491055
22.2531305268855
24.4367300674775
26.500466325882
28.7559859866825
30.6822146312294
32.6778851177807
34.9841171850742
42.7293175908733
53.2397986109342
60.6087994532871
59.2098832084743
43.6009240530706
39.7232740343996
41.3197997484918
43.3610732015327
35.1430122136829
24.3418447465607
20.0117708358079
18.6356291133587
17.2837721669719
15.7874202902607
14.3970816511292
13.2154907558667
12.245861949637
11.4715024374454
10.8261617995941
10.2268485122281
9.6321684945011
9.03409778006505
8.4576188619682
7.94910696850336
7.52321037464461
7.1801487514845
6.95129506015283
6.86017384589226
6.90690399378197
6.99944504425645
6.81645300522898
6.55825742240242
6.4641372374823
6.39743407480806
6.35793689179823
6.33074875944732
6.31181232783591
6.29723664843843
6.28531455521888
6.27556079282552
6.26726204001772
6.26010010142634
6.25382400722448
6.24833729412949
6.24358570330073
6.23958694641698
6.23628793600239
6.23362715665686
6.23158298154438
6.23013675773326
6.22928997899742
6.22903368664665
6.22937030081228
6.23030119333544
6.23189185254039
6.23419401731694
6.23720368917826
6.24093136205639
6.24535690971662
6.25047777710729
6.25628340734266
6.26286215996906
6.2703446471362
6.27868739788599
6.28786593826714
6.29779479824923
6.30845108972004
6.31987348080828
6.33205629416344
6.34498716170299
6.35861309637467
6.37293378641849
6.38794564880227
6.4036456407357
6.41999402323578
6.43697800944136
6.45459763977246
6.47285564057169
6.49173320362754
6.51122064111698
6.53133982210876
6.55211404638913
6.57356402230921
6.59574822790046
6.61870464247297
6.6426157702615
6.66751548275876
6.69384757185119
6.7215632503207
6.75168921771798
6.78400916680946
6.8218807776769
6.86285161134753
6.91669478400388
6.9744222367239
7.0680680008022
7.15613221641179
7.40026438735787
7.45583554900249
7.10976708193694
6.86384072262665
6.78128714296864
6.84149855909945
7.02048922841192
7.28076466465214
7.62515801566978
8.07519986535676
8.63252203120202
9.28556759000804
10.0912468992443
11.0665547002368
12.16187134132
13.3871231086345
14.7227130733362
16.0697147296214
17.2196335703647
18.5048541490819
19.4898499894728
20.6638934223135
21.7555767182816
26.8064511575533
35.4363427873714
44.6791727203794
46.7093661537813
35.1529558501561
32.3012227671637
33.825428196732
38.114539164196
31.9152235801535
19.7286558375678
14.1375006234399
12.8740364335454
11.9772540944914
11.0056438914468
10.1105753582272
9.34358051135081
8.72183478544796
8.23580725313467
7.82714838728979
7.43439480436377
7.0335349371995
6.62235340407914
6.22853368153136
5.88950497008314
5.61162217660952
5.39656264339818
5.2693715843003
5.24139252646077
5.30125700690031
5.36886553833264
5.23376121377778
5.07016534842867
5.02429096149135
4.99062499207294
4.97600359673324
4.96811102244611
4.96481209510919
4.96327168662705
4.96272295724321
4.96285718650555
4.9632256116693
4.96366840015142
4.96405876597264
4.9643787420542
4.96463626618558
4.96488455582229
4.96511912023862
4.96532988765351
4.96553431013933
4.96574914045339
4.9660032073462
4.96631576192457
4.96671266656264
4.96722002093197
4.96791062507469
4.96884422570919
4.97003818801494
4.97151914236692
4.97328882938523
4.97536029204568
4.97777532219325
4.98061587246036
4.98397670986845
4.98783614401312
4.9921888008427
4.99698308697875
5.0022135031508
5.00792129732355
5.0141136675325
5.02079126493925
5.02792457860545
5.03552299115931
5.04359486890427
5.052148236776
5.06116327150328
5.07063949391809
5.08058750050111
5.09102058026265
5.10193592052988
5.11333678616447
5.12525140427918
5.13771159807156
5.15074725532987
5.16441937445553
5.17877256888259
5.19396940448592
5.21005475642034
5.2274068128648
5.24600636207335
5.26673704502122
5.28924922526525
5.31655927622356
5.34651775144673
5.3875739758367
5.43143913817367
5.50681083744268
5.57501270851149
5.77200670631217
5.86351962935521
5.62911810065453
5.42379298063903
5.32649624699784
5.33418686289813
5.43184455924341
5.59003567711284
5.80626549051671
6.09475387584543
6.45790702251725
6.88612158366179
7.41677894782416
8.0688629017169
8.80241191754379
9.62580433775163
10.5093805861374
11.4052686637114
12.1030158448849
12.908020207594
13.4443999489557
14.2067719962437
14.7134537011538
17.8218641812764
23.70821118861
32.3538402270734
36.1865889892583
27.8129482672491
26.2055854855372
27.6282441252117
33.8199690157845
30.381867827696
17.859148893543
10.8407770893348
9.35428174798007
8.66681529502704
7.99508811606185
7.39953827751886
6.89021929483678
6.48636658547568
6.17936193228059
5.91767355607963
5.65640879191349
5.38297365030928
5.09915308805734
4.83091167311992
4.60612543783712
4.4265283970729
4.29478512518221
4.22995278530399
4.23630608175101
4.29880132817129
4.35182454864595
4.2549256210644
4.15072773458478
4.13048740846631
4.11483158381068
4.11291116651425
4.11456748102637
4.11869043739699
4.12331064994557
4.12806590017937
4.13274193377755
4.13704703388207
4.14090402476466
4.14425189086719
4.14710973958391
4.14951369113488
4.15152930902677
4.15317500676664
4.15446581946045
4.15543703807554
4.15612182737565
4.1565609185483
4.15678672032452
4.15683577021838
4.15674594630535
4.15659039225048
4.15643011160185
4.15629256183016
4.15621086638819
4.15619667589258
4.1562803699372
4.1565245731792
4.15699372896925
4.15776392978159
4.15882782590827
4.16018978946204
4.16181803844886
4.16371615830867
4.16592417669198
4.16845513078219
4.17131568527273
4.17448952108349
4.1779899608921
4.1818304348867
4.18602338064512
4.19055956831658
4.19544418475294
4.20069192295817
4.20631986032535
4.2123326820561
4.21873939708222
4.22556905946259
4.23285516480405
4.24062975946838
4.24895070292155
4.25786273949498
4.2675075659305
4.27793237239182
4.28945826749034
4.30207807586983
4.31656246483821
4.33251263572812
4.35253597616145
4.37476754169487
4.40649422995789
4.44017745230684
4.50098167297664
4.55456754447356
4.71109370937556
4.81438254779003
4.6598710113754
4.49586102323859
4.40113030147084
4.38401122812705
4.43691868448572
4.537504929669
4.68114016776793
4.87729513421174
5.12842165476201
5.42700599297899
5.79761328082507
6.2586014061158
6.77743025637269
7.36335962709375
7.98171636554944
8.62007894551902
9.08240488532514
9.6374760279757
9.95603893413005
10.5005484937224
10.7415193413239
12.7199356224805
16.4072336098858
23.2914630973706
27.5290151971198
21.7400230284504
21.2010017706116
22.2500485476519
29.7903960412772
29.3670375987247
17.483548921357
9.1410129366843
7.20174861721031
6.56009751127363
6.0469140267145
5.62865627356442
5.28041189163111
5.01511089831138
4.82187918856753
4.65520284857863
4.4820022120377
4.29592921655396
4.10043131419248
3.91785213918535
3.76863174434176
3.6527803006348
3.57376046554399
3.54600293416123
3.56989796918513
3.63000049760043
3.67356741616717
3.60466564967722
3.53785748449311
3.53160125261186
3.52632878634449
3.53119459678971
3.53782625868266
3.54568112434439
3.55338362913157
3.56075036663956
3.56762395633368
3.57380783796853
3.57926847190171
3.58398060011142
3.58798033261277
3.59131602475424
3.59405585250477
3.59622957423967
3.59786543847129
3.59900748386426
3.59969721485018
3.59998104528576
3.5998983223909
3.59949117059862
3.59880390670917
3.59790808356535
3.59686404008688
3.59570480394948
3.59446644749733
3.593167576968
3.59185619338236
3.59059338476618
3.58943296586388
3.58844019424281
3.58761738994927
3.58697459579983
3.58649305361944
3.5861819493506
3.58607921553374
3.58620077136158
3.58655641741218
3.58713817284361
3.58796117850806
3.58904111951778
3.59039215483582
3.59201128614158
3.59390663481485
3.59609444403036
3.59859287444388
3.60141031642154
3.60455849518112
3.60806547270394
3.61196392427326
3.61628546915397
3.62108336443964
3.62640050049114
3.63236013605408
3.63900899009396
3.64662124147226
3.65519625539225
3.66540738325313
3.67687451000231
3.69179557020233
3.70857987372139
3.73351035714874
3.75984957107984
3.80936623177944
3.85257900278228
3.97708024624697
4.07981848402403
3.9806075165438
3.85247695836245
3.7668759097865
3.73855903715164
3.76551804779323
3.83120668475624
3.93047638742164
4.06978867793228
4.25143498694171
4.46978708767322
4.7411747696541
5.08250905309667
5.46686651622958
5.90470336106376
6.35944516415283
6.84044643091401
7.17135065316387
7.58576086118451
7.79264791515402
8.21024356699537
8.32615346733849
9.66943622321167
11.9505681547837
16.9927480206539
20.84615929458
16.9739253007123
17.1943500593624
17.6854282542621
25.8316725568375
28.2571190761279
17.8651656450221
8.45496816866271
5.91802503371137
5.2132691105143
4.7709186475194
4.45209578116743
4.20232533328855
4.02394013101474
3.90252705266431
3.79744220606907
3.68330869580212
3.55667475411112
3.42141136246115
3.29621377299587
3.19641328873666
3.12172052064043
3.07600467029934
3.07016787233946
3.10245638921452
3.15831344082821
3.19555534141373
3.14718898048217
3.1047160211268
3.10653332600615
3.10771906638753
3.1164622375301
3.12588843939472
3.13577756577969
3.14514701044634
3.1538975768572
3.1619105368521
3.16904972854849
3.17530567060325
3.18067363637347
3.18519734686959
3.18893017677912
3.19193927536841
3.19426062815973
3.19593029815817
3.19699724452408
3.19750790683051
3.19751196857474
3.19705315297364
3.19617718126972
3.19493257988704
3.19338915508209
3.1916063468892
3.18962088437371
3.18747050575108
3.18518299467335
3.18281596169506
3.18042321885163
3.17805357140083
3.17576534741596
3.17356771251569
3.17147447853797
3.16947628100195
3.16758629426875
3.16584038159143
3.16425597931164
3.16284473493142
3.16160445344189
3.16055127559181
3.15970189752308
3.15907102609942
3.15865963165505
3.15847753881043
3.15854147041755
3.15886952238474
3.15947193689182
3.1603617654076
3.16156554511712
3.16311424155411
3.16503808754694
3.16738563476126
3.17019742739166
3.17358111347347
3.17758210433908
3.18243620288522
3.18814784119842
3.19530476420559
3.20357594077426
3.21479728957415
3.2276257786686
3.2474763642813
3.2684304060091
3.30913107990235
3.34487346497726
3.44464874277086
3.54103909432836
3.4797214200101
3.38107315407216
3.30668966046083
3.27429329627646
3.28578730795394
3.32923748319531
3.39977015106486
3.5019538124612
3.63788223691181
3.80349027316532
4.00975602164711
4.2719406163037
4.56746230244796
4.90766828843283
5.25604854557345
5.63448665149152
5.88682631598208
6.21543452868094
6.36142357177504
6.69752993489803
6.75062761391902
7.7198970596603
9.17030001000852
12.7482588922338
15.9271107456334
13.3704571508456
14.0167418793032
14.0347961173435
21.964924562699
26.7275517400188
18.5462991849411
8.43434907453938
5.20365606566707
4.35441968708853
3.92763888115712
3.65943369802673
3.46732947412026
3.34179570450675
3.26464186980486
3.19887012932724
3.12380568297137
3.03708875220405
2.94250705355138
2.85564067405867
2.78836768116453
2.74059104612873
2.71620247333785
2.72338918098487
2.75923938846022
2.81056000378475
2.84362070056083
2.81068254090449
2.78471998725506
2.79155958126484
2.79710216025983
2.80825966548178
2.81941963583008
2.83054646999525
2.84092218327557
2.85048983477689
2.85915962693887
2.86683570886022
2.87352267839856
2.87922840046612
2.8839998705442
2.88789231248342
2.89097082835577
2.89327541939124
2.89484751870304
2.89573949146245
2.89600135306867
2.89568525669827
2.89483831647369
2.89350916596191
2.89174965978414
2.88962832184982
2.88720405031206
2.88451653018988
2.88160553898622
2.87850959931041
2.87528741334525
2.87198746145546
2.86865637145014
2.86534780322433
2.86207604018336
2.85885774080606
2.85569082452863
2.85259164549362
2.84959429324677
2.84671705419879
2.84397281605724
2.8413637063609
2.83890655382671
2.83661848348294
2.83451421628857
2.83259741498377
2.83087900775297
2.82937572910571
2.82810510670993
2.82707825705103
2.82630886630455
2.82582186912024
2.82564624931057
2.82581051875872
2.82635883914195
2.82732939811014
2.82881672708271
2.83086471956479
2.83367752018621
2.83726429927664
2.8421374280679
2.84802207004664
2.85645505028331
2.86630642822679
2.88223797453018
2.89913318750825
2.93282909760392
2.96300376215073
3.04374885233118
3.13140953825442
3.09594976082423
3.02095188575601
2.95791743920969
2.92529427077242
2.92754620757166
2.95633915904386
3.00744116897218
3.08424489853522
3.18866757270366
3.31788458717437
3.4793311938961
3.68663690942402
3.92066845549128
4.193246844268
4.46914484004637
4.7769907975286
4.9795296666733
5.25191166480262
5.36271365970779
5.64195734868034
5.66131652305625
6.39452179824549
7.35670834799182
9.89532551832043
12.4008025985925
10.7162924891857
11.5093730312626
11.2720886987181
18.2820103256215
24.8121736636568
19.1578719676644
8.87121071166472
4.88587370885618
3.81707956695766
3.36618707848022
3.11746502554389
2.95642126903219
2.8613919816782
2.81049924233625
2.76929999049866
2.71980033847452
2.65980392288
2.59279818122659
2.53180599257697
2.48631132988915
2.45650419471915
2.44603747030974
2.46100494707506
2.49792926880246
2.54510684530575
2.5755245831952
2.55451718116603
2.5402502285256
2.55050732853458
2.55923735385059
2.57206668243017
2.58444585969493
2.59644251866506
2.60752349741031
2.61765485890274
2.62676997757318
2.63480127514802
2.64176225741381
2.64766912023311
2.65257022795394
2.65652139264389
2.65958576370042
2.66180650411806
2.66322937742166
2.66390969626396
2.66390063004356
2.66325671226897
2.66202818080853
2.66026647562026
2.65802652030848
2.65537621664605
2.65237447361628
2.64906368790102
2.64548765113396
2.64169329773632
2.63773696613561
2.63366444635081
2.62952167235491
2.62535910853636
2.62119508521763
2.61704866374083
2.61292374099424
2.6088394176201
2.604828365042
2.60090939023208
2.59709633717688
2.59339476119579
2.58982207546569
2.58639555530486
2.58312969502426
2.58003008431703
2.57710844601614
2.57438132211682
2.57186545485578
2.56957229031362
2.56751578407837
2.56571934897969
2.56420996124967
2.56301432848339
2.56217264077276
2.5617208611651
2.56174246116469
2.56227979073271
2.56351057439036
2.56544857433429
2.56854002218198
2.57256430512206
2.57881449043409
2.58634395118951
2.59915809470736
2.61289960556022
2.64092868534023
2.66678043246597
2.73279156751812
2.81108522990787
2.79318425250125
2.73692278941892
2.68450772738356
2.65374480034973
2.65061650582341
2.66955325733095
2.70710621850805
2.76595768633518
2.84788598755947
2.95102431901547
3.08041872766588
3.24816800741112
3.43795006376426
3.66169315971983
3.88618543831969
4.14328939127595
4.31274027091587
4.54597641504955
4.63530468845075
4.87211048957567
4.8721376150447
5.44624827831522
6.11270608789185
7.94485697727296
9.87984530109011
8.77934914026044
9.52254440345963
9.27234277705917
14.8705810893627
22.6676343710072
19.4310108210592
9.62094937870686
4.87397226907042
3.50410385236771
2.993576013921
2.74250704594167
2.59462998260045
2.51526323606641
2.47880770357406
2.45245070819039
2.41952936596676
2.37749261235757
2.32939779976247
2.28616607457039
2.2555613498481
2.23802282863448
2.23682453104512
2.25645129668717
2.29322907544033
2.3369109560262
2.36581260353627
2.35429798104342
2.34868271464833
2.36150790481921
2.37275642256322
2.38688843250392
2.40025197659944
2.41296447789736
2.42462920104252
2.43522631716665
2.44470862755211
2.45302938012861
2.4602083084519
2.46626761831826
2.47125634175278
2.47523054592975
2.47825198860781
2.48036680550532
2.48162475361097
2.48208413681971
2.48180130749645
2.48083341560962
2.47923390022374
2.47705717236441
2.47436127067214
2.47121417430005
2.46767540770635
2.46379039840488
2.45960873651354
2.45518198646
2.45056427725955
2.44580053614109
2.44093686867941
2.43602159530906
2.43107643105316
2.42612264740681
2.42116927148472
2.41623790424292
2.41136014317443
2.40655516351153
2.40183764751279
2.39721600539287
2.39270821868959
2.38833158191617
2.38410026498804
2.38002130585976
2.37610705730928
2.37237378553246
2.36883736335512
2.36550925250149
2.36240347799892
2.35954205905061
2.35695003502325
2.35465232845266
2.35268557322227
2.35108366725785
2.3499206909864
2.3492374629884
2.34918942060764
2.34979467150751
2.35144162873529
2.3539585264585
2.35843945825126
2.36409597296144
2.37436107037002
2.38557648037084
2.40894457468021
2.43130065724819
2.48578670722792
2.55494011781201
2.54885334610751
2.50731604970027
2.46443871058314
2.43661504680005
2.43057169350687
2.4428244639875
2.47072920583762
2.51656091452244
2.58199517802114
2.66588656440705
2.77164252388149
2.90996230633142
3.06686866758401
3.25412118899992
3.44094431194765
3.66034492590243
3.80699522012981
4.01154850042278
4.08699182151371
4.29037170982777
4.27856467208027
4.73955926428493
5.21854272091914
6.57525198330203
8.05408837572528
7.35921490436589
7.93556128119832
7.87360389376832
11.8098369225111
20.3970810402152
19.3855106592349
10.5649016167651
5.12872201774201
3.36354435718551
2.75440917551149
2.48286246473491
2.33513205267448
2.26109485706962
2.23102574096855
2.21293402722471
2.19055403056052
2.16063350703265
2.12568107574795
2.09485854706755
2.07464615831922
2.06566345396111
2.07075107734959
2.09316412878412
2.12926275076088
2.17015119311101
2.19837372814781
2.19461838755474
2.19568602142701
2.21063793907428
2.22401898594632
2.23928726460069
2.25354806381756
2.26693371223638
2.27915381320196
2.29019870717596
2.30003800752751
2.30864107539306
2.31603253072327
2.32223933929416
2.32731111432477
2.33130430900521
2.33428003554386
2.3362875589921
2.33738066441268
2.33762094000204
2.33706817874786
2.33578253770678
2.33382091202047
2.33124098242133
2.3281041085845
2.32447903036899
2.32042649053044
2.31599604768401
2.31124295687733