/*--------------------------------*- C++ -*----------------------------------*\
  =========                 |
  \\      /  F ield         | OpenFOAM: The Open Source CFD Toolbox
   \\    /   O peration     | Website:  https://openfoam.org
    \\  /    A nd           | Version:  7
     \\/     M anipulation  |
\*---------------------------------------------------------------------------*/
FoamFile
{
    version     2.0;
    format      ascii;
    class       volScalarField;
    location    "20000";
    object      p;
}
// * * * * * * * * * * * * * * * * * * * * * * * * * * * * * * * * * * * * * //

dimensions      [0 2 -2 0 0 0 0];

internalField   nonuniform List<scalar> 
15600
(
2.96679525967606e-09
0.00860937691598498
0.00982020718891806
0.0264497468172591
0.0404226720483818
0.0491295965633227
0.0528779407994752
0.0563707104302055
0.0583760787345573
0.0600858226211197
0.0611856807605502
0.062170828565978
0.0629405589897459
0.0636034963949135
0.0641524562555236
0.0646735239756376
0.0651553174159583
0.0656442468253489
0.0661689461511547
0.0667073778692792
0.0672388435949752
0.0678181001734228
0.0684363356455658
0.06907942837345
0.0698211257078346
0.0700608499434445
0.0705354653923548
0.0720425345818179
0.0740627847787005
0.0765654175868966
0.0794378020138886
0.0826275244747149
0.0860836610199816
0.0897672135030473
0.0936426905145594
0.0976763098894236
0.101836583924264
0.106093043084019
0.110416847727859
0.114780246918991
0.119157251635879
0.123523245895293
0.127855924358967
0.132135570346661
0.136344905099852
0.140469184071841
0.144495941748522
0.148415085658907
0.152218559446379
0.155900457389231
0.159456444762345
0.162883759166025
0.166181422095574
0.169349726784941
0.172390400177677
0.175305914567044
0.178099746562008
0.180775766193629
0.183337992698356
0.185791140342084
0.188140049732988
0.190390190994502
0.19254698541769
0.194615819558033
0.196602193414095
0.198511481769096
0.200349198142157
0.202120571393432
0.203830860595797
0.205485120887077
0.207088415205235
0.208645567798724
0.210161348825537
0.211640409537036
0.213087364392347
0.214506708451247
0.215902876414348
0.217280316070132
0.218643540097533
0.219996961738426
0.221345395698691
0.222693255338769
0.224046260088445
0.225408674269754
0.226788355444914
0.228188519385836
0.229622293237482
0.23108859407424
0.232614703434786
0.234184678017497
0.235863937935029
0.237587825647817
0.239527908043957
0.241450619174718
0.243856162208984
0.246483360231153
0.248510493948931
0.250373792504435
0.251786045559516
0.252671846381534
0.25288848292158
0.252045455485294
0.249826523990476
0.246135769798299
0.240940204839277
0.234200520844643
0.226583770845467
0.218147046613055
0.208239439967691
0.196105422670478
0.18061237067532
0.158186586575329
0.125769452651675
0.0847576657063014
0.0337580972129732
-0.0202349621427405
-0.0638711700871747
-0.058441355853499
-0.0404157770714196
-0.0127733470154426
-2.52613697597922e-06
0.00861111655660719
0.00982931098835894
0.0263856229036908
0.0403164245060403
0.049038702119118
0.0528125309142649
0.0563167454664895
0.0583393406744063
0.0600593490184789
0.0611684040967921
0.0621580352997975
0.0629320710613318
0.0635982305693492
0.0641494624457811
0.0646717418777351
0.0651543005229626
0.065642984472268
0.0661672532588323
0.0667059006785196
0.0672375122044152
0.0678165430948168
0.0684347511433019
0.0690782930547269
0.0698218984706521
0.0700654001381861
0.0705465241272916
0.0720552166417514
0.0740757120714654
0.076578723678804
0.0794513045692356
0.0826410955990867
0.0860971524490814
0.0897804892400804
0.0936556215559681
0.097688784283429
0.101848502344338
0.106104319601697
0.110427410827137
0.114790040134207
0.119166233808456
0.123531391321927
0.127863221549104
0.132142019939683
0.136350518505529
0.140473981895415
0.144499952412571
0.14841834369528
0.152221104125217
0.155902331350803
0.159457693696627
0.162884430771006
0.166181564067484
0.169349386058446
0.172389621676542
0.175304741097502
0.178098217861686
0.180773920145024
0.183335864436278
0.185788761432521
0.188137450107892
0.190387399758489
0.192544029558024
0.194612721230078
0.19659897218511
0.198508155152873
0.200345780697352
0.202117075864078
0.203827297757474
0.205481499693287
0.207084742436028
0.208641848721103
0.210157587257006
0.211636607870667
0.213083523411886
0.214502827679003
0.215898954335648
0.217276349898269
0.21863952593757
0.219992894516747
0.221341269476948
0.222689063109084
0.224041994103677
0.225404325531328
0.226783914369601
0.228183973488456
0.229617634455725
0.231083809283267
0.232609795195941
0.234179630400825
0.235858795117044
0.237582560856465
0.239522787953802
0.24144545167625
0.243851363359557
0.246482910983088
0.248513556142123
0.250378053611435
0.251786409627464
0.252662398447614
0.252859725820614
0.251986270339929
0.249730615547776
0.246002031873085
0.240770557359096
0.234006488925991
0.226373456230983
0.217910890094185
0.207959861422371
0.195758961128597
0.180146065374117
0.157548439795402
0.124991488178166
0.0839111440399597
0.0329942448565224
-0.0206761536055761
-0.0638262111973652
-0.0582942512828243
-0.0403449826166523
-0.012756930532998
2.71055073075261e-07
0.0086223680987124
0.00985269334968857
0.0263342836587952
0.040219288605853
0.0489535403867663
0.052748849350978
0.0562635137881386
0.0583024804453224
0.0600326847075876
0.0611508770905418
0.0621451407649993
0.0629235440924942
0.0635930563354042
0.0641465993489596
0.0646699865067061
0.0651530065380821
0.0656409139337651
0.066163899148487
0.0667016476505743
0.0672321796730679
0.0678096215417363
0.0684263298022767
0.0690690939986076
0.0698127761782532
0.0700613453966433
0.070554292894756
0.0720661400593135
0.074087295105129
0.0765909041213877
0.0794637311447305
0.0826535557454335
0.0861094371182129
0.089792423056545
0.0936670624713774
0.0976996142166714
0.10185861825
0.106113635222851
0.110435859922726
0.114797574997322
0.11917282681672
0.123537032153144
0.127867914491952
0.132145782321324
0.136353378827465
0.14047597829988
0.144501130366807
0.148418754357193
0.152220802091668
0.155901374332389
0.159456141974726
0.162882344806498
0.166179002747914
0.169346405330401
0.172386274136885
0.175301075198526
0.178094277654256
0.180769746680916
0.183331495428355
0.185784236361666
0.188132812152837
0.190382679069175
0.192539246492903
0.194607896756748
0.196594124749174
0.198503299964678
0.200340929843372
0.202112239099192
0.203822483109547
0.205476713183171
0.207079988018568
0.208637128569786
0.210152902333449
0.211631957840412
0.213078906519601
0.214498240875585
0.215894393693997
0.217271810531109
0.218635002146932
0.219988379271318
0.221336755734999
0.222684541757087
0.224037457903055
0.225399762366376
0.226779320788949
0.228179330124659
0.229612943986221
0.231079036148168
0.23260498033319
0.234174694987614
0.235853896347882
0.237577488840158
0.239518127812936
0.241440041555033
0.243845496075399
0.246480748156773
0.248512612142072
0.250376500486971
0.251778852379301
0.252642603562633
0.252818183923926
0.251912746439098
0.249620532177884
0.245855903685213
0.240592011743163
0.233807193539655
0.22615834954845
0.217667730525168
0.207670856012071
0.19540031435375
0.1796684372372
0.156916982259092
0.124260445104155
0.0831763310687147
0.0324413078936422
-0.020799052017492
-0.0634690164282383
-0.0580067841247331
-0.040242493911087
-0.012733136709333
1.45799181499058e-05
0.00865002580335575
0.00990282896480193
0.0262997135399041
0.0401287241937445
0.0488772698259575
0.0526905779638184
0.0562133648232628
0.0582671076220384
0.06000670913719
0.0611336750179354
0.06213248639494
0.0629152265170072
0.0635881134907263
0.064143900233249
0.0646680423942786
0.065150847173135
0.0656369041633816
0.0661569383003372
0.0666916113209155
0.0672187476366353
0.0677920622980653
0.0684046931974987
0.0690444141002161
0.069784445438102
0.0700417787201283
0.0705558923601942
0.0720729896233601
0.0740956805259862
0.0766001707087623
0.0794731373210032
0.0826626799756793
0.0861179346651776
0.0898000536949812
0.093673666968328
0.0977050561294581
0.101862791361701
0.106116466690589
0.110437310231415
0.114797633700655
0.119171514511886
0.123534393055823
0.127864009299665
0.132140686124704
0.136347178297544
0.140468769399748
0.144493014419261
0.148409835716967
0.152211184597201
0.155891162049015
0.159445439308409
0.162871251838818
0.166167612531912
0.169334802113951
0.172374533607857
0.175289263754787
0.178082451658456
0.180757957579391
0.183319809563295
0.18577271250973
0.188121477134361
0.190371553800713
0.192528353914266
0.194597256840879
0.196583754182559
0.198493210855224
0.200331129742087
0.202102731953272
0.20381327120584
0.205467796517292
0.207071364179512
0.2086287926616
0.210144848540686
0.211624179391248
0.213071395416845
0.214490987624748
0.215887388313083
0.217265042811379
0.218628461536236
0.219982054087548
0.221330635188496
0.222678612848711
0.224031711953013
0.225394183459115
0.226773911880631
0.228174073153576
0.229607850669121
0.231074051290722
0.23260017242851
0.234169937512599
0.235849427038609
0.237572946025036
0.239514268876149
0.241434888380897
0.243837922232219
0.246473544035854
0.248501552279134
0.250360442921189
0.251752463300966
0.252599672155371
0.252749423139581
0.251809864734507
0.249482138529378
0.245685150824542
0.240394951180396
0.233595967256775
0.225933394182055
0.217412874372028
0.207368131594436
0.195026261519528
0.17917986855354
0.156304029091306
0.123607863076145
0.0826106570975161
0.0321926884247457
-0.020465037889301
-0.0626326631808564
-0.0574681174896184
-0.0400656729047671
-0.0126958130359491
4.84239738535899e-05
0.00870281799200951
0.00999974191884932
0.0262946371839445
0.0400381692688531
0.0488043751340922
0.052634908143861
0.0561641059534748
0.0582316739618686
0.0599801799591716
0.0611159532857903
0.0621194220902851
0.0629067046261897
0.0635832061570143
0.0641413104960646
0.0646658000883846
0.065147501412179
0.0656301868655777
0.0661448914902207
0.0666735278326443
0.0671942612810595
0.0677602496788956
0.0683657932416721
0.068999907014536
0.0697329904842586
0.07000637520696
0.0705528671662545
0.0720768057341132
0.0741016045638167
0.076606804944472
0.0794791800828897
0.0826674495098685
0.0861209249840223
0.0898009593388385
0.0936722789053
0.0977012104753388
0.101856398644707
0.106107495003277
0.110425783728415
0.114783625150579
0.119155146803063
0.123515825948856
0.12784342452739
0.132118281813321
0.136323164175935
0.140443362699927
0.144466433600012
0.148382296443624
0.152182894252119
0.155862321195596
0.159416243833378
0.162841885739194
0.166138242292838
0.169305574293973
0.172345575427225
0.175260683189658
0.178054335211874
0.180730400391574
0.183292882533541
0.185746457406074
0.188095946515739
0.190346787021735
0.19250437670145
0.194574090612189
0.196561415896688
0.198471710292143
0.200310468885664
0.202082906781913
0.203794275867732
0.205449622334101
0.207053999048036
0.208612220712302
0.210129053372792
0.211609144251667
0.213057102510396
0.214477417322876
0.215874521320005
0.217252860908615
0.218616947142524
0.219971189158274
0.221320404243692
0.222668998925416
0.224022706254669
0.225385768410151
0.22676609228592
0.228166838948826
0.229601244745355
0.231068006277679
0.232594800505207
0.234165069214688
0.235845413793072
0.237569243680468
0.239511830630554
0.241431752660507
0.243829326833944
0.246458114455293
0.248473629064868
0.250320052217069
0.251694423232006
0.252517949371694
0.252634490296457
0.25165534870986
0.24929048092112
0.245462848231344
0.240151151190523
0.233344692386463
0.225671410566887
0.217119004291261
0.207022532863
0.194604020293248
0.178640553451895
0.155659630505751
0.122974733607261
0.0821471159125042
0.0321782666507938
-0.0197238657395874
-0.0612928957269341
-0.0565907780646977
-0.039747370946505
-0.0126252317974896
0.000113250540375607
0.00879043984824333
0.0101596855913436
0.0263370511749145
0.0399525883543893
0.0487330915859532
0.0525806679213481
0.0561150843313628
0.0581957191168626
0.0599527131475665
0.0610974233286743
0.0621057427454131
0.0628978854116978
0.0635784034664561
0.0641390130893026
0.0646634084104778
0.0651429530323626
0.0656204323270723
0.0661270015438252
0.0666463292911535
0.0671576169002114
0.0677133044599493
0.0683093302831291
0.068936228175933
0.0696610752750322
0.069959671753128
0.0705483096293042
0.07207978131104
0.0741066347891234
0.0766115629094335
0.0794818581016258
0.0826671673746509
0.0861170936956985
0.0897932365213807
0.0936604429605359
0.0976851505654524
0.101836099636404
0.106083018196604
0.110397265135697
0.11475126494879
0.119119210224657
0.123476624558108
0.127801293768504
0.132073571368527
0.136276231548309
0.140394567879723
0.144416131096909
0.148330830028286
0.15213058990036
0.155809489412309
0.159363184362457
0.162788878709025
0.166085539485558
0.169253395933106
0.172294111064856
0.175210092823035
0.178004754257316
0.18068193055034
0.1832456187165
0.185700501354391
0.188051379104577
0.190303660369561
0.192462722565844
0.194533935154655
0.196522779629209
0.198434603416293
0.20027489007281
0.20204884577759
0.20376172036405
0.205418556554262
0.207024402520625
0.20858406758341
0.210102317635351
0.211583800280617
0.213033123850539
0.214454775274817
0.215853188470861
0.217232812617929
0.218598160729017
0.219953642526115
0.221304079979752
0.222653879615754
0.224008787342835
0.225373036319018
0.226754557277346
0.228156495133871
0.229592176866831
0.231060156864693
0.232588334255512
0.234159786114744
0.235841775430737
0.237566537337523
0.239511057303318
0.241431757475315
0.243820434747106
0.246433192811158
0.248426029121886
0.250250769229142
0.251598469795809
0.252389629036021
0.252463965233917
0.251437877375825
0.249032066668404
0.24517340792792
0.239843087908152
0.233034553078952
0.225353773156765
0.216768130758577
0.206615934723351
0.194114326735119
0.178028183407308
0.154953145613698
0.122317366491893
0.0817229668969274
0.0323091911992497
-0.0186893773104016
-0.0595367171695529
-0.0553631402595197
-0.0392386739031778
-0.0124993948174945
0.000218186052993858
0.00892298695122113
0.0103892446814407
0.0264371731263906
0.0398834100813526
0.0486659868287052
0.0525281641492534
0.0560661129950321
0.0581591591291571
0.0599242586182725
0.0610780438636562
0.0620914623721823
0.062888876690591
0.0635739756875549
0.0641374053620214
0.0646612900533183
0.0651375894320157
0.0656080012518729
0.0661037405640228
0.06661089657754
0.0671104082650258
0.0676538032691036
0.0682390512661773
0.0688584491224409
0.0695754919704918
0.0699072221731432
0.0705439675672378
0.0720827298645211
0.0741110652594021
0.0766142804752088
0.0794808535972619
0.0826615123761425
0.0861062184368852
0.0897768356075862
0.0936383732343441
0.0976574003834722
0.101802756501977
0.106044250931999
0.110353322841695
0.114702464590711
0.119065938073758
0.123419313902022
0.127740398606126
0.132009554839846
0.136209558901569
0.140325701145885
0.14434552050687
0.148258908591006
0.152057765564145
0.155736148303935
0.159289696993693
0.162715590887471
0.16601276213856
0.169181401180583
0.17222313354471
0.17514033428504
0.177936369633024
0.180615057178398
0.183180400915256
0.185637064954446
0.187989821480534
0.190244046927863
0.19240509444101
0.194478326415877
0.196469218286204
0.19838310495689
0.200225456088192
0.202001466453704
0.203716383746305
0.205375246776685
0.206983098210304
0.208544740452954
0.210064939418497
0.211548343691482
0.212999561020555
0.214423075572305
0.215823323039985
0.217204756886328
0.218571893074589
0.219929142821983
0.221281334193953
0.222632875139562
0.223989527895156
0.225355516938944
0.226738803909111
0.228142499701771
0.22958005192623
0.231049869753034
0.232580084321441
0.234153354468019
0.235837660766469
0.237563926630708
0.239510685635074
0.241433287795604
0.243810186924594
0.246399630845446
0.248362006073567
0.250156886227761
0.251469442550149
0.252219920757455
0.252243524241307
0.251162933265167
0.248710871575487
0.24481841534629
0.239469302562605
0.232660609154701
0.224973493558194
0.216352790975164
0.206140736105785
0.193549277454489
0.177334030331886
0.154169144635597
0.121606986710601
0.081288201513097
0.0325043895535724
-0.0174837451986245
-0.0574985087666135
-0.0538419145717591
-0.0385324819302479
-0.0123056362111375
0.000366042884865631
0.0091065780156194
0.0106868695281003
0.0265932097542392
0.039839559629003
0.048608597798448
0.0524803860043691
0.0560170552966052
0.0581218556154402
0.0598948122073017
0.061057867091018
0.062076725258452
0.0628799560973349
0.0635703891670467
0.0641371147546059
0.0646601989208095
0.065132320518665
0.0655940901244027
0.0660768372213979
0.0665696990020808
0.0670558857697008
0.0675858059686884
0.0681596945918063
0.0687717978918116
0.0694818777292257
0.0698517395154031
0.0705389790140834
0.0720845432228779
0.0741140081125938
0.0766144034263229
0.0794761302512557
0.082650993007192
0.0860893745185682
0.0897534018236781
0.0936082877359168
0.0976207258414156
0.101759655664481
0.105994967009789
0.110298179818466
0.114641853537309
0.119000319754644
0.12334919407842
0.127666300769474
0.131932008250047
0.136129091043564
0.140242832776827
0.144260756754903
0.148172733747472
0.151970634747379
0.155648491305434
0.159201924497342
0.162628085987715
0.165925870147634
0.16909542497658
0.172138336143016
0.175056940533795
0.177854559026643
0.180534994451822
0.183102245263326
0.185560953438406
0.187915864228152
0.190172322168155
0.192335652986027
0.194411210348674
0.196404463759326
0.198320734340887
0.200165476899527
0.20194387287204
0.203661167795438
0.205322396346323
0.206932595447833
0.208496559310194
0.210019053858187
0.211504729087706
0.212958192479298
0.214383924878046
0.215786363711353
0.217169967869555
0.218539256694879
0.219898643431969
0.221252962524457
0.222606624185721
0.223965408305665
0.225333530838413
0.226718989230669
0.228124845383747
0.229564674154116
0.231036748772469
0.232569418709834
0.234144900558965
0.235831845829602
0.237559874978096
0.239508573297849
0.241433140954588
0.243796345963467
0.246358391618853
0.248286101407624
0.250045322812272
0.251316016702667
0.252018918883682
0.251984790571705
0.250843221107615
0.248339492641782
0.244409236559217
0.239038933541914
0.232228662459712
0.224533469464955
0.215874310596095
0.205597519803162
0.19290908772043
0.1765584634884
0.153304138552622
0.120830979131484
0.0808149695970109
0.0327125656556451
-0.0161955474052998
-0.0552942065265266
-0.052107138717564
-0.0376510672383754
-0.0120365918626188
0.000557713773178907
0.0093402516714132
0.011048794301045
0.0267998081027726
0.0398232884876395
0.0485659016048586
0.0524444790790333
0.0559685241322056
0.0580837831414782
0.0598645253221351
0.0610371363530171
0.0620618833243779
0.0628716142507897
0.0635682950677894
0.0641389347687872
0.0646610920484808
0.0651283243202691
0.0655802144269752
0.0660483018132918
0.0665252437314495
0.0669968870489055
0.0675123894718543
0.0680743741378041
0.0686792462945182
0.0693829852540464
0.0697936365254385
0.0705318931992208
0.0720840607818063
0.0741148209886051
0.0766118133633821
0.0794681056223404
0.0826365042854944
0.0860678975067299
0.0897246878469722
0.0935723172551695
0.0975775991697348
0.101709577406195
0.10593822226184
0.110235135603875
0.114572943591015
0.118926048177749
0.123270108353666
0.127582964860178
0.131844990871768
0.13603895729337
0.140150139490218
0.144166043226636
0.148076516754379
0.151873399757804
0.155550696712285
0.159104006816285
0.162530452324275
0.165828888754184
0.16899941984796
0.172043592659606
0.17496369816363
0.177763018636345
0.180445334293796
0.18301463034045
0.185475532191262
0.187832757526793
0.190091619699816
0.192257414369866
0.194335484565846
0.196331294126247
0.198250149516834
0.200097490436176
0.201878483253532
0.203598371274726
0.20526218486368
0.206874955262428
0.208441467306278
0.209966486763027
0.211454665322529
0.212910610521108
0.214338799271915
0.215743670318854
0.217129688851103
0.218501377579572
0.219863151985188
0.221219852335203
0.222575891415974
0.223937066490931
0.225307584745972
0.226695478947959
0.228103758599953
0.229546109749832
0.231020680932767
0.232556015994111
0.234133882236782
0.235823487151065
0.237553234248362
0.239503149421164
0.241428839064411
0.243776912065144
0.246309364956095
0.248200484512389
0.249920289255743
0.251144138098945
0.251794026282139
0.251696672356493
0.250489036964629
0.247929052993785
0.243957091429919
0.238562566485744
0.231747738747089
0.224040900033704
0.21533864948663
0.204991674520679
0.19219909868385
0.175707718662981
0.152363978948275
0.119991883964159
0.0802992880646272
0.0329170018670463
-0.0148666412607029
-0.052994749900624
-0.0502271371850756
-0.0366233352080586
-0.011689448801423
0.000793965136698355
0.00961767797862476
0.0114744124947297
0.0270523936565402
0.0398409909940858
0.048534886414605
0.052430174490246
0.0559229424214702
0.0580453406560212
0.059833823863056
0.0610163345989026
0.062047480446396
0.0628644620097975
0.0635683515590473
0.0641435652950314
0.0646647629801727
0.0651265348368053
0.0655675151984527
0.0660195568488354
0.0664791634280921
0.0669350933032949
0.0674352225426418
0.067984630334101
0.0685821719902737
0.0692800327207891
0.0697328801668624
0.0705219303506498
0.0720807551293561
0.0741133245832944
0.0766066641372665
0.0794572488172429
0.0826187889831263
0.0860427746667605
0.0896919088172167
0.0935318790538235
0.0975296191956498
0.101654283452773
0.105875923619055
0.110166225221147
0.114497881045712
0.118845364220136
0.123184375469203
0.127492771552733
0.131750930665624
0.135941619311955
0.140050104114907
0.144063872417558
0.14797274933764
0.151768542244759
0.155445227891759
0.158998381239782
0.162425093903895
0.165724182545025
0.168895706834002
0.171941173853445
0.174862827962473
0.177663914683552
0.180348183383416
0.182919605437983
0.185382792494271
0.187742432857996
0.190003810261376
0.192172188105795
0.19425289665856
0.196251394440685
0.198172972534979
0.200023055643289
0.2018067933425
0.203529426555183
0.205195981133896
0.206811482834644
0.208380705903096
0.209908415633145
0.211399265569021
0.212857863594043
0.214288681972383
0.215696160053043
0.21708477001866
0.218459037616559
0.219823380521519
0.22118264370123
0.22254124244624
0.223904990108183
0.225278084541784
0.226668590092617
0.228079466493797
0.229524482957264
0.231001674873611
0.232539750286137
0.234120028749725
0.235812126717708
0.237543338001858
0.239493557804751
0.241418981651278
0.243750493603488
0.246251871829345
0.248105496771366
0.249783438163571
0.250956768152398
0.251549349343088
0.251384412215887
0.250106745711337
0.247486832045843
0.243469799948095
0.238048142294217
0.23122540567049
0.223502671463037
0.214752236782439
0.20432957184878
0.191426159655543
0.174789895329559
0.151358288169526
0.119099363673764
0.0797497706238466
0.0331204415601922
-0.0135082902113029
-0.0506342542041546
-0.0482489931739893
-0.0354785490079274
-0.0112696755112689
0.00106969468334048
0.00993307796049065
0.0119632093007953
0.0273443794019093
0.0399011890457146
0.0485039105201669
0.0524457413933963
0.0558851282900312
0.0580075975116123
0.0598034035152214
0.0609960839526328
0.06203408565563
0.0628590075226612
0.063570971963489
0.0641513547698243
0.0646715804509374
0.0651273958165019
0.0655565643938629
0.0659913542824297
0.0664323361888522
0.0668714070570697
0.0673552049343989
0.0678913123699912
0.068481407861891
0.0691738449103268
0.0696696303442452
0.0705088231774977
0.0720744426872249
0.0741095055982376
0.0765991233224424
0.0794439141975966
0.0825983711731056
0.0860146939334819
0.0896559039129269
0.0934879531858674
0.0974778965293337
0.101595004907937
0.105809412522879
0.110092889938945
0.11441819604157
0.118759875460332
0.1230936683407
0.12739744709599
0.131651595897432
0.135838876626112
0.139944547310601
0.143956076650955
0.147863266747965
0.151657892484227
0.155333903143718
0.158886847417084
0.162313785501708
0.165613496160795
0.168785997476627
0.171832752209063
0.174755963123127
0.177558836455575
0.180245087999304
0.182818673266095
0.185284191724527
0.187646300820109
0.189910257216238
0.192081290194657
0.194164714963367
0.196165985233153
0.198090376115784
0.199943297720624
0.201729881054386
0.203455364462822
0.205124769097081
0.206743115532613
0.208315166120703
0.209845685230402
0.211339328342428
0.212800703957846
0.214234278839206
0.215644491964614
0.21703582309632
0.218412800428165
0.219779843579953
0.221141800640572
0.222503089056418
0.223869536259723
0.225245329979827
0.226638560592381
0.228052141039868
0.229499895363892
0.230979753684732
0.232520550215326
0.234103167268747
0.235797469658315
0.237529742691315
0.239479271490809
0.241402743839958
0.243716127146503
0.246185197133814
0.248000839330262
0.249635263064348
0.250755348643124
0.251287213993136
0.251051196506997
0.249700371647888
0.247017584269924
0.242952632202275
0.237501170318294
0.230667162448144
0.222924101684996
0.214120368860508
0.20361672384311
0.190596534908617
0.173812476249207
0.150296437485901
0.118163685154507
0.0791774121062695
0.0333307423601486
-0.0121206739496521
-0.0482277667008187
-0.0462014168614959
-0.0342417757258859
-0.0107841115790406
0.00138051493957243
0.0102870276554293
0.0124992677599441
0.027669227758234
0.0399957477681749
0.0484703916500863
0.0524928293659331
0.0558612595533253
0.0579723088848181
0.0597741061808529
0.060976981209719
0.062022116216885
0.0628554970715168
0.0635762228015085
0.0641622679015504
0.0646815218752987
0.0651309667657472
0.065547554278387
0.0659640608811724
0.0663852665886072
0.0668063973535907
0.0672729495641572
0.0677950549112815
0.0683776431298497
0.0690651471655422
0.0696041548948505
0.0704924828869838
0.0720650454250224
0.0741033735537701
0.0765893189314076
0.0794283694591377
0.082575648547581
0.0859841889896618
0.0896173319628076
0.0934413187750841
0.0974233235445293
0.101532740156451
0.105739785667665
0.110016316413873
0.114335156227732
0.118670920963977
0.12299938702866
0.127298442015492
0.131548477557882
0.135732251105407
0.139835012734827
0.143844212814171
0.147749631149427
0.151543010679115
0.155218274288681
0.158770942646687
0.162198044084767
0.165498322234444
0.168671754120928
0.171719758722316
0.174644499778727
0.177449142996757
0.180137369615313
0.182713115692844
0.185180970585283
0.187545559816126
0.189812116407437
0.191985833847619
0.194072009823346
0.196076093974904
0.198003345012375
0.199859159124538
0.201648646876112
0.203377043829217
0.205049366296754
0.206670630101013
0.208245584272567
0.209778991682538
0.211275509799165
0.212739748023319
0.21417616661165
0.21558920294205
0.216983344889636
0.218363122288582
0.21973295627835
0.221097696074398
0.22246176070775
0.223830989082944
0.225209557814741
0.226605576439875
0.22802191243959
0.229472420287333
0.230954928075539
0.232498349338756
0.234083148412266
0.235779273016607
0.237512084625571
0.239459872538386
0.241379548743542
0.243673105963675
0.24610872471695
0.247886047593626
0.249475775520732
0.25054058788382
0.251009036007887
0.250699138151354
0.249272691303658
0.246524671326283
0.242409391148038
0.236925678135123
0.23007710639096
0.222309270365655
0.213447263070351
0.202857632562701
0.189715532855941
0.172781849208254
0.149186567427384
0.117193855751997
0.0785921047211222
0.0335554903565907
-0.0107017988160494
-0.0457829520793848
-0.0441008353485944
-0.0329309309897848
-0.0102381991757479
0.0017258831856702
0.010678725206568
0.0130559157975336
0.0280254106602961
0.0401148615130254
0.048448086246203
0.0525575047147626
0.0558563236623485
0.0579417522646819
0.0597467743325788
0.0609594970018052
0.0620117838658207
0.0628539255043204
0.0635839083722016
0.0641760268354032
0.0646943504315386
0.0651371229772563
0.0655405127800664
0.0659378848807433
0.0663383100662399
0.0667405027950665
0.0671889581930976
0.067696408678672
0.0682714892085032
0.0689545733401556
0.0695367199703107
0.0704728804900208
0.072052532915852
0.0740949440398711
0.0765773564785524
0.0794108370739658
0.0825509508899962
0.0859517062732348
0.0895767478357458
0.0933926360983833
0.0973666602173882
0.101468342926632
0.105667984088141
0.109937525878872
0.11424985534253
0.118579658717888
0.122902744633921
0.127197015216989
0.13144287152972
0.135623067125977
0.13972284519579
0.143729638541319
0.14763320590948
0.151425259466164
0.15509969751691
0.158652011168323
0.162079196786109
0.165379967665652
0.168554256862253
0.1716034476252
0.174529660664519
0.177336025034333
0.180026185486715
0.182604054617745
0.185074214402304
0.18744125762579
0.18971039787818
0.191886791251232
0.193975715267058
0.195982616530042
0.197912737091116
0.199771460129536
0.201563873749214
0.203295210524293
0.204970481887868
0.206594699471411
0.208172597399964
0.209708936353524
0.211208375851579
0.212675526521325
0.214114840937455
0.215530753394015
0.216927760408304
0.218310392463623
0.219683071637291
0.221050645876011
0.222417535039514
0.223789586367021
0.225170964187227
0.226569789219633
0.227988883815789
0.229442109897032
0.230927194574899
0.232473077616547
0.234059829287795
0.235757315172023
0.237490038782381
0.23943498788145
0.241348947318397
0.243620891492254
0.246021924475724
0.247760597643937
0.249304722381736
0.250312742154731
0.250715643544972
0.250329648626803
0.248825667535855
0.246010549246063
0.241842929007665
0.236324741020747
0.229458428603926
0.221661440231466
0.212736402224464
0.202056093765791
0.188787750629128
0.171703631114705
0.148036002627087
0.116197941843336
0.0780026149323576
0.0338013702794618
-0.00924946728779037
-0.0433045770052111
-0.041956986495988
-0.0315585783092182
-0.00963706525912388
0.00210394739899815
0.0111037886340357
0.0136189986530183
0.0284169513484956
0.0402569471437837
0.0484547262959523
0.0525978100782372
0.0558728181335943
0.0579186010291963
0.0597222154096966
0.0609439782461072
0.0620031532071478
0.062854143957325
0.0635937127610435
0.064192262704512
0.0647097600249478
0.0651456852407203
0.0655354170677583
0.0659129766018483
0.0662917589555744
0.0666741013287532
0.0671036764196098
0.06759587474573
0.0681634938994535
0.0688426707930267
0.0694675674066524
0.0704500269358442
0.0720369147273505
0.0740842419837995
0.0765633300464679
0.0793915117201084
0.0825245646065719
0.0859176313237964
0.0895346320088314
0.0933424787703533
0.0973085685937337
0.101402558718952
0.105594831269955
0.109857413677237