/*--------------------------------*- C++ -*----------------------------------*\
  =========                 |
  \\      /  F ield         | OpenFOAM: The Open Source CFD Toolbox
   \\    /   O peration     | Website:  https://openfoam.org
    \\  /    A nd           | Version:  7
     \\/     M anipulation  |
\*---------------------------------------------------------------------------*/
FoamFile
{
    version     2.0;
    format      ascii;
    class       surfaceScalarField;
    location    "20000";
    object      phi;
}
// * * * * * * * * * * * * * * * * * * * * * * * * * * * * * * * * * * * * * //

dimensions      [0 3 -1 0 0 0 0];

internalField   nonuniform List<scalar> 
30950
(
2.00912786199803e-05
-2.66943463287426e-06
1.99981093635154e-05
9.31692539829511e-08
8.2433456565733e-06
1.1754763707489e-05
-4.03151723974537e-06
1.22748629009541e-05
-9.79947940730657e-06
5.76796217265802e-06
-9.20590471213922e-06
-5.93574691406428e-07
-7.94787217994422e-06
-1.25803252623328e-06
-6.87872802838496e-06
-1.06914414375225e-06
-6.26555604278866e-06
-6.13171982244038e-07
-5.88889259230987e-06
-3.76663452319175e-07
-5.84853266814863e-06
-4.03599269381298e-08
-5.9505972356245e-06
1.02064567732246e-07
-6.2103075383665e-06
2.59710307274256e-07
-6.67999981174334e-06
4.69692281392976e-07
-7.43007863177367e-06
7.50078830365257e-07
-8.42679050570203e-06
9.9671188638283e-07
-9.71492080596579e-06
1.28813031563103e-06
-1.12506813895431e-05
1.5357606026997e-06
-1.29143213629802e-05
1.66363999597026e-06
-1.47139568993934e-05
1.79963556056155e-06
-1.67147084684661e-05
2.00075159266348e-06
-1.87302898361975e-05
2.01558138958215e-06
-2.06206036225246e-05
1.89031380677017e-06
-2.22699270957604e-05
1.64932349355179e-06
-2.36950588750394e-05
1.42513180055616e-06
-2.78736469087025e-05
4.17858805605026e-06
-3.40233876795472e-05
6.14974079224569e-06
-3.85772749471347e-05
4.5538872863072e-06
-4.18154897833446e-05
3.2382148526756e-06
-4.42084674926434e-05
2.39297772426407e-06
-4.59681083189163e-05
1.75964084043902e-06
-4.72255799450644e-05
1.25747164005934e-06
-4.80584569537146e-05
8.32877022723206e-07
-4.85164623730322e-05
4.58005433855978e-07
-4.86323218048071e-05
1.15859447056258e-07
-4.84344807527625e-05
-1.97841035813816e-07
-4.79467859889319e-05
-4.87694746475724e-07
-4.71920248214756e-05
-7.54761148852417e-07
-4.61917801614588e-05
-1.00024464006138e-06
-4.4968221843008e-05
-1.22355829709037e-06
-4.35436492748947e-05
-1.42457254527356e-06
-4.19422413330897e-05
-1.60140791752806e-06
-4.01886127870322e-05
-1.75362852059368e-06
-3.8306255790371e-05
-1.882356970338e-06
-3.63176326622266e-05
-1.98862310137545e-06
-3.42437754435957e-05
-2.07385719177692e-06
-3.21045981576705e-05
-2.1391772591988e-06
-2.99183727569971e-05
-2.18622537410058e-06
-2.77020146590077e-05
-2.21635807132383e-06
-2.54703754575855e-05
-2.23163917441764e-06
-2.32375516222535e-05
-2.23282380769425e-06
-2.10171166200772e-05
-2.22043497356344e-06
-1.88207302413699e-05
-2.1963863488886e-06
-1.66586387092668e-05
-2.16209150082963e-06
-1.45388032701797e-05
-2.11983540625039e-06
-1.24680083777628e-05
-2.07079485821751e-06
-1.04507551283111e-05
-2.01725321453342e-06
-8.49084681801303e-06
-1.95990827590532e-06
-6.5929254943283e-06
-1.89792129148394e-06
-4.76061797740912e-06
-1.83230748870797e-06
-2.99732302929016e-06
-1.76329492535067e-06
-1.30430483101784e-06
-1.69301818157194e-06
3.17789622143525e-07
-1.62209444209727e-06
1.86798892485755e-06
-1.55019929587654e-06
3.34574380490629e-06
-1.47775487527401e-06
4.75063178124103e-06
-1.40488797118215e-06
6.08313351452212e-06
-1.33250172560574e-06
7.34347269497131e-06
-1.26033916878597e-06
8.53202142131075e-06
-1.18854871016696e-06
9.64900542450693e-06
-1.11698398299862e-06
1.06950775954663e-05
-1.04607214804756e-06
1.16706315788199e-05
-9.7555395941743e-07
1.25758867409135e-05
-9.05255138866873e-07
1.34108389064419e-05
-8.34952144311985e-07
1.41755231304372e-05
-7.64684205493615e-07
1.48696838090321e-05
-6.94160662954328e-07
1.54925131884553e-05
-6.22829366309325e-07
1.60428478361125e-05
-5.503346365306e-07
1.65191653597027e-05
-4.76317513881237e-07
1.6919035598753e-05
-3.99870230295315e-07
1.72397311982532e-05
-3.20695591353341e-07
1.74762674955795e-05
-2.36536289499389e-07
1.76243605826939e-05
-1.48093079194171e-07
1.76743998235289e-05
-5.00392323308333e-08
1.76207378324028e-05
5.36620008838475e-08
1.74442526273491e-05
1.76485216747991e-07
1.71383872019806e-05
3.05865439451505e-07
1.66594809059794e-05
4.78906312556406e-07
1.6005574121963e-05
6.5390680264936e-07
1.50722006753897e-05
9.33373466475807e-07
1.38834629664598e-05
1.18873772892414e-06
1.21851017764413e-05
1.69836120895e-06
1.00683731858945e-05
2.11672860757129e-06
6.66367810859698e-06
3.40469509197969e-06
5.10133477175126e-06
1.5623433504806e-06
7.24807024883457e-06
-2.14673546405793e-06
1.01667313581057e-05
-2.91866109893472e-06
1.38071328227256e-05
-3.64040145948909e-06
1.78810047658036e-05
-4.07387194376213e-06
2.23645006121725e-05
-4.48349585047166e-06
2.7522754908784e-05
-5.15825429895992e-06
3.29875776045229e-05
-5.46482268998656e-06
3.81176888240168e-05
-5.13011120119122e-06
4.26258987153851e-05
-4.50820986122075e-06
4.62357843979958e-05
-3.60988564760824e-06
4.82917457419526e-05
-2.05596131456785e-06
4.93941043412399e-05
-1.10235858345301e-06
5.0462626061504e-05
-1.06852171873433e-06
5.18890529304392e-05
-1.42642687525314e-06
5.43052487445706e-05
-2.41619581862668e-06
5.90854624551796e-05
-4.78021370647314e-06
6.57079023163648e-05
-6.62243984911238e-06
7.2619640692531e-05
-6.9117383643513e-06
8.00106016178715e-05
-7.39096092089848e-06
8.49271959737496e-05
-4.91659435956641e-06
7.96559627578428e-05
5.27123320965081e-06
5.69148611932965e-05
2.27411015607744e-05
3.47632141696494e-05
2.21516470230973e-05
1.93513506807202e-05
1.54118634895086e-05
1.92905345342778e-06
6.77883234404801e-05
-7.26085605100125e-06
6.57429195292058e-05
2.13857316267799e-06
3.4235020241078e-05
4.32626630065257e-05
-4.25649081528052e-06
5.07663739626572e-05
-2.54142517451426e-05
2.69257231090014e-05
-2.63181975127358e-05
3.10371083603175e-07
-2.30007387122151e-05
-4.57549131776483e-06
-2.02696980393436e-05
-3.80018480605696e-06
-1.8577671420153e-05
-2.30519859022956e-06
-1.76952850676856e-05
-1.25904979342981e-06
-1.76557643919331e-05
-7.98805907111629e-08
-1.81085367344744e-05
5.54836923555121e-07
-1.90226873438777e-05
1.17386093184017e-06
-2.0593069102269e-05
2.04007405721971e-06
-2.29724308083132e-05
3.12944055655818e-06
-2.61251799186499e-05
4.14946102018399e-06
-3.01309190538567e-05
5.29386947854941e-06
-3.4867188719197e-05
6.27203030106828e-06
-4.00506823752581e-05
6.84713369120271e-06
-4.56892625669658e-05
7.43821579777944e-06
-5.18431272793101e-05
8.1546163561226e-06
-5.80351298022261e-05
8.20758396773399e-06
-6.3840271838884e-05
7.69545590064216e-06
-6.91084772787254e-05
6.9175289902206e-06
-7.48832354298242e-05
7.19989000570087e-06
-8.68294353249522e-05
1.61247880006707e-05
-0.00010224201638134
2.15623218928263e-05
-0.000113701746024318
1.60136169687443e-05
-0.000121632671812255
1.11691406769061e-05
-0.000127343081633665
8.10338758040512e-06
-0.000131358102112262
5.77466135351577e-06
-0.000134030100108087
3.92946967111059e-06
-0.000135559507231495
2.36228418287636e-06
-0.00013608067806536
9.79176306590809e-07
-0.000135686185017465
-2.7863355936679e-07
-0.000134456032997235
-1.42799301156113e-06
-0.000132459200020836
-2.48452767511727e-06
-0.000129760563823984
-3.45339729457529e-06
-0.000126421897000785
-4.33891140881662e-06
-0.000122505343081481
-5.14011215883187e-06
-0.000118073417118957
-5.85649844749859e-06
-0.000113191646539658
-6.48317843431394e-06
-0.000107925428113357
-7.01984688278492e-06
-0.000102336795283577
-7.4709897349946e-06
-9.64845390712658e-05
-7.84087924795866e-06
-9.04236266881578e-05
-8.13476950879319e-06
-8.42056650763504e-05
-8.35713880446089e-06
-7.78780293188586e-05
-8.51386106430261e-06
-7.14841847835118e-05
-8.61020253796357e-06
-6.50628485691618e-05
-8.65297531788272e-06
-5.86506674216089e-05
-8.64500488135359e-06
-5.22823851966191e-05
-8.58871712083087e-06
-4.59880783987225e-05
-8.49069306483938e-06
-3.97938012820725e-05
-8.35636853132222e-06
-3.37202925252361e-05
-8.19334407377412e-06
-2.77848026830514e-05
-8.00628461005907e-06
-2.19993170830425e-05
-7.8027387263228e-06
-1.63744533257869e-05
-7.58477195109354e-06
-1.09223946108127e-05
-7.34997993461736e-06
-5.65311636758281e-06
-7.10158567341255e-06
-5.75115464425952e-07
-6.84129578469936e-06
4.30775116860043e-06
-6.57588478466332e-06
8.99319103267187e-06
-6.30753428687156e-06
1.3478601613857e-05
-6.03560986321992e-06
1.77620910295233e-05
-5.76124427663166e-06
2.18423773551865e-05
-5.48517427668809e-06
2.57201879972602e-05
-5.21031233772738e-06
2.93959307400422e-05
-4.93608187018329e-06
3.2870143754101e-05
-4.66276167218192e-06
3.61432044905365e-05
-4.39004465965551e-06
3.92163619834889e-05
-4.11922957758334e-06
4.20903972931077e-05
-3.84958920648355e-06
4.47655419182877e-05
-3.58039970606455e-06
4.72414730483163e-05
-3.31088322334293e-06
4.95178418615228e-05
-3.04105297549258e-06
5.15935703710335e-05
-2.7698891365851e-06
5.34661596662288e-05
-2.49541863158279e-06
5.51320940212678e-05
-2.21626896605526e-06
5.65866343034501e-05
-1.93085777349419e-06
5.78230423410006e-05
-1.6362782471503e-06
5.8832794688067e-05
-1.33044791873494e-06
5.96029684098241e-05
-1.00670999182405e-06
6.01192644509205e-05
-6.64389100140487e-07
6.03582406084448e-05
-2.89015367502501e-07
6.02977802920705e-05
1.14122343527008e-07
5.9894903269625e-05
5.79362271003032e-07
5.91133805528831e-05
1.08738819459985e-06
5.78622519098609e-05
1.73003500060108e-06
5.60825599110779e-05
2.43359885187223e-06
5.35718892103042e-05
3.44404422071985e-06
5.02372598066808e-05
4.52336718601767e-06
4.56220220897496e-05
6.31359897629396e-06
3.94897204053229e-05
8.24903033692385e-06
3.04732125552949e-05
1.24212029803019e-05
2.61206662256616e-05
5.91488971205242e-06
3.09645278611116e-05
-6.99059707253844e-06
3.87198267474648e-05
-1.06739599616835e-05
4.82303760720401e-05
-1.31509507619308e-05
5.88224897771062e-05
-1.46659856259289e-05
7.04254046165656e-05
-1.60864106643114e-05
8.35177482058788e-05
-1.82505978592575e-05
9.73238156852767e-05
-1.92708901381024e-05
0.000110450198319696
-1.82564938043397e-05
0.000122170461240333
-1.62284727537664e-05
0.000131745352721625
-1.31847771068962e-05
0.000137806232813088
-8.11684139157563e-06
0.000141353369972965
-4.6494957359052e-06
0.000144362830499833
-4.07798224290312e-06
0.000148007772804835
-5.07136917927906e-06
0.000153963016182528
-8.37143919477697e-06
0.000165294040918903
-1.61112384401836e-05
0.000181388690886495
-2.27170898139594e-05
0.000199448747223456
-2.49717947000036e-05
0.000219157922951614
-2.71001366498758e-05
0.000234415541084324
-2.01742124944594e-05
0.000226492666442887
1.31941078486718e-05
0.000177338596155215
7.18951718473952e-05
0.000118953830430762
8.05364127475112e-05
7.44966842553847e-05
5.98690096658545e-05
1.32288356614665e-05
0.000125891269600954
-9.67325001836069e-06
0.000120374664545914
7.65517821605665e-06
7.11580987061243e-05
9.24792288605419e-05
4.39755327820737e-06
0.000117526919396961
-3.69659520278282e-05
6.82892284227372e-05
-4.24313776215728e-05
5.77579668682706e-06
-3.77957435373124e-05
-9.21112539076596e-06
-3.37472744635417e-05
-7.84865386672488e-06
-3.11519473357842e-05
-4.90052570277288e-06
-2.99373736065011e-05
-2.47362350597146e-06
-3.00107911164973e-05
-6.46306292983625e-09
-3.09559485273198e-05
1.49999435308877e-06
-3.26900564245985e-05
2.90796884927977e-06
-3.55505976444447e-05
4.90061529947145e-06
-3.97522423995819e-05
7.33108533727345e-06
-4.52825121314989e-05
9.6797307818112e-06
-5.22277415826093e-05
1.22390989646029e-05
-6.03896832563822e-05
1.44339720162341e-05
-6.93695561278167e-05
1.58270066115815e-05
-7.91470345753643e-05
1.72156943022287e-05
-8.96855159518784e-05
1.86930977967599e-05
-0.000100250659626486
1.87727277116241e-05
-0.000110194982016475
1.76397783619992e-05
-0.000119613889344338
1.63364363880355e-05
-0.000130582877464315
1.81688781908839e-05
-0.000149194427366583
3.47363379611512e-05
-0.000170901686364454
4.32695809419148e-05
-0.000186755472823654
3.18674034737065e-05
-0.000197399640089497
2.18133079851337e-05
-0.000204748263953461
1.54520114852428e-05
-0.00020956554540705
1.05919428479319e-05
-0.000212371046802473
6.73497110838897e-06
-0.00021346085970796
3.45209713211973e-06
-0.000213038603110311
5.56919755230172e-07
-0.000211251805750113
-2.06543087021529e-06
-0.000208231035453989
-4.44876325488857e-06
-0.000204088913922066
-6.62664915052461e-06
-0.000198929006885702
-8.61330427057046e-06
-0.000192849552688523
-1.04183655418551e-05
-0.000185947601698347
-1.20420630814766e-05
-0.000178319678737344
-1.34844213381143e-05
-0.000170064103001865
-1.47387540972017e-05
-0.000161276990836072
-1.58069589744461e-05
-0.00015204864829457
-1.66993322013422e-05
-0.00014246390456392
-1.74256229027947e-05
-0.000132601717046225
-1.7996956950107e-05
-0.000122535679172492
-1.84231766009732e-05
-0.000112333200646748
-1.8716339511542e-05
-0.000102055801718934
-1.88876013852308e-05
-9.17587476785609e-05
-1.89500292746595e-05
-8.14942997336931e-05
-1.89094527385942e-05
-7.13114800305007e-05
-1.87715367313449e-05
-6.12528400611206e-05
-1.85493329360249e-05
-5.13550105468192e-05
-1.82541979422524e-05
-4.16475982361459e-05
-1.79007562774308e-05
-3.21550337955802e-05
-1.7498848942961e-05
-2.28949181901316e-05
-1.70628542276891e-05
-1.38834950080115e-05
-1.65961950377115e-05
-5.13869629545424e-06
-1.60947785649443e-05
3.32439168925943e-06
-1.55646735925669e-05
1.14928848313698e-05
-1.5009788879056e-05
1.93608082417656e-05
-1.44438081631887e-05
2.69244876186042e-05
-1.38712136429889e-05
3.41792594762567e-05
-1.32903817046901e-05
4.1121500187345e-05
-1.27034849691396e-05
4.77488185889644e-05
-1.21124926512633e-05
5.40614307937661e-05
-1.15229245031276e-05
6.00593608657071e-05
-1.09340118892114e-05
6.57426279478505e-05
-1.03460286895791e-05
7.11111747198602e-05
-9.75859135883635e-06
7.6166032155386e-05
-9.17408693730959e-06
8.0907726311456e-05
-8.59128328884121e-06
8.53359187511661e-05
-8.00859207819824e-06
8.94494546080955e-05
-7.4244190211825e-06
9.324701843944e-05
-6.83861675690877e-06
9.67262476804208e-05
-6.24911833599653e-06
9.98827216525603e-05
-5.65189256884761e-06
0.000102710381642944
-5.04392892641069e-06
0.000105201128126854
-4.42160423065059e-06
0.000107344088954765
-3.77923905036686e-06
0.000109125051102528
-3.11141004299428e-06
0.000110524162134403
-2.40582100036818e-06
0.000111517301055531
-1.65752799671331e-06
0.000112069582718085
-8.41297002511504e-07
0.000112141280507801
4.24245864083491e-08
0.000111671371025721
1.0492717926279e-06
0.000110592498772794
2.16626049509265e-06
0.000108782149678675
3.54038415012346e-06
0.000106114305759008
5.1014428331355e-06
0.000102327444754913
7.23090528964732e-06
9.71729029627396e-05
9.6779090426505e-06
9.00823500292691e-05
1.34041519702436e-05
8.03677463341658e-05
1.79636340858925e-05
6.68325124946201e-05
2.59564368659214e-05
5.99923271465246e-05
1.27550750985855e-05
6.61793682791634e-05
-1.31776381730245e-05
7.74422127724337e-05
-2.19368044262733e-05
9.12931626312554e-05
-2.70019005920751e-05
0.000106671107560475
-3.00439305232309e-05
0.000123485673511088
-3.29009765785192e-05
0.000142266933996817
-3.70318583053051e-05
0.000162089676463491
-3.9093632565388e-05
0.000181211737396565
-3.73785547027941e-05
0.00019859321856138
-3.36099538922635e-05
0.000213148726279206
-2.77402848077989e-05
0.000223097945041811
-1.80660601450198e-05
0.000229361008110501
-1.0912558800098e-05
0.000234370968697087
-9.08794282661464e-06
0.000239938394658702
-1.06387951378769e-05
0.000248541021783292
-1.69740663162859e-05
0.000264333482386514
-3.19036990414039e-05
0.000287126698632932
-4.55103060605297e-05
0.000313796098469268
-5.16411945381623e-05
0.000343371063419654
-5.66751016026992e-05
0.000368393077293154
-4.51962263697351e-05
0.000363933880550667
1.76533045899181e-05
0.000303357948922291
0.000132471103475665
0.000219099710957928
0.000164794650712029
0.000148305958030081
0.000130662762594836
3.80559180605044e-05
0.000195100624918837
-5.82305559390699e-06
0.000184637080859522
1.81187222741488e-05
0.000119538448491208
0.000157577861243924
2.35089884972482e-05
0.000213556379397814
-4.30539722135263e-05
0.000134852189141828
-5.68420592806957e-05
1.9563883764351e-05
-5.20388393454923e-05
-1.40143453135964e-05
-4.70642105639937e-05
-1.28232826337491e-05
-4.38448784147073e-05
-8.11985783505625e-06
-4.24875596843464e-05
-3.83094221752109e-06
-4.28361496547683e-05
3.42126927405217e-07
-4.44278979695106e-05
3.09174268856882e-06
-4.71668987634682e-05
5.64696966535095e-06
-5.15060988516303e-05
9.23981541201093e-06
-5.77190486809757e-05
1.35440351943077e-05
-6.58144284409145e-05
1.77751105737555e-05
-7.58660522651462e-05
2.2290722826304e-05
-8.7596281985957e-05
2.61642017811342e-05
-0.000100510728398401
2.87414530756944e-05
-0.000114505898852726
3.12108648159817e-05
-0.000129372320283626
3.35595192938749e-05
-0.000144147459206645
3.35478667054034e-05
-0.00015808657879201
3.15788980193968e-05
-0.000171628781127425
2.98786387931637e-05
-0.000187210559531496
3.37506566589658e-05
-0.000209907731639993
5.74335101258033e-05
-0.00023394511533502
6.73069646855546e-05
-0.000250695315753516
4.86176039351107e-05
-0.000261312760919231
3.24307531901865e-05
-0.000268023703013332
2.21629536169577e-05
-0.000271733223152475
1.43014630243644e-05
-0.000273058327226256
8.06007522010495e-06
-0.000272354710995544
2.74848094074254e-06
-0.000269878555470166
-1.91923572888717e-06
-0.000265826550078507
-6.11743621827814e-06
-0.00026036671046023
-9.9086028268904e-06
-0.000253640415711528
-1.33529438500224e-05
-0.000245776734629421
-1.64769853004852e-05
-0.000236896438872357
-1.92986612438202e-05
-0.000227116399113122
-2.18221027830479e-05
-0.000216550883076813
-2.40499373146902e-05
-0.000205313371189093
-2.59762659236524e-05
-0.000193512595459562
-2.76077346417108e-05
-0.000181249617716143
-2.89623098818529e-05
-0.000168618604292654
-3.00566362629445e-05
-0.000155706801337885
-3.09087598410765e-05
-0.000142595074436847
-3.15349034374966e-05
-0.000129357357390653
-3.19540564920761e-05
-0.000116060920262061
-3.21840384463104e-05
-0.00010276656121063
-3.22443882559231e-05
-8.95318881949891e-05
-3.21441256804727e-05
-7.64106327231882e-05
-3.18927921249352e-05
-6.34495643491176e-05
-3.15104012270337e-05
-5.06888986832659e-05
-3.10148635204775e-05
-3.81616202615439e-05
-3.04280346084127e-05
-2.58950366771955e-05
-2.97654324361345e-05
-1.39094791327214e-05
-2.90484116842904e-05
-2.22420777013783e-06
-2.82814663200329e-05
9.13923800130359e-06
-2.74582242678705e-05
2.01623722591487e-05
-2.65878077965389e-05
3.08303974992587e-05
-2.56778140805114e-05
4.11353607660227e-05
-2.47487714043535e-05
5.10715660934314e-05
-2.38074189535824e-05
6.06324119225654e-05
-2.28512275202253e-05
6.98122495691995e-05
-2.18833225994727e-05
7.8607015472071e-05
-2.09072585302058e-05
8.70153931538269e-05
-1.99313021501417e-05
9.50360721564406e-05
-1.89546908454e-05
0.000102667573059826
-1.79775295364549e-05
0.000109908399115891
-1.69994173516741e-05
0.000116758170435112
-1.60238581908551e-05
0.000123216091930965
-1.50492047208881e-05
0.000129280326405703
-1.40728264944214e-05
0.000134948044374981
-1.30921369391834e-05
0.000140216112596156
-1.21066849345757e-05
0.000145080211770153
-1.11132174735724e-05
0.000149533635779622
-1.01053165475864e-05
0.000153567583564433
-9.07787668461757e-06
0.00015717064543359
-8.02466607599212e-06
0.000160328173015232
-6.93676660999227e-06
0.000163021095620674
-5.80433262737788e-06
0.00016522403968157
-4.60876504027782e-06
0.000166905082210278
-3.3385705032999e-06
0.00016802096231412
-1.95717708141068e-06
0.000168515863514809
-4.52476584629673e-07
0.000168313664476317
1.25147086719253e-06
0.000167323888840349
3.15603617455643e-06
0.000165404547775263
5.45972526594728e-06
0.000162377791495439
8.12819916954625e-06
0.000157944357391116
1.16643394537388e-05
0.000151729529361553
1.58927371318967e-05
0.00014308430997554
2.20493714126404e-05
0.000130956751590581
3.00911925214668e-05
0.000114504959947816
4.24082285525339e-05
0.000105585674631723
2.16743604514466e-05
0.000111517206275421
-1.91091697863427e-05
0.000124181618547562
-3.46012166716944e-05
0.000140180048935441
-4.3000330953021e-05
0.00015809129579528
-4.79551773527021e-05
0.000177767742664739
-5.25774234131473e-05
0.000199693078185809
-5.89571937887979e-05
0.000222996775095299
-6.23973294384618e-05
0.000245917607194146
-6.02993867708765e-05
0.000267258600405545
-5.49509470817519e-05
0.000285756334350357
-4.62380187400028e-05
0.000299415364975381
-3.17250907643517e-05
0.000308757333847072
-2.02545276693408e-05
0.000316132625490328
-1.64632344677483e-05
0.000323667031438797
-1.81732010833515e-05
0.000334277521784979
-2.75845566592931e-05
0.000352756552772117
-5.03827300268411e-05
0.000379652289531521
-7.24060428207965e-05
0.000412100023168438
-8.40889281776427e-05
0.000448768991255252
-9.33440696923827e-05
0.000482212108963448
-7.86393440795802e-05
0.000485827631682821
1.4037781869752e-05
0.000426450100511651
0.000191848634647042
0.000329605219846522
0.000261639531377347
0.000238814382025706
0.000221453600416823
7.79194807573779e-05
0.000272903733627609
7.09278317949887e-06
0.000256471298423379
3.45511574777558e-05
0.000178562704683178
0.000235486454998991
5.42133701622114e-05
0.00033790571392585
-4.20425640564591e-05
0.000231108123369265
-6.87523308453469e-05
4.62736505643147e-05
-6.53355002596366e-05
-1.74311758858703e-05
-5.99664567847949e-05
-1.8192326092838e-05
-5.64707175398721e-05
-1.16155970611939e-05
-5.52019703511337e-05
-5.09968938529821e-06
-5.60092424652667e-05
1.1493990636954e-06
-5.84108833883926e-05
5.49338363456503e-06
-6.23305267063013e-05
9.56661300737314e-06
-6.83053323305211e-05
1.52146210625295e-05
-7.66530790057466e-05
2.18917818991454e-05
-8.73843496487009e-05
2.85063812506311e-05
-0.000100520391585445
3.5426764802264e-05
-0.000115673397540159
4.13172077812819e-05
-0.000132226370347781
4.52944259356359e-05
-0.000149907349738339
4.88918442656769e-05
-0.000168266801360515
5.19189709808395e-05
-0.00018618723535983
5.14683007727171e-05
-0.000202971840864022
4.83635035914648e-05
-0.000219268012617918
4.61748106112937e-05
-0.000237290528320472
5.1773172419093e-05
-0.000260385953087024
8.05289349415781e-05
-0.00028250584145338
8.94268530934325e-05
-0.000296858123981889
6.29698864993626e-05
-0.000305210796352158
4.0783425592538e-05
-0.000309722516853393
2.66746741483923e-05
-0.000311258854003117
1.58378002035947e-05
-0.000310423555292825
7.22477653944054e-06
-0.000307566872058909
-1.08202262856207e-07
-0.000302951236266693
-6.53487148973358e-06
-0.000296774182499761
-1.22944899524883e-05
-0.000289198968424654
-1.74838168676437e-05
-0.000280368125743494
-2.21837864950042e-05
-0.000270411847258285
-2.64332637476396e-05
-0.000259452097287309
-3.02584111749553e-05
-0.000247606568038559
-3.36676319904395e-05
-0.000234990266862713
-3.66662384480191e-05
-0.000221716775284138
-3.92497574589341e-05
-0.000207894454932598
-4.14300549495261e-05
-0.000193623976625443
-4.32327881450416e-05
-0.0001789991800616
-4.46814327826806e-05
-0.000164107189520315
-4.5800750338035e-05
-0.000149028799778965
-4.66132931340823e-05
-0.000133838073810414
-4.71447824151389e-05
-0.000118602422142035
-4.74196900679901e-05
-0.000103383058875957
-4.74637514734768e-05
-8.82381061938832e-05
-4.72890783115621e-05
-7.32216968458849e-05
-4.69092014188664e-05
-5.83811519178995e-05
-4.63509460975388e-05
-4.37571776122617e-05
-4.5638837765471e-05
-2.93835694266963e-05
-4.48016427311773e-05
-1.52884682520092e-05
-4.38605335478022e-05
-1.49321818961215e-06
-4.284366168606e-05
1.19812549409108e-05
-4.17559393954454e-05
2.51122461816576e-05
-4.05892154619959e-05
3.78804007525351e-05
-3.93559623310406e-05
5.02698569063808e-05
-3.80672702083565e-05
6.22713282877202e-05
-3.67502427685521e-05
7.38779595152229e-05
-3.54140501698469e-05
8.50820442637502e-05
-3.40553122594653e-05
9.58766317505625e-05
-3.26779100748498e-05
0.000106256459492622
-3.12870862551547e-05
0.000116218888536375
-2.98937311688528e-05
0.000125761474039962
-2.84972763154422e-05
0.000134881450797011
-2.70975062525338e-05
0.000143576039828829
-2.56940063375434e-05
0.000151843473136933
-2.42912914511507e-05
0.000159681682737531
-2.2887414274947e-05
0.000167087473454229
-2.14786171683086e-05
0.000174056553736774
-2.00612171841369e-05
0.000180584199515249
-1.86343306810362e-05
0.000186664493660972
-1.71935115924044e-05
0.000192289050766162
-1.57298736299671e-05
0.000197447167719923
-1.42359936185474e-05
0.000202125269892036
-1.27027682302588e-05
0.000206306451260007
-1.11179479613533e-05
0.000209968885700826
-9.46676705224697e-06
0.00021308450659676
-7.7243859201543e-06
0.000215617383647453
-5.87144753692024e-06
0.000217520971619571
-3.86076503410681e-06
0.000218733333987311
-1.66483892909819e-06
0.000219171168437023
8.13636445967856e-07
0.000218728697976995
3.59850666913054e-06
0.000217262050098996
6.92637318450364e-06
0.000214566929154964
1.0823320159009e-05
0.0002103448697227
1.58863989342296e-05
0.000204150610428682
2.20869964743774e-05
0.000195339874244957
3.08601076424508e-05
0.000182676277323655
4.27547894845649e-05
0.000165386561165435
5.96979447473229e-05
0.000154772823542835
3.22880981046788e-05
0.000158680183882876
-2.3016530101639e-05
0.000170414363619372
-4.6335396386778e-05
0.000186287758011399
-5.88737253234218e-05
0.000204647213670334
-6.63146329870092e-05
0.000225172365750215
-7.31025754646239e-05
0.000248208105026331
-8.19929330343927e-05
0.000273003434715886
-8.7192659098858e-05
0.000297923595439317
-8.5219547470419e-05
0.000321726293502581
-7.87536451290929e-05
0.000343119292443472
-6.76310176730307e-05
0.000360108068582751
-4.87138669012283e-05
0.000372740802624593
-3.28872617105861e-05
0.000382959266787923
-2.66816986295145e-05
0.000392856748020831
-2.80706823131187e-05
0.000405383277811675
-4.01110864467838e-05
0.000425503577698905
-7.05030299126536e-05
0.000454557494865341
-0.000101459959988764
0.000490305127298068
-0.000119836560613586
0.000531266544834302
-0.000134305487231707
0.000570972472733547
-0.000118345271980194
0.000584745588884835
2.64665718254485e-07
0.000536361999999659
0.000240232223532797
0.00044050070390192
0.000357500827475362
0.000339303605317193
0.000322650699002674
0.0001314035136874
0.000353933393600408
2.99290913085139e-05
0.00033152927647063
5.69552746073992e-05
0.000245213843836522
0.00032180188764686
9.63934475186412e-05
0.000486726110250611
-3.23221541585813e-05
0.000359823725055367
-7.70822382820474e-05
9.10337346993084e-05
-7.71499231615195e-05
-1.73634909920674e-05
-7.21088781016752e-05
-2.32333711358529e-05
-6.87625125491362e-05
-1.4961962593304e-05
-6.7853500763443e-05
-6.00870114792519e-06
-6.9309151945262e-05
2.60505026987497e-06
-7.26665144754052e-05
8.85074618957629e-06
-7.78883913937639e-05
1.47884899515658e-05
-8.55563273918964e-05
2.28825570884549e-05
-9.59953571540708e-05
3.23308116922207e-05
-0.00010917140770853
4.1682431839953e-05
-0.000124985680343229
5.12410374764475e-05
-0.00014288754956028
5.92190770429474e-05
-0.000162104495389943
6.45113718152646e-05
-0.000182169228234904
6.89565771656114e-05
-0.000202439338278938
7.21890810835426e-05
-0.000221811468406865
7.08404309606084e-05
-0.000239769406950529
6.63214421933609e-05
-0.000257001064257787
6.34064679721542e-05
-0.000275268730706264
7.00408389144116e-05
-0.000296369882910085
0.000101630087184439
-0.00031486502706048
0.000107921997275826
-0.000326140341168547
7.42452006341837e-05
-0.000332173502022682
4.68165864701406e-05
-0.000334732956133383
2.92341282808044e-05
-0.000334527753862057
1.56325979531731e-05
-0.000332079622126939
4.77664482502329e-06
-0.000327697751658908
-4.49007270998654e-06
-0.000321615541084126
-1.26170820431642e-05
-0.000314007607719368
-1.99024232951982e-05
-0.000305026754029434
-2.64646705346227e-05
-0.000294808607537715
-3.24019329627251e-05
-0.000283478470002293
-3.77634012579848e-05
-0.000271155041432588
-4.25818397185448e-05
-0.000257953619995914
-4.68690534001341e-05
-0.000243987628186165
-5.06322302301626e-05
-0.000229369425123057
-5.38679604940441e-05
-0.000214206514158987
-5.65929658854086e-05
-0.000198599100579955
-5.88402016958047e-05
-0.00018264084615122
-6.06396871831107e-05
-0.000166418998293697
-6.20225981671901e-05
-0.000150014623899961
-6.30176674992443e-05
-0.000133502261828937
-6.3657144457219e-05
-0.000116949824220408
-6.39721276469008e-05
-0.000100419112812748
-6.39944628504714e-05
-8.39688004873772e-05
-6.37393906047914e-05
-6.76535196652505e-05
-6.32244822069741e-05
-5.15212034467725e-05
-6.24832622799238e-05
-3.56131279827443e-05
-6.15469131914512e-05
-1.99638449868372e-05
-6.0450925687701e-05
-4.60225936449994e-06
-5.92221191305779e-05
1.04490808521987e-05
-5.78950018647057e-05
2.51683219573676e-05
-5.64751804660186e-05
3.95324460990659e-05
-5.49533395742997e-05
5.35215453542762e-05
-5.33450615631022e-05
6.71192605895936e-05
-5.16649854269852e-05
8.0315532243447e-05
-4.99465144113245e-05
9.31028649714176e-05
-4.82013828905676e-05
0.000105473029797236
-4.64254770794126e-05
0.000117418459206059
-4.46233394765311e-05
0.000128933338101044
-4.28019651394158e-05
0.000140014373073086
-4.09747661250455e-05
0.000150658592410722
-3.91414956315959e-05
0.00016086262323129
-3.73015370466159e-05
0.000170623091944366
-3.54544750206458e-05
0.00017993755904807
-3.36057585234135e-05
0.000188803367780466
-3.17532229765125e-05
0.000197216695816703
-2.98919451760167e-05
0.000205172578920873
-2.80171002631049e-05
0.000212665551664645
-2.61273034032391e-05
0.000219688986023552
-2.42169459331031e-05
0.000226233794076368
-2.22746816673028e-05
0.000232288489369864
-2.02906888985454e-05
0.000237838641467243
-1.82529203154483e-05
0.000242866553314779
-1.61458597975121e-05
0.000247349482499045
-1.39496962255325e-05
0.000251258751662953
-1.16336550730061e-05
0.000254557328571689
-9.17002443385375e-06
0.000257198553161377
-6.50198961032009e-06
0.00025912071355398
-3.58699930545495e-06