/*--------------------------------*- C++ -*----------------------------------*\
  =========                 |
  \\      /  F ield         | OpenFOAM: The Open Source CFD Toolbox
   \\    /   O peration     | Website:  https://openfoam.org
    \\  /    A nd           | Version:  7
     \\/     M anipulation  |
\*---------------------------------------------------------------------------*/
FoamFile
{
    version     2.0;
    format      ascii;
    class       volScalarField;
    location    "20000";
    object      Pk_bouss;
}
// * * * * * * * * * * * * * * * * * * * * * * * * * * * * * * * * * * * * * //

dimensions      [0 2 -3 0 0 0 0];

internalField   nonuniform List<scalar> 
15600
(
4.85773935994002e-08
6.2398080514484e-08
2.55310114055897e-08
5.07209895849163e-10
8.64698794782738e-10
6.14296481636252e-10
3.59768633097865e-10
2.0300358593493e-10
1.02677302540564e-10
6.85464078923054e-11
5.39448328618895e-11
5.2940860978894e-11
5.66914662072183e-11
6.91607753857641e-11
9.5502437832239e-11
1.45671070358399e-10
2.35070839458972e-10
3.93638142095627e-10
6.53425810370596e-10
1.05522023686943e-09
1.68161308617207e-09
2.62263701866471e-09
3.90550203780637e-09
5.54632081672842e-09
7.37006060998095e-09
1.08432966791691e-08
2.0029932408704e-08
3.4515871385493e-08
4.94398285812277e-08
6.47426378948318e-08
7.9600973163558e-08
9.37274552224115e-08
1.06724902474747e-07
1.18319087501347e-07
1.28266458757376e-07
1.36177814066351e-07
1.41641311589077e-07
1.44516475426382e-07
1.44797781177815e-07
1.42580481504536e-07
1.38061493514397e-07
1.31523050672022e-07
1.23324574802422e-07
1.13858849392458e-07
1.03519927824981e-07
9.26857287963107e-08
8.17022636081518e-08
7.08748505072567e-08
6.04594392684864e-08
5.06596101515145e-08
4.16263663905856e-08
3.34698964073065e-08
2.62578198566802e-08
2.00165101956649e-08
1.47377681988514e-08
1.03858874933038e-08
6.90584515794131e-09
4.22745121740082e-09
2.27662717349153e-09
9.75443736841627e-10
2.43758031398804e-10
1.66150711919974e-12
1.72191338881642e-10
6.83337424106881e-10
1.46815571866716e-09
2.46501927978096e-09
3.6184988364473e-09
4.87918571877442e-09
6.20307567860925e-09
7.55121826947578e-09
8.89003459336235e-09
1.01906790211191e-08
1.14280341304521e-08
1.25803591875289e-08
1.36294598612856e-08
1.45602554216086e-08
1.53596030835553e-08
1.60160945650725e-08
1.65207051646258e-08
1.6864853650008e-08
1.70428934054036e-08
1.70463056414232e-08
1.68730305799251e-08
1.65114208270596e-08
1.59708284090275e-08
1.52551021037187e-08
1.43721080547539e-08
1.32681287557094e-08
1.20045195897754e-08
1.0467097254465e-08
8.83302134554066e-09
6.85873364086793e-09
5.01148517793824e-09
2.79250366734089e-09
1.34517285614383e-09
1.82520902031642e-09
3.89469099028995e-09
7.59137746775426e-09
1.41687032345015e-08
2.46980437964093e-08
4.21225363732519e-08
6.91832497944132e-08
1.04608448156668e-07
1.44684015640112e-07
1.85329168490412e-07
2.15236475456719e-07
2.33381487295887e-07
2.51896280580419e-07
2.79666389538211e-07
3.2679979799168e-07
4.25937086122205e-07
6.11152026943994e-07
8.68551309840424e-07
1.2223941987798e-06
1.56861899839444e-06
1.56239358135787e-06
9.22612343513399e-07
3.3118030930165e-07
8.94362112812127e-08
3.97558257307664e-08
1.23092294305207e-05
1.33250452770271e-05
6.27935905008807e-06
4.88734103241263e-07
5.75471913529693e-08
8.03635018791293e-08
5.26803606175647e-08
3.08174517765385e-08
1.63336483886595e-08
1.11894394261295e-08
9.07834721702322e-09
9.04727218419763e-09
9.916305879357e-09
1.23321721362031e-08
1.7272362166491e-08
2.6569316349904e-08
4.31174064685804e-08
7.20970452112062e-08
1.19598402856331e-07
1.9381443957827e-07
3.08517397475805e-07
4.78398483436802e-07
7.09686122847145e-07
1.00375916996126e-06
1.38315544461123e-06
2.03812063683722e-06
3.38516476695866e-06
5.31766562154842e-06
7.24613088000402e-06
9.1222579296437e-06
1.08715293907627e-05
1.24606047723929e-05
1.38515989507005e-05
1.50194124464068e-05
1.59456804371201e-05
1.65894620655326e-05
1.69179542855868e-05
1.69328964394519e-05
1.66478966850778e-05
1.60870372102813e-05
1.52842396755357e-05
1.42808458502178e-05
1.31238717621053e-05
1.18616397055065e-05
1.05405922350059e-05
9.20365711297029e-06
7.88883123179149e-06
6.62848930498271e-06
5.44875026720761e-06
4.36946854875042e-06
3.40451430006974e-06
2.56279269443978e-06
1.84833555544604e-06
1.26071904430343e-06
7.95894738043512e-07
4.47053452163964e-07
2.05473507890816e-07
6.12055437953886e-08
3.83610870018648e-09
2.2583192450702e-08
1.06583163397389e-07
2.4524554257909e-07
4.28606566064662e-07
6.47280780186184e-07
8.92553843458748e-07
1.15642264117608e-06
1.43177864817326e-06
1.71226824021241e-06
1.99221814130064e-06
2.26657856536183e-06
2.53103700271469e-06
2.78186881800264e-06
3.01581057279618e-06
3.23000116849024e-06
3.42204854013107e-06
3.58994643963262e-06
3.73190171778059e-06
3.84632600504382e-06
3.93189406488615e-06
3.9873195604205e-06
4.01163695867958e-06
4.0034473387551e-06
3.96211744607575e-06
3.8856435779761e-06
3.77472856647818e-06
3.63166529524324e-06
3.45574024506067e-06
3.23822779834484e-06
2.98555814250444e-06
2.68006589889154e-06
2.34316872237639e-06
1.93678778029726e-06
1.52306914939625e-06
1.01781189418997e-06
7.00890089896157e-07
8.54737023715818e-07
1.33722418099664e-06
2.11151380637812e-06
3.27658976898916e-06
4.96970075471455e-06
7.52076856504485e-06
1.11517698195533e-05
1.56816490571967e-05
2.07397914711604e-05
2.5866745748336e-05
2.99064217220115e-05
3.27910679515018e-05
3.56458703651818e-05
3.94550962021923e-05
4.55990733749983e-05
5.76053278168529e-05
7.87895033070338e-05
0.000108254556841658
0.000148934788576096
0.000189777124754195
0.00019595065441557
0.000137716484902735
6.65556334229119e-05
2.46853270945568e-05
1.26826782412523e-05
0.00033799307375569
0.000318537515153676
0.000165157257058351
2.48842146712638e-05
1.67588983826578e-07
1.093323856423e-06
8.49009850686635e-07
5.22331270481861e-07
2.93205660321355e-07
2.07599314578575e-07
1.74467422808451e-07
1.77081760777351e-07
1.98938247748234e-07
2.52201130118407e-07
3.5781156768345e-07
5.53865434189778e-07
9.00590518876505e-07
1.49782240439491e-06
2.47124720497444e-06
3.98878803800742e-06
6.28497914777056e-06
9.59961028064391e-06
1.40462742772344e-05
1.97012000816253e-05
2.74246510548731e-05
3.86924919638323e-05
5.66605071203637e-05
7.98144755720764e-05
0.000101448839639328
0.000120596004295023
0.000136972013577526
0.000150395224627178
0.000160733660949561
0.000167954644458293
0.000172082066536472
0.000172806436598024
0.000170312745490412
0.000164875448922857
0.000156851944465983
0.000146659985630521
0.000134763963833021
0.000121650722484088
0.000107810125970445
9.37062012533615e-05
7.97581552936678e-05
6.63321228168093e-05
5.37350545227651e-05
4.22130671399584e-05
3.19509638071979e-05
2.30754980550562e-05
1.56606828803864e-05
9.73462394897774e-06
5.28301924809691e-06
2.25554577990899e-06
5.7358182479977e-07
1.38026703703265e-07
8.36334022059203e-07
2.54838837628786e-06
5.1485592337353e-06
8.50919566533729e-06
1.25032014732818e-05
1.70107282803029e-05
2.19181610273335e-05
2.71170860508266e-05
3.25060294301208e-05
3.79915469031388e-05
4.34911443873284e-05
4.89296992454023e-05
5.42391218120344e-05
5.93576383953021e-05
6.4232370251664e-05
6.88165456524325e-05
7.30682281179293e-05
7.69494326767178e-05
8.04276453724574e-05
8.34744458206998e-05
8.60631930893806e-05
8.81692752728047e-05
8.97700103219608e-05
9.0842983062048e-05
9.13677498278608e-05
9.13183081821861e-05
9.06744234983243e-05
8.93992015198969e-05
8.74730069023484e-05
8.49317702072964e-05
8.17527498972316e-05
7.77969133834992e-05
7.30905775867192e-05
6.73687520975683e-05
6.08057487866312e-05
5.28323407533102e-05
4.40689838002586e-05
3.31795391628416e-05
2.74042162394226e-05
3.1912425919601e-05
4.20811848554397e-05
5.71528015326607e-05
7.69399282411306e-05
0.000103311206512728
0.000139550003747165
0.000186533915290539
0.000242229874731769
0.000304024602089381
0.000367627539383392
0.000423122272864882
0.000470699700237531
0.000518755668874416
0.000576135281932408
0.000660448701258445
0.000806765508530809
0.00104240491750468
0.00136243152286162
0.00179908784819772
0.00224164296076096
0.00238189306797071
0.00196412938070336
0.0012654820047496
0.000641719331948081
0.000390550517212982
0.0028124836244592
0.00242598890559493
0.00136697384037445
0.000322263923848638
5.14052020743784e-06
4.51664080356292e-06
4.6945685046699e-06
3.11983775335034e-06
1.88253934922006e-06
1.39050996593949e-06
1.21570769442783e-06
1.25945447513718e-06
1.44919013673368e-06
1.86682587057452e-06
2.66831455123214e-06
4.12550484340924e-06
6.65081366946198e-06
1.08655665601528e-05
1.75458618128318e-05
2.75949273234418e-05
4.19402624423352e-05
6.13651342438287e-05
8.60497297351828e-05
0.000116316869895412
0.000155467125495673
0.000198763683086369
0.000247217872884174
0.000299212286466694
0.000340408273666742
0.000368624827050175
0.000386127844145138
0.000393906632518198
0.000393120513589377
0.000384922368143333
0.000369905181968015
0.000349079405016593
0.000323704611615197
0.000294949991351112
0.000263945660096161
0.000231758269225579
0.000199373659786742
0.000167678168665448
0.000137444800252024
0.000109324836008037
8.38482390311716e-05
6.14298321667746e-05
4.23761865572029e-05
2.6893673180543e-05
1.50976388848937e-05
7.0219688601862e-06
2.62889929164978e-06
1.81803655877498e-06
4.43644477381793e-06
1.02890534409986e-05
1.91494616851842e-05
3.07679398314091e-05
4.4882559713327e-05
6.12164623259351e-05
7.94759320474066e-05
9.93735157960203e-05
0.000120620020407094
0.000142946184988374
0.000166088852422448
0.000189788617934385
0.00021379498902525
0.0002378737738789
0.000261813639527318
0.000285413472014393
0.00030848328276602
0.000330843448051964
0.000352334019797431
0.000372806056061596
0.000392119193902638
0.000410139077191479
0.000426743083658293
0.000441816317180509
0.000455245162711862
0.000466918876132637
0.000476725241707134
0.000484552080250551
0.00049028150438432
0.000493782554392882
0.000494916059122072
0.000493507512382287
0.000489368137262824
0.000482311615979451
0.000472359608424305
0.000458982456213307
0.000441897995650761
0.000420170828994984
0.000393569164108502
0.000360050443683685
0.000319746546091075
0.000267429535720905
0.000247109044491984
0.000275227688624233
0.000320134069553984
0.000383559370272313
0.00046041941670855
0.00055789383796294
0.000682812158542145
0.000832469400253128
0.00100452770576922
0.00120032875422183
0.00141393382288191
0.00163237260381041
0.001862570042957
0.0021133528759103
0.00239508109201123
0.00276086325923349
0.00329026381969513
0.00402553080956625
0.00495359714978277
0.00617147572677902
0.00737704921862926
0.00800685831176649
0.00763068296306002
0.00641859360869702
0.00444695383492315
0.00330902087825887
0.00989907863690035
0.00827252047199947
0.00518467246021282
0.00178290259352888
0.00010645704319378
7.14576346459277e-06
1.34868696770746e-05
1.02057712451845e-05
6.77902008824492e-06
5.29217822824089e-06
4.83292720122418e-06
5.11497023245969e-06
6.00294601274488e-06
7.79322952687225e-06
1.10859650811371e-05
1.68424476118941e-05
2.6338903190949e-05
4.11560725814434e-05
6.29148605805759e-05
9.26079918713211e-05
0.000129989511117847
0.000174347469424798
0.000224478937102961
0.000280073722062987
0.000341508863175228
0.00037890141832663
0.000381909974303991
0.000373784949662672
0.000361931792576074
0.000341636941788873
0.000316996407391049
0.000289050527236627
0.000259246722520006
0.000228706078354022
0.000198095392153145
0.000168233677587077
0.000139808044744693
0.000113366593305634
8.93395546513555e-05
6.80549803829716e-05
4.97485810076235e-05
3.45790362402743e-05
2.26427933748871e-05
1.39884719038844e-05
8.62527071303729e-06
6.53035035596007e-06
7.65383845066587e-06
1.19232287572622e-05
1.9246276556252e-05
2.95131432126399e-05
4.25954093703706e-05
5.83537699115444e-05
7.66440293096468e-05
9.73152006180044e-05
0.000120210901985502
0.000145166275335534
0.000172014765165282
0.000200560900609971
0.000230612843728931
0.000261973560228845
0.000294455409155079
0.000327886237511469
0.000362076612048027
0.000396834345757417
0.00043196431603687
0.000467282701383061
0.000502615731924291
0.000537787695081431
0.00057262236102578
0.000606945532292654
0.000640593493654542
0.000673404955742009
0.000705219149472688
0.000735874180280433
0.000765213398090148
0.000793081969516835
0.000819320968141623
0.000843770665622354
0.000866260424917215
0.000886621584294459
0.00090466359290613
0.000920197069238494
0.000932985089366305
0.00094280114792172
0.000949304875358948
0.000952112884323308
0.000951060197485247
0.000945725001487783
0.000935260853615492
0.000919019044967525
0.000895399802645077
0.000862995946839232
0.000818042458957924
0.000756900165110585
0.000753305092084124
0.000799822929676456
0.000843651154286671
0.000913153193425947
0.00100236267032136
0.0011210594423946
0.00127014274063847
0.00143885625880947
0.00163150892233669
0.00186427196290244
0.00214336878850391
0.00248666402667939
0.00292667971883808
0.0034600913307918
0.00406820573135572
0.0047983813935421
0.00567132589841497
0.00665639954580963
0.00772508707360279
0.00902072092392567
0.0102075062929705
0.0112572862436418
0.0125726865838285
0.0136431452444592
0.0125001555660188
0.0112209877766928
0.0186631759763176
0.0156369867033497
0.0110197689298895
0.00526901202860942
0.000742729543633997
5.24785297743697e-06
2.19174662952719e-05
2.12894051171138e-05
1.62648257126321e-05
1.36975070696183e-05
1.31311368509722e-05
1.41805543654169e-05
1.68252976805848e-05
2.16946576696224e-05
3.0098618889099e-05
4.37816756658958e-05
6.43220774253635e-05
9.2667637556272e-05
0.000128772112706144
0.000170271125892784
0.000212734437245349
0.000253576998786428
0.000292422163518293
0.000329288675874404
0.000358322102122611
0.000336961177367588
0.000262577448951289
0.000195876825283856
0.000154107271935405
0.000120367723029718
9.34912530421657e-05
7.12780108627898e-05
5.30693811687562e-05
3.83319408495849e-05
2.66950019002898e-05
1.79927733039125e-05
1.20709064067191e-05
8.77843116359217e-06
7.96351165898168e-06
9.47231786795501e-06
1.31511341278532e-05
1.88515754434648e-05
2.64411226188913e-05
3.58042553106936e-05
4.6837160392061e-05
5.94467192697255e-05
7.35485351192164e-05
8.90665025352618e-05
0.000105930052220807
0.000124073054257164
0.000143428118346993
0.000163936656605961
0.000185550572066154
0.000208224933753694
0.000231913047169362
0.000256561195441947
0.000282110201059733
0.000308471375745749
0.000335563330362498
0.000363311587482251
0.000391652133790854
0.000420531503966151
0.000449867627356043
0.00047957297598345
0.000509554601187656
0.000539731251607414
0.00057002515553274
0.000600350320883586
0.000630613545176108
0.000660721434016069
0.000690586591467943
0.00072011952367426
0.000749225654622912
0.000777806719111725
0.000805767473498313
0.000833012570839956
0.000859440464231871
0.000884949544066207
0.000909428018432691
0.000932773020560308
0.000954859870794628
0.000975585917360587
0.000994796061312201
0.00101240199522748
0.00102817326234334
0.00104206583999576
0.00105389483463135
0.00106381549635663
0.00107112853275248
0.00107648495406853
0.00107842660036551
0.00107896196296115
0.0010737370493952
0.00107180343983889
0.00112201772120387
0.00116425157866275
0.00116573605647959
0.0011879957510664
0.0012339728262449
0.00131044548026348
0.00140949077896552
0.00151244270772666
0.00162346345241273
0.00176390881308011
0.00194761325132046
0.00221607292054408
0.00262823711068832
0.00318919895379078
0.00386511121639691
0.0046690928634027
0.00551045882746793
0.00624626818654796
0.00682463123299986
0.00738758846349332
0.00772368060783558
0.00835290451835756
0.0112107600942025
0.016154874153268
0.0190394229330178
0.0198840077888696
0.0228077266232389
0.0202516095292464
0.0160422150055824
0.00996473524822259
0.00265063514412877
6.88344161612484e-05
1.59804553799012e-05
2.82048631072772e-05
2.70928499257468e-05
2.55064649330179e-05
2.59075528917087e-05
2.84942765754987e-05
3.37793442320572e-05
4.24759734054472e-05
5.6135207360142e-05
7.6059509390899e-05
0.000101952354539231
0.000131735325349882
0.000162685506686644
0.000190631849009606
0.000211300347639647
0.000225076526692237
0.000234953955742812
0.000240815870602832
0.000234508571926516
0.000183422732648428
0.000102727980288952
5.04197874581387e-05
2.61440512445314e-05
1.19552657853409e-05
4.54416233525127e-06
1.54091578666203e-06
1.91388947088665e-06
5.01359932950887e-06
1.04462114258978e-05
1.78926277558645e-05
2.70864306313876e-05
3.77909357624796e-05
4.97901320465777e-05
6.28849248304187e-05
7.689663226449e-05
9.16678332385753e-05
0.00010707235236065
0.000123014856173972
0.000139420560408302
0.000156231273077371
0.000173402534840637
0.000190902506750198
0.000208708699281893
0.000226807162179182
0.000245183827845234
0.000263837312115763
0.000282780325592578
0.00030203052965345
0.000321601069421681
0.000341492919206024
0.000361701595350264
0.000382187674411256
0.000402926041614909
0.000423896584243402
0.00044509370219597
0.000466524506641935
0.000488162449799013
0.000509968328668886
0.000531898501985463
0.0005539244433634
0.000576022306740478
0.000598156777950033
0.000620281609960146
0.000642351305366414
0.00066432862592061
0.000686173877982161
0.00070783936911917
0.000729273946719351
0.000750432279518552
0.00077127102175725
0.000791739740036739
0.000811789962462303
0.00083136775476771
0.000850433630634797
0.000868932260293897
0.000886838997802954
0.000904088648015994
0.000920703030753121
0.000936590710588225
0.000951881053226779
0.000966548418451733
0.000981153862651269
0.000995393935630247
0.00101067193212417
0.0010264385494537
0.00104695877083979
0.00107002057688842
0.00111475568717225
0.00121058862652478
0.0012668880586998
0.00125567938442915
0.00125099289396667
0.00126662046855265
0.00130878985262022
0.00136639624901558
0.00141582506469985
0.00145611055382469
0.00150606438153707
0.00157891423587969
0.00171587789719859
0.00198034493987254
0.00238744489629415
0.00290661317539611
0.00353486349739616
0.00413703576421762
0.00451444028573174
0.00459782829394727
0.00450957545356943
0.00414397952312992
0.003974475150845
0.00627829154734455
0.0127670192049526
0.0195690612707651
0.0228022893539112
0.0229906427442629
0.0210948713874625
0.0185559563334296
0.0142089966834394
0.0059510238838531
0.000489330832422184
1.89457381366308e-06
2.00777835445105e-05
3.00384298527319e-05
3.38235457550771e-05
3.71804078188656e-05
4.17649364551354e-05
4.9053017745192e-05
5.93238165729259e-05
7.34792464425214e-05
9.1341974309066e-05
0.000110558994606998
0.000127827009801046
0.000141419290322879
0.000149560635959522
0.000150759466687042
0.000147457667060027
0.000142716157289063
0.000134991616401315
0.000118025242990604
7.44067804486475e-05
2.56347513211553e-05
4.89580549812338e-06
1.460302616438e-06
5.16358884911709e-06
1.27148542938347e-05
2.29550672422625e-05
3.51356401815168e-05
4.89533538020625e-05
6.41103729605862e-05
8.03444861897559e-05
9.74181467780927e-05
0.000115114279292768
0.000133229463765455
0.000151575696090604
0.000169988011173978
0.00018832380669579
0.000206474977281462
0.000224372198788915
0.000241970940274843
0.000259244716363264
0.000276182410711929
0.000292786942736761
0.000309072585698044
0.000325064963430433
0.000340787370006705
0.000356275989160648
0.000371584276860831
0.000386771994420898
0.000401891166625626
0.00041697109770789
0.000432047099668545
0.000447110805315993
0.000462163084486706
0.000477210119202256
0.000492277048394108
0.000507406167035849
0.000522603014554374
0.000537849630416707
0.000553123866847982
0.000568422378363929
0.000583749621168467
0.000599095450070482
0.000614434571189977
0.000629743065431584
0.000645008862406259
0.00066021770935943
0.000675344238629876
0.000690359351795126
0.000705243038945049
0.000719979700578968
0.000734544928426453
0.000748916896738547
0.000763072024001239
0.00077700419384238
0.000790695798454416
0.000804161078423961
0.000817383984757387
0.000830437524385974
0.000843310379217056
0.000856190341582314
0.00086913967262174
0.000882870662057537
0.000897388149057304
0.000914323263294744
0.000933805729839013
0.000960849135200365
0.000995194438740583
0.00105905103017494
0.00117997153516645
0.0012624251050309
0.00126550687666685
0.00125936690340738
0.00126575952949397
0.0012932563751072
0.00133147898803901
0.00135463759442748
0.00135709072013901
0.00135450360063491
0.0013584932098145
0.00140415343262593
0.00155031251944192
0.00181559032491194
0.00217366438601652
0.00261812505856774
0.0030199712267327
0.00318386446764897
0.00303618196936144
0.00268829262151742
0.00207718288295482
0.00147744081400406
0.00242930893119502
0.00747967844745848
0.0155189903238349
0.0216136376316573
0.0203275572470215
0.019553351944007
0.0186683801294982
0.0169400155022757
0.00984541042970427
0.00168224534446695
4.65796801867461e-05
3.34094746691667e-06
1.94283561939079e-05
3.04505102401921e-05
3.80416376307248e-05
4.43785565566532e-05
5.18128514000235e-05
6.01806809718769e-05
6.97902986401155e-05
7.98955856085314e-05
8.82981035798601e-05
9.31041154891739e-05
9.4731772621992e-05
9.31695011675963e-05
8.78643283832852e-05
8.0742453162816e-05
7.34799005793661e-05
6.4263340619011e-05
5.0351407174037e-05
2.60434317144539e-05
1.06630968654422e-05
1.51532252836092e-05
2.68606978515705e-05
4.31695946997809e-05
6.08363393011835e-05
7.98590609229669e-05
9.97474169066458e-05
0.00012044929553109
0.000141753626072543
0.000163458897857148
0.000185349766677448
0.000207224691092361
0.000228887653526146
0.000250156228798758
0.000270872351305168
0.000290899577638666
0.000310138491886074
0.000328538483834393
0.000346078999703589
0.000362759040699756
0.000378594750465679
0.000393617795530104
0.000407873642424856
0.00042142280838439
0.000434319975616545
0.000446631023815732
0.000458443089125502
0.000469851472016773
0.000480937919352513
0.000491755123147539
0.000502373369452309
0.000512812914078306
0.000523086471842337
0.000533216916023535
0.000543250228181376
0.000553254891219906
0.000563260794297715
0.00057326134515265
0.000583244919393744
0.000593222558916453
0.000603216795310481
0.000613232316025522
0.000623253616391
0.000633266714296021
0.000643273321789293
0.000653273322103371
0.00066325180934239
0.000673189193074539
0.0006830780485573
0.000692917655231368
0.000702696072805327
0.000712403495357482
0.00072203103197709
0.000731589162631591
0.000741079520719217
0.000750534283803187
0.000759962212759088
0.000769458695777072
0.000779054326265677
0.000788972865303437
0.000799291769591838
0.000810779161225897
0.000823635868357902
0.000839534682580643
0.000859035385182089
0.000887240841111148
0.00092534693495796
0.000994890116002287
0.00112641304523329
0.00123258498340701
0.00125920588098005
0.00126478271521872
0.00127459902755181
0.00130012241897927
0.00133302963824529
0.00134691043432779
0.00133282895517649
0.00130412708932493
0.00127149625501656
0.00126520578057053
0.00133975417003974
0.00151569114162817
0.00176989783269036
0.00209787171614686
0.0023904515714095
0.00247939306675771
0.00228904032411745
0.00192498346425359
0.00131993447830325
0.000606806924466947
0.000650461176484423
0.00351832711218665
0.010290825406431
0.0173387885921809
0.0160358450497605
0.0166053530701057
0.0172440281105433
0.0182636845530934
0.013372762639393
0.00381597352041739
0.000248435845255628
4.63006555843566e-06
4.50718258881333e-06
1.6834856185519e-05
2.69843477850382e-05
3.41679960196287e-05
4.04986022655789e-05
4.57581318911679e-05
5.03209417680139e-05
5.39877629823467e-05
5.57312882159967e-05
5.50180360404957e-05
5.29272455171403e-05
4.96939432410959e-05
4.47699413867681e-05
3.91471978874549e-05
3.3675624831505e-05
2.73332256288962e-05
2.0436340042541e-05
1.52259646449848e-05
2.68854803840667e-05
5.0331201812683e-05
7.35442244418383e-05
9.95471310520784e-05
0.000124953037080789
0.000150724896512473
0.00017653008414062
0.000202505273087823
0.000228512778028936
0.000254396332947425
0.000279948275404033
0.000304973215918264
0.00032927434578102
0.000352667854638996
0.000374996037132477
0.000396121462235975
0.000415946529652372
0.000434435016151896
0.000451587299639505
0.000467425027957497
0.000481989020157542
0.000495337291727055
0.0005075445979064
0.000518705611947538
0.000528904885253387
0.000538234802300863
0.000546813774991484
0.00055477060258644
0.000562210580835789
0.00056921349122877
0.000575884989330883
0.000582270104974359
0.00058838927902327
0.000594278021709103
0.000599999335018041
0.000605644626586575
0.000611265912414931
0.000616864167260481
0.000622433548277185
0.000627995104646336
0.000633585428204344
0.000639219898918548
0.000644887875107851
0.000650580122930162
0.000656307207713275
0.000662078289452353
0.00066788351538867
0.000673706923363655
0.000679547797158191
0.000685414433681329
0.000691301024794356
0.000697202839441655
0.000703118245358116
0.00070906661385467
0.000715060136195946
0.000721139673566046
0.000727327298137313
0.000733729211835144
0.000740399651170795
0.00074758613261965
0.000755382021442582
0.000764544300466873
0.00077542061817684
0.000789679964748762
0.000808174200252931
0.000835878548043533
0.000875122530323484
0.000945532455094713
0.0010799033228945
0.00120324438376108
0.00125383088470832
0.00127666404307279
0.00129671421343361
0.00132757858693443
0.00136304243083852
0.00137683042113712
0.00135788843024823
0.00131799109905575
0.00126738002264825
0.00123332159780865
0.00126767185261858
0.00139330269660388
0.0015899250607921
0.00185774391197765
0.00210720403181992
0.00220105538342931
0.00205598031239978
0.00177026868437109
0.00124413855274915
0.000523501336034162
8.58899343093753e-05
0.00143528028628088
0.00608179921017608
0.0121194131362899
0.0115435791723211
0.0127518686345831
0.0148219742874722
0.0179923591913111
0.0168366789497284
0.0065370714755992
0.000689047284363922
4.51631017229471e-05
8.16947205626888e-07
3.82031282034713e-06
1.2182324020661e-05
1.8730525840174e-05
2.3653141617515e-05
2.67199224694808e-05
2.85419125572971e-05
2.95007008762693e-05
2.93348640022191e-05
2.79808893415373e-05
2.6209352356167e-05
2.41784356952944e-05
2.14410286172666e-05
1.83998852417449e-05
1.5669037765923e-05
1.33017444543538e-05
1.37044270722993e-05
2.47701675721765e-05
5.81180951045981e-05
9.68790758157883e-05
0.0001298736401359
0.000164268276209054
0.000196420244260717
0.000228131966053368
0.000259152054908126
0.000289794798481598
0.000319983628484611
0.000349597195126673
0.000378425825614306
0.000406274596773229
0.000432940806103416
0.000458235003436036
0.000481996050074421
0.000504081044675017
0.000524389737023757
0.000542898169143291
0.00055962669820049
0.000574618686225907
0.000587938823410403
0.000599670732245915
0.000609918098420136
0.000618810635057877
0.000626463092239191
0.000632993030575399
0.000638549487063903
0.000643291959616512
0.000647350271961529
0.000650834316817238
0.00065388434530978
0.000656569692783178
0.000658917151160199
0.000660972984301114
0.000662815632825989
0.000664558366224035
0.000666275164787024
0.000667972963421093
0.000669649316769498
0.000671333433530134
0.000673074485152893
0.000674896863776648
0.000676792317498698
0.000678753786572272
0.000680798522495234
0.000682942871284606
0.000685179352374458
0.000687492608230396
0.000689885836055181
0.00069237370158444
0.000694953448860322
0.000697621953897475
0.000700381250237207
0.000703256099115546
0.00070626521112633
0.000709454077415462
0.000712852715435435
0.000716573753270883
0.000720686910390204
0.000725457158938529
0.000730996826385714
0.000738047511575779
0.000747051521684446
0.000759683571672347
0.000777016537556318
0.000803848469549896
0.000843430350681934
0.00091333842219089
0.00104689036367909
0.00118136689357443
0.00125317153701924
0.00129497406643572
0.0013288472501892
0.00136931478345732
0.0014117792776044
0.00143044943398831
0.00141309489325305
0.00137053058985928
0.00131275998572365
0.00126527302492209
0.00127850596737564
0.00137813637645376
0.00154653519308359
0.00179024362999765
0.00203628607604979
0.00217602329991149
0.00211095909847913
0.00192790255119343
0.00147968870816773
0.000759257745561705
3.21820885894894e-05
0.000543295866175113
0.00341944461739579
0.0080041532919303
0.00806892614575497
0.00951561584027775
0.0119372180431373
0.0166823481600587
0.0188964033521335
0.00976056027324861
0.00145115722107984
0.000133940096347939
1.58171868988191e-05
2.31376100193036e-07
2.25741493910094e-06
6.48563984318582e-06
9.91364195643879e-06
1.19839973810952e-05
1.32115569118531e-05
1.40520651630937e-05
1.44336463496375e-05
1.42825972171588e-05
1.38796437614068e-05
1.34532666959951e-05
1.28753307655586e-05
1.22609708360864e-05
1.22553153765165e-05
1.39134014720987e-05
2.09487185877728e-05
4.56683474239304e-05
9.71400214940191e-05
0.000149245719684074
0.000191318816753471
0.000233624340334952
0.000272205554725101
0.000309628299442416
0.000345675508684441
0.000380842803094519
0.000415106358720511
0.000448374384774728
0.000480428820773041
0.000511072269588662
0.000540093251965985
0.000567294360687997
0.000592509150789954
0.000615586567202163
0.000636420721956638
0.000654999100906087
0.000671362317534366
0.000685575574099023
0.000697727577612677
0.000707927642028255
0.000716308748144073
0.000723037302916839
0.000728259478979518
0.000732117599724593
0.000734791243819943
0.000736466529812461
0.000737304421426304
0.000737446377647107
0.000737064598249023
0.00073625491308295
0.00073505014996182
0.000733506290697319
0.000731716589232935
0.000729816114983499
0.000727901524254763
0.000725984936989845
0.000724065894027778
0.000722181064030375
0.000720391905106741
0.000718731210476986
0.00071719165533308
0.00071576691213123
0.000714480047734055
0.000713353784353076
0.000712381517584371
0.000711546715460004
0.000710855130353142
0.000710326669953991
0.000709960016603804
0.00070975173445115
0.000709705699553714
0.000709850496396085
0.000710209463786679
0.000710830924423723
0.000711750282906637
0.000713085131499471
0.000714917201425747
0.000717526122534182
0.000721051254461161
0.000726213333576109
0.00073353066244709
0.000744696916108551
0.000760967432308247
0.000786973519484246
0.000826723788657757
0.000895982604080104
0.00102717638472487
0.00116826354247332
0.00125775120555192