/*--------------------------------*- C++ -*----------------------------------*\
  =========                 |
  \\      /  F ield         | OpenFOAM: The Open Source CFD Toolbox
   \\    /   O peration     | Website:  https://openfoam.org
    \\  /    A nd           | Version:  7
     \\/     M anipulation  |
\*---------------------------------------------------------------------------*/
FoamFile
{
    version     2.0;
    format      ascii;
    class       volSymmTensorField;
    location    "20000";
    object      tauij_B;
}
// * * * * * * * * * * * * * * * * * * * * * * * * * * * * * * * * * * * * * //

dimensions      [0 2 -2 0 0 0 0];

internalField   nonuniform List<symmTensor> 
15600
(
(7.29050494083304e-07 -3.77054424828544e-09 -7.96215588619822e-33 7.29088602923894e-07 -2.85669243744842e-35 7.29070039349112e-07)
(7.02272726532174e-07 -4.19574669021293e-09 1.45683148612266e-28 7.02539020495389e-07 6.64747260508577e-28 7.02402269051219e-07)
(4.82744524851404e-07 -2.20740577627383e-09 2.3941390797821e-28 4.83394221323502e-07 2.87194303851321e-27 4.8307136279812e-07)
(2.4379823380648e-07 -2.15581940093638e-10 -4.70045145499057e-29 2.43916469431851e-07 -5.61853751789476e-33 2.43854065912395e-07)
(8.7935087135001e-08 1.4007093441862e-10 0 8.77273418526845e-08 0 8.78297326124206e-08)
(3.99984958471083e-08 6.89251785450763e-11 2.99085717458656e-33 3.98549997764394e-08 8.67674880430974e-36 3.99261572020809e-08)
(3.63081186879453e-08 4.4594564278827e-11 3.61239705536331e-32 3.61900127845481e-08 6.61242733354427e-32 3.62487475826013e-08)
(2.73734009577633e-08 2.71822717911821e-11 -1.35964543190401e-32 2.72896517644603e-08 -5.26765181965985e-32 2.73312750899563e-08)
(1.96929323399614e-08 1.63034030317806e-11 -8.14036964447064e-32 1.96390620607039e-08 -1.84096282026202e-31 1.96658820416826e-08)
(1.62870828012823e-08 1.2870690725843e-11 1.48044532421543e-28 1.62450271555083e-08 -4.55823708764091e-30 1.62659691452156e-08)
(1.52530574766948e-08 1.20723306556579e-11 -4.37271898187055e-28 1.5215481252279e-08 -1.54136844679552e-27 1.52342184045112e-08)
(1.58066932864695e-08 1.31734562179674e-11 1.71090691036655e-27 1.5767390949045e-08 3.50400066635673e-27 1.57869939580584e-08)
(1.74264499666809e-08 1.53039569347184e-11 -3.53855437691231e-27 1.73822222122181e-08 -6.331832046253e-27 1.7404299739893e-08)
(2.03209601112394e-08 1.92900601556279e-11 -4.19655782661922e-27 2.02663332840896e-08 -8.12605747594964e-27 2.02936149456628e-08)
(2.50817058201774e-08 2.63486926346032e-11 -1.49647105323283e-30 2.50078349625486e-08 -3.56976689819729e-30 2.50447484056494e-08)
(3.23890855586782e-08 3.88772799447917e-11 7.21519813593587e-27 3.22821331497988e-08 1.5595580759284e-26 3.23355886220555e-08)
(4.29975011362795e-08 6.11322900107881e-11 1.08615698354073e-26 4.28377138550125e-08 2.21843943269717e-26 4.2917598636341e-08)
(5.79484997283785e-08 1.00740001059223e-10 6.47961234476311e-31 5.77070757909061e-08 -4.14976918048808e-32 5.7827788280583e-08)
(7.81744064108629e-08 1.68126258274039e-10 -1.63027897254309e-26 7.78186431252172e-08 -4.89229179603217e-26 7.79965436755579e-08)
(1.04334549138769e-07 2.77958059252971e-10 -1.31745153819607e-26 1.03835894633815e-07 -4.50850215921867e-26 1.0408531455782e-07)
(1.37358451177415e-07 4.51290386275238e-10 -6.35892369104387e-27 1.36695187853947e-07 5.75867182937678e-28 1.37027096181329e-07)
(1.78064131647883e-07 7.07796728092358e-10 -2.12173326984551e-26 1.77235945415239e-07 -9.41616106211788e-26 1.776505399657e-07)
(2.254423890082e-07 1.05287806070647e-09 4.71645559618785e-27 2.245040378628e-07 -4.22091975262679e-28 2.24974056690812e-07)
(2.77729494125526e-07 1.48011959281266e-09 3.36605765647721e-26 2.76801967638027e-07 1.75735082441832e-25 2.77267560109378e-07)
(3.34062504346421e-07 1.94779261932195e-09 -1.29959512944834e-26 3.33331282892343e-07 8.43247672750724e-28 3.3369845918512e-07)
(3.99305464891988e-07 2.63103719255997e-09 1.04225349771779e-24 3.98934062491596e-07 -4.67553713928854e-26 3.991231584998e-07)
(5.06367852977884e-07 4.03517832868204e-09 3.57087527601551e-24 5.06255374984043e-07 -7.97752243020981e-24 5.06317272873835e-07)
(6.50045431478576e-07 6.00202824777226e-09 1.61790560533705e-24 6.49931983758548e-07 -9.4690590807199e-24 6.49993218535073e-07)
(7.87218290300247e-07 7.90531282741872e-09 -2.10675287770923e-24 7.87118733057809e-07 1.21671199669259e-25 7.87174840218496e-07)
(9.17004636232792e-07 9.7638470726406e-09 -7.86848758611214e-43 9.16914599720205e-07 -4.30723760396297e-28 9.16966741592415e-07)
(1.04147867480665e-06 1.15379550731197e-08 3.28146913254264e-24 1.04139918598384e-06 -1.70713998494339e-25 1.04144722167504e-06)
(1.16152512154897e-06 1.32219389876829e-08 1.13912811910382e-23 1.16145629972008e-06 -2.04004650736089e-23 1.16149999642194e-06)
(1.27789964768792e-06 1.4798951400777e-08 4.45995604898632e-24 1.27784254290839e-06 -2.17925973094319e-23 1.27788136080737e-06)
(1.39134610836517e-06 1.62590994025602e-08 -4.59493050289641e-24 1.39130190650486e-06 2.23879443694207e-25 1.39133515685016e-06)
(1.50273484034754e-06 1.75934390756684e-08 -3.90387193319742e-29 1.50270498381357e-06 1.82083974045744e-30 1.50273182897564e-06)
(1.61036201900277e-06 1.87658934457975e-08 0 1.61034781038229e-06 0 1.61036746759417e-06)
(1.71127340875814e-06 1.97292278488168e-08 5.47481724667232e-29 1.71127596490029e-06 -2.25891701147089e-30 1.71128770415382e-06)
(1.8045327068879e-06 2.04643249025449e-08 -7.31512044313865e-24 1.80455277655633e-06 2.8960101674801e-25 1.80455605420248e-06)
(1.88955827792972e-06 2.09613017965052e-08 -1.95347712846949e-23 1.88959622860346e-06 4.19271534288221e-23 1.88959067850155e-06)
(1.96580613521118e-06 2.121573929245e-08 -3.73107148694105e-24 1.96586188636609e-06 4.3449975655462e-23 1.96584737896763e-06)
(2.03287848033418e-06 2.12300131331668e-08 8.61364680820886e-24 2.03295151267995e-06 -3.10237769287762e-25 2.03292813480997e-06)
(2.09050603454318e-06 2.10128636104696e-08 1.54962007319271e-28 2.09059532140858e-06 3.16824124862482e-27 2.0905634376326e-06)
(2.13871847850253e-06 2.05807110507386e-08 5.48279327206656e-29 2.13882260327276e-06 -4.38271295427646e-28 2.1387827936189e-06)
(2.17777473210494e-06 1.99548568783835e-08 -8.11780846131555e-29 2.17789205927853e-06 2.47565734915585e-30 2.17784503184934e-06)
(2.20802362486183e-06 1.91589809530623e-08 0 2.20815236556507e-06 0 2.20809893047833e-06)
(2.22990739431136e-06 1.82183087482442e-08 1.24011933445834e-23 2.23004568436743e-06 -3.1245979207986e-25 2.2299867075401e-06)
(2.24391794644957e-06 1.71584552159502e-08 2.26861265059533e-23 2.24406388786599e-06 -7.32096167055097e-23 2.24400027728941e-06)
(2.25062423837826e-06 1.6004954844616e-08 -3.34720503301835e-24 2.25077597418628e-06 -7.45072594579377e-23 2.25070863199287e-06)
(2.25061164258965e-06 1.47821697190695e-08 -1.29115748617244e-23 2.25076739277312e-06 2.75746018166095e-25 2.25069720607804e-06)
(2.24447953950284e-06 1.35127345069305e-08 2.05779233816199e-42 2.24463766835368e-06 1.11757308992458e-27 2.24456545926191e-06)
(2.23270978245952e-06 1.22166782517908e-08 0 2.23286872886094e-06 0 2.23279529581183e-06)
(2.21583557185668e-06 1.09130569404385e-08 1.37542945402847e-23 2.21599385733486e-06 -1.9739271503396e-25 2.2159199737092e-06)
(2.1945371744421e-06 9.61940628405987e-09 1.92180861369641e-23 2.19469351609481e-06 -8.68083906159975e-23 2.19461985862418e-06)
(2.16947648687433e-06 8.35054916082256e-09 -8.86544841778674e-24 2.16962979419917e-06 -8.77092535560602e-23 2.16955695749552e-06)
(2.14134396715262e-06 7.11863435471034e-09 -1.35856282800206e-23 2.14149338438437e-06 1.46837620335456e-25 2.14142183980951e-06)
(2.11073530466312e-06 5.93290894826345e-09 0 2.11088015247372e-06 -3.11934768047553e-28 2.11081029435238e-06)
(2.07833143462119e-06 4.8004385510042e-09 -7.14782795540378e-30 2.07847126638785e-06 -4.74187438970084e-30 2.07840336645203e-06)
(2.04440602250458e-06 3.72488696013994e-09 6.40960581885925e-30 2.04454048086572e-06 2.00761762387316e-28 2.04447476399073e-06)
(2.00909447520268e-06 2.70947014669125e-09 7.52880292645237e-30 2.00922319899313e-06 1.07706904990772e-28 2.00915989794679e-06)
(1.97273415661913e-06 1.75683535288917e-09 -6.79279183628285e-30 1.97285690529702e-06 1.21857178767724e-32 1.97279617024651e-06)
(1.9354882834841e-06 8.68477352880798e-10 7.03279094259596e-30 1.93560490258115e-06 1.26162568260534e-32 1.9355468405159e-06)
(1.89783129662351e-06 4.48579106720017e-11 -6.81190471405592e-30 1.89794178854376e-06 1.07364056490625e-28 1.89788642586697e-06)
(1.85998285906149e-06 -7.15263676313135e-10 -6.84653930034603e-30 1.86008727108952e-06 2.0343790547377e-28 1.86003462385886e-06)
(1.82197563377782e-06 -1.41314068072794e-09 6.62593969118223e-30 1.82207400437262e-06 3.19216252311243e-30 1.8220240956172e-06)
(1.78390150095482e-06 -2.05031408989435e-09 0 1.78399390303186e-06 3.03048035836188e-28 1.78394673123528e-06)
(1.74585695825612e-06 -2.62853954458053e-09 0 1.74594349721084e-06 5.55183837410614e-30 1.74589904456963e-06)
(1.70799565093265e-06 -3.15014425263843e-09 -5.26483956867906e-43 1.70807649130051e-06 -5.76398315962859e-28 1.7080347008745e-06)
(1.67037254150997e-06 -3.61755502674855e-09 -5.17290527159582e-29 1.67044784734598e-06 -7.42381816232863e-31 1.67040866489475e-06)
(1.63301778287058e-06 -4.03311613654682e-09 5.45825361787584e-29 1.63308772441027e-06 -7.86733554425482e-28 1.63305108541924e-06)
(1.59593931412408e-06 -4.39908880406279e-09 4.54714633666714e-29 1.59600406232981e-06 7.69949846436759e-28 1.59596990267705e-06)
(1.55917944080967e-06 -4.71789852542859e-09 -4.82530754729621e-29 1.55923918779213e-06 1.08453996501116e-27 1.55920742652037e-06)
(1.52273928078089e-06 -4.99189023967376e-09 -1.20450743214291e-23 1.52279420891204e-06 -2.60352381925539e-25 1.52276477049403e-06)
(1.48659491494488e-06 -5.22316874057863e-09 -2.07589461241256e-23 1.48664519477883e-06 7.53178955324366e-23 1.48661800603772e-06)
(1.45070701443412e-06 -5.41363823099298e-09 5.85109137799297e-24 1.45075280713183e-06 1.49652265259702e-22 1.45072779876906e-06)
(1.4150495021068e-06 -5.56517212447479e-09 2.5562452654525e-23 1.41509097001955e-06 7.44731745160816e-23 1.41506806922374e-06)
(1.37958017231886e-06 -5.67952272040397e-09 1.10191300862714e-23 1.37961746456812e-06 2.9651139121695e-25 1.37959660432685e-06)
(1.34422576974819e-06 -5.75811378255517e-09 0 1.34425901039987e-06 0 1.34424013524569e-06)
(1.30890928370222e-06 -5.80212896861027e-09 -8.64653045757249e-29 1.30893858516065e-06 -2.79201144386129e-30 1.30892164474711e-06)
(1.27354413816451e-06 -5.81266975266153e-09 -1.0526825683005e-23 1.27356959645193e-06 -3.60111707698429e-25 1.27355454512912e-06)
(1.23802164686284e-06 -5.79041593678091e-09 -7.05334416718903e-24 1.23804333595299e-06 6.38716914786505e-23 1.23803014422834e-06)
(1.20222980085964e-06 -5.73613935209315e-09 1.30929773231254e-23 1.20224777206909e-06 6.48322233209462e-23 1.20223641036202e-06)
(1.16598649030951e-06 -5.64957860226509e-09 9.64973224979676e-24 1.16600075154836e-06 3.61807061474962e-25 1.16599123138355e-06)
(1.12915858570328e-06 -5.53130989928705e-09 3.0678046806406e-42 1.12916913339815e-06 1.66610395648129e-27 1.12916143829679e-06)
(1.09143956002028e-06 -5.37954811661626e-09 3.00219491922224e-42 1.09144631264826e-06 -1.63047173915902e-27 1.09144052135357e-06)
(1.05296839377369e-06 -5.19666574866063e-09 0 1.05297129589831e-06 1.57354288265632e-27 1.05296737956925e-06)
(1.01484963744253e-06 -4.98610457832788e-09 0 1.01484846741231e-06 0 1.01484663066654e-06)
(9.76088803326057e-07 -4.74632290548238e-09 -6.81432287392596e-29 9.76083374598285e-07 -1.49073945686699e-27 9.7608355942917e-07)
(9.35475993409932e-07 -4.46449920570117e-09 7.43786465210593e-29 9.35465728847312e-07 -1.02301467832975e-27 9.354684893843e-07)
(8.92900494538156e-07 -4.14881688708472e-09 5.36960281912188e-29 8.92885066087271e-07 2.3467549020923e-27 8.9289015454726e-07)
(8.4635063158377e-07 -3.77169654906249e-09 -5.91030862639324e-29 8.46328855154428e-07 -3.07475821748712e-30 8.46337572133745e-07)
(7.96385353668947e-07 -3.36094408335633e-09 0 7.96356813224139e-07 0 7.96368271851131e-07)
(7.3842079123593e-07 -2.85175606391791e-09 5.36350601579696e-29 7.38383597368361e-07 1.1795525927212e-27 7.38400610163823e-07)
(6.74715062624983e-07 -2.33005561958008e-09 -5.3132742709879e-29 6.74668107756001e-07 -3.19378860417406e-28 6.74688357016415e-07)
(5.91311771145321e-07 -1.62803310926512e-09 5.54525441891218e-27 5.9124779296603e-07 -3.33327054854265e-28 5.9127919650083e-07)
(5.72574457707689e-07 -1.109824531447e-09 2.21608608901905e-26 5.72416764852751e-07 -3.40744805476482e-26 5.72495248048874e-07)
(6.88897661108898e-07 -1.39772760401086e-09 -4.26417085463964e-26 6.88434680355627e-07 3.99568242405386e-25 6.88665000813175e-07)
(8.25394420592602e-07 -2.15348266339083e-09 -1.62762783081323e-23 8.2414958825792e-07 -2.45227646662978e-24 8.24777050579655e-07)
(9.59137104462303e-07 -3.05772143202767e-09 -3.8154475081305e-23 9.56572212090216e-07 1.17935727004621e-22 9.57860237314023e-07)
(1.08072664586998e-06 -4.10256006780975e-09 -7.82898216641033e-24 1.07615780016044e-06 1.30821985753955e-22 1.07844816485859e-06)
(1.19560953150684e-06 -5.17720856393139e-09 2.07499951188675e-23 1.18832718221363e-06 4.55570588148097e-25 1.19197114371894e-06)
(1.31628755081855e-06 -6.34549336213221e-09 -1.19140536985943e-24 1.30536837071274e-06 2.32088106482995e-24 1.31082091406767e-06)
(1.41918110636307e-06 -7.51378105105123e-09 6.46306855832465e-25 1.40391021906816e-06 -2.27428496883119e-24 1.41152233915984e-06)
(1.47817951688773e-06 -8.462108547362e-09 1.00023936445083e-24 1.45867028805755e-06 -1.25687438912041e-24 1.46838287261839e-06)
(1.49536163770948e-06 -9.11748958650961e-09 3.76822276930157e-25 1.47236940481204e-06 -7.85446636757553e-25 1.48380626273961e-06)
(1.47382164365351e-06 -9.50927274898745e-09 8.63043991033677e-25 1.44846184913e-06 -1.72688157905068e-24 1.46106851013053e-06)
(1.40289814425593e-06 -9.46807518273375e-09 3.24353533063312e-25 1.37699522610994e-06 -6.18742118956168e-25 1.38987189493223e-06)
(1.32122197458493e-06 -9.10232081290965e-09 4.13552685556055e-26 1.29589565755923e-06 -5.45356387786098e-25 1.30848760154832e-06)
(1.26140305215132e-06 -8.71654111502875e-09 6.97898868968778e-25 1.23653987209859e-06 -1.45353479359416e-24 1.2489011843798e-06)
(1.22577398122994e-06 -8.45391537628676e-09 1.62308921803771e-28 1.2008200932835e-06 -1.99742697053839e-28 1.21322360399307e-06)
(1.22677334152565e-06 -8.44264004254709e-09 -4.48345523645247e-25 1.20074768868229e-06 1.1106441370821e-24 1.21367880346935e-06)
(1.29286262084165e-06 -9.05033355096218e-09 5.16684574165376e-26 1.26355448091541e-06 1.18067290916204e-27 1.27810091685869e-06)
(1.40016858888432e-06 -1.0610010765702e-08 -3.39357809672904e-25 1.36540612376147e-06 2.50742044895289e-25 1.38263637918619e-06)
(1.49813832201245e-06 -1.31157899053627e-08 -3.1378088282273e-25 1.45791925848268e-06 4.31829621549855e-25 1.47784128738779e-06)
(1.6155107849451e-06 -1.72515395425713e-08 3.04581826842172e-25 1.56992162159712e-06 -7.31176497321697e-26 1.59249027400205e-06)
(1.66392907727098e-06 -2.23817825562267e-08 3.4713239051904e-25 1.61756071329407e-06 -3.4527053743185e-27 1.64051320356458e-06)
(1.49122751611404e-06 -2.47510477260794e-08 2.7493684504712e-25 1.45605906660973e-06 5.77262301553644e-26 1.47346941358237e-06)
(1.17558881198553e-06 -1.93776079039592e-08 -2.42649915188697e-26 1.16011727388814e-06 1.18964491024827e-25 1.16780833423291e-06)
(8.87443796875279e-07 -1.07010485413451e-08 -8.58863787096238e-29 8.83518455073233e-07 -3.21285280158604e-30 8.85471974064371e-07)
(6.90135529280766e-07 -4.9744128376652e-09 3.30891818765301e-29 6.89633969512443e-07 -2.10082063376796e-27 6.89889356852895e-07)
(6.66533008666867e-07 -3.26155299546318e-09 6.51260728433616e-29 6.66502836183291e-07 -2.33661789263141e-31 6.6651541451589e-07)
(2.35258729192714e-05 -8.29367371682667e-07 4.37814744806385e-27 2.35372236012548e-05 1.57080831928998e-29 2.35320103951249e-05)
(2.26924472100824e-05 -8.4778119956976e-07 -4.63666135549155e-25 2.27405619955947e-05 -2.32321744331684e-25 2.27157895238987e-05)
(1.55736280708437e-05 -4.79807180884647e-07 1.6045486218246e-26 1.56867908819524e-05 2.291024327615e-25 1.56309782242696e-05)
(7.90039807379954e-06 -9.39755769550543e-08 -5.15442372797826e-29 7.94019751028372e-06 7.63370900559844e-30 7.92063160516299e-06)
(2.88862866396994e-06 1.40687239554804e-08 -1.13747966310615e-30 2.86076894220177e-06 -1.28795132551116e-32 2.87496744767864e-06)
(1.31523814648903e-06 1.08256716890038e-08 -8.42695246536999e-30 1.29212399720125e-06 -1.96961720160095e-29 1.30376899646233e-06)
(1.18715299022631e-06 7.55507761743495e-09 -1.67023582303602e-29 1.1674179819271e-06 -3.32290289461776e-29 1.17735849211629e-06)
(8.98103591440285e-07 4.7025587696827e-09 -5.6596459953805e-25 8.83820802667427e-07 -1.03550387862723e-24 8.90998346883371e-07)
(6.46408065078858e-07 2.89289742908239e-09 -1.08056574703554e-28 6.37002628053198e-07 -1.71457003543802e-28 6.41728927993661e-07)
(5.33238629013995e-07 2.30261452619726e-09 -4.89422109659186e-25 5.25802156277203e-07 -7.92256186458749e-25 5.29533197282163e-07)
(4.98177533270504e-07 2.18355991712268e-09 1.07100070050693e-25 4.91433181686225e-07 2.78994795970047e-25 4.94815911896889e-07)
(5.15300845749139e-07 2.39043633553217e-09 1.70474175110149e-25 5.08189656215326e-07 3.38230218484614e-25 5.11752988036689e-07)
(5.67362247922308e-07 2.80168922085116e-09 4.52294230334829e-25 5.59265030242636e-07 1.20569310466746e-24 5.63320540176451e-07)
(6.60905483343197e-07 3.55040234664065e-09 -4.40283076399133e-26 6.50798246842666e-07 -7.51912910010682e-27 6.55856818412172e-07)
(8.15222704023731e-07 4.86412612232113e-09 2.49666697256235e-25 8.01444198214286e-07 -1.41274645713494e-26 8.08338298931187e-07)
(1.05281200515848e-06 7.18602421768674e-09 -1.10396534242189e-24 1.03276223195818e-06 -2.832350964934e-24 1.04279066399948e-06)
(1.39858006225738e-06 1.13119764723659e-08 -1.89356872169722e-24 1.36851443440547e-06 -4.12539429686811e-24 1.38355130802626e-06)
(1.88705480485162e-06 1.8624043386316e-08 -8.06135851904166e-25 1.84161713734977e-06 5.57282933909103e-26 1.86434352729096e-06)
(2.54931371120063e-06 3.11153796100198e-08 1.64012205102178e-24 2.48231651219401e-06 9.05502091485424e-24 2.51582636914298e-06)
(3.40682946981061e-06 5.16132839572035e-08 -3.2370545013272e-24 3.31260576368731e-06 -5.44579594337062e-24 3.35972634416106e-06)
(4.48902893545797e-06 8.38700653284228e-08 1.16540593476103e-24 4.36344424045432e-06 -8.65329988186406e-26 4.42625177198556e-06)
(5.82135690162845e-06 1.31405924511685e-07 -1.29327782138967e-24 5.66458338464027e-06 3.29588900742345e-24 5.74298099684515e-06)
(7.36779102763798e-06 1.95481548178138e-07 2.37893243863767e-24 7.19004535015946e-06 -2.12840371837436e-25 7.27890287034577e-06)
(9.06573524067743e-06 2.74673676235613e-07 -6.93225907884864e-24 8.88958626959199e-06 -5.50291881412305e-23 8.9777445604456e-06)
(1.08850545851306e-05 3.68261453865269e-07 1.14060618820202e-27 1.07398140495047e-05 5.34544395279268e-26 1.08120338974217e-05)
(1.29752354186525e-05 4.97457744742379e-07 -2.85037787505992e-22 1.28880104883333e-05 1.42803837970475e-23 1.29312633438531e-05)
(1.64148903490076e-05 7.23307696541221e-07 -7.7201186235753e-22 1.6367549277967e-05 -3.93994433458413e-21 1.63910027367699e-05)
(2.10515969032963e-05 1.0275773244109e-06 -1.41105068224228e-22 2.10058333177137e-05 -5.24438472896121e-21 2.10277045718383e-05)
(2.54776884924252e-05 1.32045757645889e-06 5.62549632000369e-22 2.54403665661044e-05 -3.21619414173006e-23 2.54580708817728e-05)
(2.9665447975377e-05 1.59927533556366e-06 -2.22836107747281e-26 2.96346811668735e-05 -7.19618201223397e-26 2.96488564335993e-05)
(3.368086956922e-05 1.86083566369956e-06 -8.77619919511432e-22 3.36571282360906e-05 4.5572754628842e-23 3.366766971629e-05)
(3.75528994132773e-05 2.10412025133556e-06 -2.40918728905514e-21 3.75362022994917e-05 -1.09389063318637e-20 3.75430831105366e-05)
(4.13058264146687e-05 2.32723537840866e-06 -4.72198441823779e-22 4.12965970412204e-05 -1.27218680799701e-20 4.12996449868619e-05)
(4.49637691846563e-05 2.52900505349825e-06 1.21178647535839e-21 4.49624573556586e-05 -5.89210423813132e-23 4.49614678807563e-05)
(4.85549820590574e-05 2.70857881142282e-06 -1.03596353081647e-26 4.85620942174382e-05 1.39775739091686e-25 4.85568390916032e-05)
(5.2006001827711e-05 2.8599621518423e-06 0 5.20219176139343e-05 -1.61454357921961e-25 5.20122427655665e-05)
(5.52286460326224e-05 2.9770795316502e-06 -4.30989275251725e-40 5.52535901749916e-05 1.70821496601596e-25 5.52394178360869e-05)
(5.8203797808934e-05 3.05839607984361e-06 1.95042820695574e-21 5.82378092736725e-05 -7.69464671939029e-23 5.82191551360046e-05)
(6.09134873050343e-05 3.10317846883988e-06 4.24726427577938e-21 6.09564136193712e-05 2.29392402492399e-20 6.09333848068165e-05)
(6.33410800833113e-05 3.11148009963502e-06 1.5925657567505e-23 6.33925643723006e-05 2.51034780393563e-20 6.33653694115532e-05)
(6.54745478245209e-05 3.08430060825853e-06 -2.27723359595991e-21 6.55340343549931e-05 8.19123410324838e-23 6.55029746236467e-05)
(6.73061219087461e-05 3.02349658102974e-06 2.96923016848258e-26 6.73728533723163e-05 3.00952217063902e-26 6.73383282379477e-05)
(6.88373884213888e-05 2.93189238914905e-06 -6.67230778609605e-26 6.89104685595593e-05 -2.38430019863936e-25 6.88729412112076e-05)
(7.00769840510969e-05 2.8129128467013e-06 2.17233868223515e-26 7.01554514592178e-05 -2.94423938436597e-25 7.01154117850093e-05)
(7.10363204065223e-05 2.67024424547569e-06 -1.26491524077837e-26 7.11191805349931e-05 2.99615652941415e-25 7.1077130872821e-05)
(7.17296557847313e-05 2.50772308223866e-06 -3.37505729335796e-21 7.1815912948369e-05 8.4757042535932e-23 7.17723509237237e-05)
(7.21727895645892e-05 2.32918219766216e-06 -5.30912462173445e-21 7.22614682739427e-05 -3.75112941286507e-20 7.22168784387677e-05)
(7.23838547575208e-05 2.13838790739905e-06 1.72433065134739e-21 7.24740281630636e-05 -3.89802729811584e-20 7.24288663163219e-05)
(7.2381483406163e-05 1.93889676729445e-06 3.50834635066943e-21 7.24722905038032e-05 -7.55395248034346e-23 7.24269783114016e-05)
(7.21846263061189e-05 1.73399371977791e-06 3.62114482383462e-26 7.22752884732372e-05 -1.77933574814816e-25 7.22302028058053e-05)
(7.18086031502292e-05 1.52660251691054e-06 -1.41435463598621e-26 7.18983956408046e-05 1.85814177025412e-25 7.18538852072084e-05)
(7.12703902361039e-05 1.31945985370781e-06 -3.83888964635046e-21 7.13586505723126e-05 5.50932545282624e-23 7.13150328274976e-05)
(7.0591490593101e-05 1.11504286118624e-06 -4.86917905745803e-21 7.06776596268772e-05 -4.10877640854148e-20 7.0635198125089e-05)
(6.97928726560647e-05 9.15428484447677e-07 2.91276850124649e-21 6.98764948901327e-05 -4.16223333260879e-20 6.98354034303121e-05)
(6.88963260759308e-05 7.22298947818908e-07 3.79802018945e-21 6.89770572417783e-05 -4.0877647204093e-23 6.89374923037701e-05)
(6.79207469915792e-05 5.36930236908244e-07 -8.45704896925663e-27 6.79983337977326e-05 9.93322590211917e-26 6.79604094843453e-05)
(6.68876632222041e-05 3.60259193597492e-07 8.08351458266504e-27 6.69619566427495e-05 -8.17768830523281e-29 6.6925734748935e-05)
(6.58057387822375e-05 1.92822877374645e-07 6.41038744198884e-28 6.58766279550154e-05 -3.01338183417633e-26 6.58421510330738e-05)
(6.46793916951992e-05 3.51026221312818e-08 -3.8836912963457e-27 6.47467758161475e-05 5.79824967730967e-27 6.47140797951596e-05)
(6.35193132570676e-05 -1.12554329752554e-07 0 6.35831337439126e-05 2.60885419970547e-26 6.35522323606329e-05)
(6.23306824880554e-05 -2.49947303161716e-07 0 6.23909065272907e-05 2.62523092373191e-26 6.23618098219369e-05)
(6.1128484348545e-05 -3.77096967290695e-07 4.01372638333075e-27 6.11851515931598e-05 -4.54495121002454e-26 6.11578341498366e-05)
(5.99197320838689e-05 -4.94205193938197e-07 -1.75085141513243e-28 5.99729128097103e-05 2.15324440046818e-26 5.99473346758039e-05)
(5.87055618133993e-05 -6.01450886143746e-07 -1.6089826550089e-29 5.87553255212442e-05 2.86670999399516e-29 5.87314469423262e-05)
(5.74887322868611e-05 -6.99064694918639e-07 -4.75327284102829e-28 5.75351591032224e-05 2.05124640936669e-27 5.75129348553321e-05)
(5.6272429823672e-05 -7.87320832960578e-07 -1.14678831391042e-26 5.63156124471433e-05 9.81328330340866e-26 5.62949932534124e-05)
(5.50615161450862e-05 -8.66591458463198e-07 8.95019447786673e-28 5.51015683224045e-05 -1.96467130981223e-25 5.50824937562661e-05)
(5.3857803208743e-05 -9.37242986497715e-07 7.1807638531519e-27 5.3894837394664e-05 9.44720389460987e-26 5.38772496713134e-05)
(5.26622659335869e-05 -9.99630193856107e-07 4.72622071344399e-40 5.26963920850268e-05 3.32670784098259e-25 5.26802341466583e-05)
(5.1475188047924e-05 -1.05409084866012e-06 1.41518055723803e-26 5.15065145254632e-05 -3.2445858782175e-25 5.14917314779636e-05)
(5.02979070285183e-05 -1.10099712738368e-06 -1.69558698285174e-26 5.0326547315078e-05 -1.74025404225805e-25 5.03130813380845e-05)
(4.91305000221561e-05 -1.14070003711066e-06 3.3790837558797e-21 4.91565618591358e-05 7.29110818940217e-23 4.91443590231935e-05)
(4.79722288950483e-05 -1.17351421262386e-06 6.11257131831505e-21 4.7995811324388e-05 3.5697916823646e-20 4.79848219438889e-05)
(4.68218577364447e-05 -1.19971991370803e-06 -1.05600721497168e-21 4.68430530298529e-05 6.97317779652879e-20 4.68332313135005e-05)
(4.56785523683432e-05 -1.2195956355757e-06 -6.88915850702683e-21 4.56974503130505e-05 3.40088415777177e-20 4.56887516878277e-05)
(4.45409864370893e-05 -1.23339700809989e-06 -3.10318744137846e-21 4.45576691571811e-05 -8.36672144482621e-23 4.45500531725207e-05)
(4.34068503870318e-05 -1.24132595580183e-06 0 4.34213869476079e-05 0 4.34148197895489e-05)
(4.22736898795103e-05 -1.24354871944275e-06 0 4.22861414584381e-05 0 4.22805935136013e-05)
(4.11387393620438e-05 -1.24020878714526e-06 2.9293997399577e-21 4.11491569808843e-05 9.97774557622532e-23 4.11446030605836e-05)
(3.99985512902473e-05 -1.23138973520956e-06 2.29143128322988e-21 4.00069761319889e-05 3.10195930643344e-20 4.00033975373871e-05)
(3.8849527121774e-05 -1.21717170321156e-06 -3.35067070884045e-21 3.8855984791005e-05 2.99740409632809e-20 3.88533677023088e-05)
(3.76859204910999e-05 -1.19748687636959e-06 -2.71041068477539e-21 3.76904217108252e-05 -1.02410573793379e-22 3.76887648172885e-05)
(3.65033716851865e-05 -1.17236019910902e-06 -7.21979616900918e-27 3.65059082946858e-05 5.78268526836789e-25 3.65052108982435e-05)
(3.52922602952732e-05 -1.14148215462547e-06 7.07244778974446e-27 3.52928059907969e-05 -9.2826980446446e-27 3.52930909575153e-05)
(3.40534346340485e-05 -1.10506749300575e-06 1.34675694902732e-26 3.40519393130771e-05 -5.2651842361836e-25 3.40532172815374e-05)
(3.28228457078343e-05 -1.06407727230355e-06 -3.90160091613971e-26 3.28192325976584e-05 5.210368921212e-25 3.28215670236567e-05)
(3.15716714727768e-05 -1.01793019213125e-06 5.83947761293068e-27 3.15657937115098e-05 -8.44352318367067e-27 3.15692169324288e-05)
(3.02606919338188e-05 -9.64614136310481e-07 3.63503427208859e-26 3.02523607308076e-05 -5.52047006578982e-26 3.02570348243037e-05)
(2.88866374648562e-05 -9.04860005903857e-07 -5.22713971194702e-27 2.88755360032205e-05 -1.69897222373596e-25 2.8881507113298e-05)
(2.73841282099153e-05 -8.34616667499024e-07 -1.65670917773373e-26 2.73699234847671e-05 -8.61880568209497e-28 2.73775387192733e-05)
(2.57720399537806e-05 -7.56967787307425e-07 1.6156404913083e-26 2.5754110520032e-05 8.98481700264893e-28 2.57633796443917e-05)
(2.39010656377973e-05 -6.62587231486049e-07 -1.85301116900676e-26 2.38790940426424e-05 -4.01136171116712e-25 2.38906598791487e-05)
(2.18467819852426e-05 -5.61549131652823e-07 -1.04876680315057e-26 2.18191740696988e-05 6.06728243364731e-25 2.18330242924744e-05)
(1.91588345976695e-05 -4.29419287337707e-07 -1.55977877899408e-24 1.9125087658676e-05 -6.47007613311204e-25 1.91425053826249e-05)
(1.85749900232382e-05 -3.50237229270637e-07 5.23341984202044e-25 1.85181570536625e-05 -1.56942963139104e-23 1.85470215735715e-05)
(2.23122526492801e-05 -4.18996735190846e-07 -6.07301950324179e-24 2.21807126507148e-05 -7.63545709991934e-23 2.22460623882543e-05)
(2.67697507248786e-05 -5.55221424496906e-07 4.56809186101466e-21 2.64740027711413e-05 5.33509332014246e-22 2.6622136011494e-05)
(3.11704774762591e-05 -7.12436297574457e-07 -7.50772375869328e-21 3.06141476311917e-05 5.63511616619318e-20 3.0891973708045e-05)
(3.52267361453547e-05 -8.74815889291169e-07 -2.24057753114598e-20 3.43105453272369e-05 5.77888878466136e-20 3.47687776714018e-05)
(3.91093647373895e-05 -1.03306738766553e-06 -5.59539326248792e-21 3.77321521803065e-05 -8.43293725543219e-22 3.84218442122461e-05)
(4.32002573136549e-05 -1.19554708645715e-06 2.06581663186977e-22 4.12390459450314e-05 -4.28734263530029e-22 4.22224022543202e-05)
(4.67464714850617e-05 -1.3450758781391e-06 -3.53822836556813e-22 4.4121085504179e-05 9.65191201977761e-22 4.54394507707634e-05)
(4.88935411706222e-05 -1.45680691075615e-06 -1.98664918932439e-22 4.56384411473815e-05 2.97382458215693e-22 4.72751117656009e-05)
(4.96657703550565e-05 -1.52852882273009e-06 1.72525941725641e-22 4.58969467068395e-05 -3.68343752203943e-22 4.77934422787362e-05)
(4.91357702042563e-05 -1.56513826439317e-06 -3.6020910946136e-22 4.50193985720354e-05 7.22365752168044e-22 4.7091560416658e-05)
(4.69584568437697e-05 -1.54756482135024e-06 1.48758809530316e-22 4.27508644370166e-05 -2.74169041037675e-22 4.48693563205591e-05)
(4.43604224133078e-05 -1.49242284023579e-06 1.50728517158652e-22 4.02165706004411e-05 -2.28198862947535e-22 4.23022681901882e-05)
(4.2431594416444e-05 -1.43331694679512e-06 -1.98508567531848e-22 3.83467377685316e-05 5.18314934029438e-22 4.0402393734599e-05)
(4.12964301078175e-05 -1.38803050087187e-06 1.39288716155094e-22 3.72021863379653e-05 -2.13259389223983e-22 3.92630971677208e-05)
(4.13883351610374e-05 -1.37990767309934e-06 7.27540835712251e-23 3.71427876264087e-05 -1.8783925416924e-22 3.9281123309909e-05)
(4.36381761669073e-05 -1.45725579801676e-06 -1.7128331361803e-23 3.89350397442599e-05 -4.52448602580995e-25 4.13059566776945e-05)