/*--------------------------------*- C++ -*----------------------------------*\
  =========                 |
  \\      /  F ield         | OpenFOAM: The Open Source CFD Toolbox
   \\    /   O peration     | Website:  https://openfoam.org
    \\  /    A nd           | Version:  7
     \\/     M anipulation  |
\*---------------------------------------------------------------------------*/
FoamFile
{
    version     2.0;
    format      ascii;
    class       volVectorField;
    location    "20000";
    object      U;
}
// * * * * * * * * * * * * * * * * * * * * * * * * * * * * * * * * * * * * * //

dimensions      [0 1 -1 0 0 0 0];

internalField   nonuniform List<vector> 
15600
(
(0.023343431919894 -3.01036596573373e-05 0)
(0.0282988283115631 -0.000486866974117159 6.50998405951208e-24)
(0.0208250285060105 -0.00173210919206158 -1.13912672239876e-19)
(0.00163295000624019 -0.000528908167550544 0)
(-0.0112281622970802 0.0032815141567715 0)
(-0.0122049969077155 0.00498917205533153 0)
(-0.00930188416860602 0.00452194996864727 -3.95703073013683e-23)
(-0.00784958835168013 0.00416435933394998 4.09371976396473e-23)
(-0.00645221382479013 0.00357213672294765 -3.71235728737978e-22)
(-0.00576565362965512 0.00317957046716153 -9.29187015523164e-24)
(-0.00527231499396284 0.00284443205006439 -3.49198729400186e-18)
(-0.00513620688947285 0.00271052337969039 -3.72724781869233e-18)
(-0.00504962104806857 0.00262450285824949 0)
(-0.0051508987637653 0.00264969272268833 0)
(-0.0054335367005807 0.00278113061783518 2.13453223096568e-21)
(-0.00590498797499082 0.00298934755204141 -4.50862628364499e-21)
(-0.00653941403633177 0.00321059400298372 2.3185569101809e-21)
(-0.0073656504424523 0.00342349876284677 0)
(-0.00828473670267939 0.00354487127468632 0)
(-0.00925540276535709 0.00351959432887879 -1.09352931863642e-17)
(-0.0103588330570385 0.00337403925818654 -2.77174859930759e-21)
(-0.0115528154068895 0.00310981708341853 -2.9491789084729e-18)
(-0.0127020208901194 0.00268569132064033 -1.19062959805295e-20)
(-0.0138010628776939 0.00210450258988946 -6.24414052236875e-18)
(-0.0144557458686923 0.00133521656905639 0)
(-0.0160177022995594 0.000521790183915829 -3.99315007500321e-19)
(-0.0198333123088418 7.88867754399173e-05 -3.88540307782203e-16)
(-0.0234838899009192 7.47203017086588e-05 -3.98840221111015e-16)
(-0.0258149531411536 7.42533858025569e-05 0)
(-0.0275967691086204 7.40086338489467e-05 0)
(-0.0288942443874509 7.40401053835634e-05 0)
(-0.0298471352663301 7.36672456119834e-05 -4.69556238418526e-16)
(-0.0305060609531299 7.28685289071559e-05 -4.92161245915799e-16)
(-0.0309134260466789 7.1548030256938e-05 -3.87142307420295e-21)
(-0.0310925622883102 6.96474598847926e-05 0)
(-0.0310627431204956 6.72190988219287e-05 0)
(-0.0308404547606644 6.43091112933664e-05 0)
(-0.0304402999413673 6.09979328411144e-05 -4.76763669785096e-21)
(-0.0298764190545694 5.73378155188501e-05 6.04102448700401e-16)
(-0.0291626511198662 5.34084883464501e-05 6.31428694158315e-16)
(-0.0283131455135005 4.92681918349797e-05 5.35307430967696e-21)
(-0.027342686536872 4.50079498552196e-05 1.92036218253881e-22)
(-0.0262671792059968 4.07060044832092e-05 -5.55479944708921e-21)
(-0.0251020421255105 3.64180978042257e-05 0)
(-0.0238619673610252 3.21977450916292e-05 0)
(-0.0225608622787208 2.80840985297939e-05 0)
(-0.0212118206498054 2.41176780705775e-05 -8.28738970327999e-16)
(-0.0198270656671765 2.03231024458611e-05 -8.54906665178222e-16)
(-0.0184178819503562 1.67278822496819e-05 0)
(-0.0169943826946558 1.33370971446842e-05 0)
(-0.015565633606527 1.01656371519918e-05 0)
(-0.0141406612087843 7.23201898473878e-06 0)
(-0.0127275546835303 4.53105111560831e-06 -9.24998024777142e-16)
(-0.011333355612024 2.06591750914138e-06 -9.45440183996061e-16)
(-0.00996384220631538 -1.82593849623267e-07 0)
(-0.0086237297653792 -2.21643217829636e-06 0)
(-0.00731669000726888 -4.0599860160897e-06 0)
(-0.00604492871334483 -5.72558003632844e-06 5.12508190986795e-22)
(-0.004811367013238 -7.20273743195428e-06 -5.13124376757881e-22)
(-0.00361864928133108 -8.51968735290324e-06 0)
(-0.00246912654230008 -9.6909646266119e-06 0)
(-0.00136440004920737 -1.07516461344654e-05 -5.41477704536702e-22)
(-0.000304722309279686 -1.17032233000391e-05 5.41938393740841e-22)
(0.00070927189245075 -1.25348843509396e-05 0)
(0.00167713480193142 -1.32618952266101e-05 0)
(0.00259845459304323 -1.38949249017856e-05 0)
(0.0034733084488495 -1.44551475850718e-05 0)
(0.00430198646504117 -1.4946124355341e-05 0)
(0.00508466728365725 -1.53822448091615e-05 4.61496432936199e-21)
(0.00582149891347551 -1.57691679703739e-05 -4.61187642022992e-21)
(0.00651277444552951 -1.61222314642886e-05 0)
(0.00715889179521676 -1.64456457771441e-05 0)
(0.00776003931083913 -1.6748385290665e-05 1.178781253456e-15)
(0.0083162603007965 -1.70368370290181e-05 2.36951078424114e-15)
(0.00882756113116006 -1.7321055000711e-05 1.19028716510432e-15)
(0.00929393348374783 -1.76064478151896e-05 0)
(0.00971505442905211 -1.78974174870963e-05 0)
(0.01009022185662 -1.82008400087655e-05 0)
(0.0104187229055391 -1.8525704906089e-05 9.8442987147091e-21)
(0.0106991037919516 -1.88702699759595e-05 1.23179076101984e-15)
(0.0109301451825238 -1.92536810364109e-05 1.2333221631957e-15)
(0.0111087467073514 -1.96533591793107e-05 0)
(0.0112331210344171 -2.01231186028641e-05 0)
(0.0112969860567422 -2.05840710157807e-05 0)
(0.0112987507423675 -2.11864175417876e-05 0)
(0.0112252170142944 -2.16872658741912e-05 0)
(0.0110779872676529 -2.24919724052481e-05 0)
(0.0108249095325999 -2.28961264440655e-05 1.04038065121619e-20)
(0.0104802756363159 -2.40889976629817e-05 -1.04069410742497e-20)
(0.00996203294848557 -2.40075195922004e-05 0)
(0.00933051396176311 -2.60934791250355e-05 0)
(0.00836377564293728 -2.44036556542994e-05 0)
(0.00729404052889685 -2.86401915837895e-05 -1.0824635529762e-20)
(0.00541603662637874 -1.90691335197076e-05 1.0857231983362e-20)
(0.00318261839526503 7.46671013905806e-05 -1.40823981933301e-18)
(0.00359671677720856 0.000317645612361279 -5.66029614394068e-18)
(0.00550803323854002 0.000855811342557891 -4.42197840053779e-20)
(0.0076145171255021 0.00163418360943782 3.04507389330687e-15)
(0.0102530316765006 0.00277310484168366 2.91810134112156e-15)
(0.0131817148329426 0.00427023936200575 -2.13518285643347e-17)
(0.0166523584431373 0.00623360383008639 -2.0572564834572e-17)
(0.0207535619313938 0.00866127008215913 1.96956495656399e-17)
(0.0251134545410834 0.0113048641049141 3.74638311642251e-17)
(0.0293874963112847 0.0139136177014011 -1.77209929369966e-17)
(0.0335085114401062 0.0163359486256312 1.66775974094158e-17)
(0.0369534436152955 0.0182476978875028 -1.55982005513367e-17)
(0.0394805982990004 0.0196846812715273 -1.45221381180181e-17)
(0.0418111248262422 0.0211440164843714 -3.34122874365951e-21)
(0.0445778295988746 0.0229596631444663 2.9046348402873e-21)
(0.04808016979736 0.0253223694302284 -1.22997839220545e-20)
(0.0535901724776963 0.0288678131796775 0)
(0.0623257257902206 0.0335796146099896 -1.59086783834793e-17)
(0.0729248505055116 0.0377860657445146 -6.04896430519769e-18)
(0.0850822928780012 0.0403924839162705 7.85234892479727e-18)
(0.0974368334525514 0.0394679829948612 1.51858026856066e-18)
(0.104926391180942 0.0319002652225448 -9.27120929384902e-19)
(0.0892868715588831 0.016371477510106 5.81666780266173e-23)
(0.0577701219046498 0.00491886947841324 -3.46081685313503e-23)
(0.0312111269855328 0.000620881217914831 5.82456234091028e-20)
(0.0203085833672433 -1.49917820848851e-05 0)
(0.0784288946918502 -0.000221340840931919 0)
(0.0891990395209314 -0.0014251795651478 -1.87465413681871e-20)
(0.069710002949238 -0.0048400253918542 3.84931181373343e-23)
(0.0164231925096724 -0.00202901685979095 -3.90315746594464e-23)
(-0.0257473497239428 0.00876063008394097 0)
(-0.0328621036260197 0.0140293045079183 0)
(-0.0259630798056562 0.0129244172234861 0)
(-0.0220872050732878 0.0119881684753404 0)
(-0.0184135944137053 0.0103814525663401 5.69243169522979e-22)
(-0.0165857678679006 0.00929732017550602 1.43580678896938e-23)
(-0.0153238661105062 0.00837609864529403 5.35723311170713e-18)
(-0.0150040397049913 0.00801177816098706 1.38372174472425e-21)
(-0.0148712118787983 0.0078002137532775 6.04279352919444e-18)
(-0.015267997484322 0.00791649998600403 6.35096790066178e-18)
(-0.0161820076092643 0.00834591097569254 -2.71495927101036e-23)
(-0.0176330109902893 0.00899836757251338 -6.92920386998725e-18)
(-0.0195621944328368 0.00968897398893775 -7.23024101625767e-18)
(-0.0220197481374083 0.0103382910155942 0)
(-0.0247625749413546 0.0107095539104314 7.86151419572596e-18)
(-0.0277046808949499 0.0106517667909694 1.6364515891214e-17)
(-0.0310101303326417 0.01022191911004 -8.31409100124879e-21)
(-0.0345369124359232 0.00941481064457666 8.73983334386485e-18)
(-0.0379510048105065 0.00812338668842463 1.75127980825763e-20)
(-0.041154876611434 0.00634660825416073 -8.55543715904787e-21)
(-0.0437172412370237 0.00410446622376191 0)
(-0.0487935117926938 0.00180378526533104 0)
(-0.0585030474071939 0.000522821218418366 5.57213785882485e-16)
(-0.0672843345975348 0.000389828752573369 5.5928372748551e-16)
(-0.0728825008724203 0.000276575917720738 -9.22805871050859e-21)
(-0.0770364434751203 0.0002053351280025 4.66014696539916e-21)
(-0.0799617030535251 0.000152029215305282 0)
(-0.081994459363211 0.000110233712816982 6.59292839750307e-16)
(-0.0832670801320998 7.51243132398897e-05 6.80901923747211e-16)
(-0.0838858806931057 4.43531694056806e-05 -5.38785285140699e-21)
(-0.083913640973577 1.63895784082259e-05 0)
(-0.0834029767201529 -9.1594062513457e-06 0)
(-0.0823992425750658 -3.26666617236076e-05 0)
(-0.0809430073974692 -5.42534108881563e-05 0)
(-0.0790731990635974 -7.40390020956513e-05 -8.44835699924542e-16)
(-0.0768276688151008 -9.20022920426059e-05 -8.75421723296247e-16)
(-0.0742447269836729 -0.000108145967888009 2.69128712262078e-22)
(-0.0713638038795016 -0.000122338334537473 -1.52584141246459e-20)
(-0.0682259915315727 -0.000134553873099917 7.79089197263592e-21)
(-0.0648706737057061 -0.000144890756537689 0)
(-0.0613351156724666 -0.000153440800546929 0)
(-0.0576544162629834 -0.000160323288364228 4.47333973293584e-21)
(-0.0538614574606611 -0.000165633191167912 1.18158401826648e-15)
(-0.0499868177970621 -0.00016950263096666 1.21608589451133e-15)
(-0.0460585837728504 -0.000172043533377092 9.70546031566679e-21)
(-0.0421019543645116 -0.000173418578921599 -4.93967103961245e-21)
(-0.0381397760106197 -0.000173689450313918 0)
(-0.0341945151769493 -0.000172897634968981 0)
(-0.0302862094964994 -0.000171190164013239 1.35068212828912e-15)
(-0.0264322586868496 -0.000168679940922903 1.38209122269288e-15)
(-0.022646979095863 -0.000165542637115496 -2.81923337362371e-21)
(-0.0189421122484523 -0.000161873377503974 1.46611807332269e-21)
(-0.0153267582373247 -0.000157847505998831 2.28183124399196e-23)
(-0.0118067821343586 -0.000153512656794132 -1.50566143530314e-21)
(-0.00838982272238843 -0.000148818738068124 0)
(-0.00508269795915393 -0.000143881634847792 0)
(-0.0018914463217966 -0.000138755492035757 0)
(0.00117991113971556 -0.000133552911222948 0)
(0.00413049133686304 -0.000128269019784299 -1.64705783314633e-21)
(0.00695847632511378 -0.000122880131418703 -1.71872542994131e-23)
(0.00966248447647636 -0.000117416033992973 -1.68532614718796e-21)
(0.0122412767561468 -0.000111892382581575 -3.15480161490166e-23)
(0.0146948649390461 -0.000106379729673773 3.34796092817779e-21)
(0.0170237553589367 -0.000100859769035559 0)
(0.0192282264454487 -9.53434525808482e-05 0)
(0.0213084352301095 -8.98219715656318e-05 0)
(0.023264924220838 -8.43289538546596e-05 -6.90625365296449e-21)
(0.0250984725004677 -7.88450141996854e-05 6.89128596441124e-21)
(0.0268093907790495 -7.33561877476135e-05 -1.72841985577921e-15)
(0.0283975787058273 -6.78461019635481e-05 -3.48016719515887e-15)
(0.0298628212764632 -6.23182131155154e-05 -1.7521942324754e-15)
(0.0312048312401779 -5.67492664689698e-05 0)
(0.0324225573269473 -5.10949499344913e-05 0)
(0.0335139768464901 -4.53274552936807e-05 0)
(0.0344768829580383 -3.94153195530648e-05 0)
(0.0353072981185206 -3.32890837480497e-05 -1.79182297052102e-15)
(0.0360015407885345 -2.69142501994367e-05 -1.81068435920718e-15)
(0.0365515080943369 -2.01222889916438e-05 1.46392785104316e-20)
(0.0369516037595884 -1.29383715111069e-05 -1.46386296953844e-20)
(0.0371858430991245 -4.97566760656365e-06 1.48206608586836e-20)
(0.0372479716067133 3.52027485218842e-06 -1.48257964485737e-20)
(0.0371054618933789 1.35121494303746e-05 0)
(0.0367572858499248 2.42634816253649e-05 1.51184232692279e-20)
(0.0361260765773989 3.83829318070763e-05 9.82806193453958e-23)
(0.0352345942717107 5.32490613546241e-05 -1.52509923641412e-20)
(0.0338879972974361 7.59901982224254e-05 0)
(0.0322015854366285 9.84302206988785e-05 0)
(0.0296515363439779 0.000139602329495091 -1.58068206316857e-20)
(0.0267108294395525 0.000178551392555139 1.58756883683256e-20)
(0.0217105181673902 0.000282810043141744 0)
(0.0159361588528128 0.000601169289748995 2.07370079500413e-18)
(0.0166344452551802 0.0013377788980544 6.62733826974346e-20)
(0.0213082709343362 0.00297375200757806 1.67681957983996e-17)
(0.0267806233617994 0.00532149132608043 -4.44713942835856e-15)
(0.0334697767169469 0.0086191337557501 -4.31084011484181e-15)
(0.0409131393479457 0.0128785272361095 3.10214703459084e-17)
(0.0496244679375408 0.018347807820801 0)
(0.0598071574098617 0.0250148176200637 -7.44365899582332e-21)
(0.0707111251133127 0.032267235588187 -2.68388285656479e-17)
(0.0815815207660566 0.0394630410514303 2.53124311548585e-17)
(0.0922181280209142 0.0461918308596774 2.89601002591209e-22)
(0.101500538431793 0.0516590237956457 2.23313761777272e-17)
(0.108768162966045 0.0559257944351084 2.08337921381157e-17)
(0.115358692540799 0.0601794469603953 1.92695748147939e-17)
(0.122765614747908 0.0653104126203246 0)
(0.131878246495024 0.0718696881757383 -1.5826365274045e-17)
(0.145547568334216 0.0814235179278417 0)
(0.16684394837514 0.0939123487463158 1.14017876670724e-17)
(0.193564008996916 0.105173833551409 0)
(0.225015056654771 0.112171427672355 -5.5775786583478e-18)
(0.258150600681106 0.109812872761449 -4.26590856693351e-20)
(0.282133513193334 0.0901981711230813 1.31684302914311e-18)
(0.254790240360702 0.0492910063955472 -2.04993341975154e-18)
(0.182414488003646 0.0167992391083183 1.22584357337358e-22)
(0.110836332776298 0.00302549584331027 0)
(0.0760591966414821 0.000202694465140181 0)
(0.143927817859732 -0.000408099680033599 0)
(0.156056567517628 -0.00234782512755891 3.73460710355779e-20)
(0.126840138310237 -0.00785587539036743 -1.69311618444658e-19)
(0.0434150913317476 -0.00484769798237424 0)
(-0.0320633637965071 0.0121026585778191 0)
(-0.0500996335812485 0.0214780805804326 5.68994994855377e-23)
(-0.0410538856107514 0.0202553147650374 6.62210996650549e-23)
(-0.0352306828088652 0.0189592967446959 4.35135069483179e-18)
(-0.0297187067244657 0.0166296691439856 5.85381739790311e-22)
(-0.026941761381143 0.0150174660614112 5.13151565783816e-18)
(-0.025086999055237 0.0136609255927806 -5.5161508423023e-18)
(-0.0246612655731443 0.0131397945011776 -5.87561239292282e-18)
(-0.0245934641059672 0.0128888759503268 -6.20407969033077e-18)
(-0.0253729707148109 0.0131696272588693 -5.18217412830775e-22)
(-0.0269852024391203 0.0139582038967007 3.32958484122556e-21)
(-0.0294589021397335 0.0150996662884003 7.0592767485957e-18)
(-0.0327146321790934 0.0162961607294008 7.33524852113666e-18)
(-0.0367953628318235 0.0173904135291664 -3.73083022881603e-21)
(-0.0413573797934654 0.0180152231904797 -7.88546625480573e-18)
(-0.0462947643790261 0.0179412834369825 -8.15540196401047e-18)
(-0.0517865133946983 0.0172258743897213 0)
(-0.057579202846188 0.0158512980617912 -4.28844496201153e-18)
(-0.0631962050678101 0.0136688955767092 0)
(-0.068480815525439 0.0106964650136438 4.43016340685946e-18)
(-0.0734105535966879 0.00707564443672248 -8.63952995816336e-21)
(-0.0819247659329443 0.00338125961729338 0)
(-0.0956035327844689 0.00130845636486528 -5.20915186317057e-22)
(-0.107340455400068 0.000971249124717606 0)
(-0.114723428153774 0.000673547422555359 -8.61317293579465e-21)
(-0.119994329317137 0.000486164929042842 4.10549218575672e-21)
(-0.123514100395733 0.000344113452353555 4.36701565587385e-21)
(-0.125741112851739 0.000231967397086521 0)
(-0.126868861403184 0.000136930889468888 0)
(-0.127048791559581 5.31662796070815e-05 5.03029723175472e-21)
(-0.126375204944268 -2.28852853606284e-05 -5.00005090624884e-21)
(-0.124930891655899 -9.21607940716758e-05 5.40810781790091e-21)
(-0.122787719156653 -0.000155648663949523 -5.38504179805591e-21)
(-0.120008655003862 -0.000213730696106933 -5.82626664060752e-21)
(-0.116653535531163 -0.000266680020222841 5.81629586479158e-21)
(-0.112779990410862 -0.000314467250109108 0)
(-0.10844544915841 -0.000357070722422804 0)
(-0.103707933833666 -0.000394230778227352 0)
(-0.0986261646680967 -0.000425954211513852 0)
(-0.0932556590287813 -0.000452522617620607 7.27159593301861e-21)
(-0.0876485185528718 -0.000474205989550469 -7.30493897960058e-21)
(-0.0818534834478498 -0.000491325937023237 0)
(-0.0759159679791878 -0.000504161993875455 0)
(-0.0698779873561013 -0.000513070007231812 0)
(-0.06377798087032 -0.000518374727526915 0)
(-0.0576504464783202 -0.000520478455215341 4.43590108755308e-21)
(-0.051526934129913 -0.000519554936237044 -4.47301571850827e-21)
(-0.0454382043507998 -0.00051576141721804 0)
(-0.039411530639066 -0.000509491100531747 -2.42228039097299e-21)
(-0.0334706032941251 -0.000501077014877301 4.93522978375488e-21)
(-0.0276349498618656 -0.000490967599558505 4.38078301296606e-23)
(-0.021920726104731 -0.000479450229419967 -2.58276809654021e-21)
(-0.0163404549806974 -0.00046696439221508 0)
(-0.0109027281786244 -0.000453636380889394 1.37905373396436e-21)
(-0.00561867140061549 -0.000439445620591138 -6.86742966378249e-22)
(-0.000498104289169212 -0.000424576123223828 -7.10905635735771e-22)
(0.00445029011256981 -0.000409000314153041 -7.29098454672448e-22)
(0.00922079259504075 -0.000393098124567267 7.2630676688461e-22)
(0.0138117058007223 -0.00037701156283001 0)
(0.0182200779717776 -0.000360708909112666 0)
(0.0224434941816765 -0.00034425895753931 0)
(0.0264798150413115 -0.000327710412770633 -3.02364766796859e-21)
(0.0303286661506067 -0.000311230970446127 6.06011794334727e-21)
(0.0339903272924302 -0.000294787695797047 -3.03720139291933e-21)
(0.0374648113254566 -0.000278392459367546 -6.16607545006212e-21)
(0.0407519147739968 -0.000262029071320161 6.15595845016228e-21)
(0.0438519928936583 -0.000245770941156767 6.24372012843887e-21)
(0.0467657132492524 -0.000229574779206962 -6.23644064274514e-21)
(0.0494931525719713 -0.000213394285021261 0)
(0.0520337596161916 -0.000197182291674436 6.36102861683199e-21)
(0.0543867884163689 -0.000180936816805248 -1.27591937025519e-20)
(0.0565513508788463 -0.000164594783277824 6.39969822941087e-21)
(0.0585255122923284 -0.000148036193313108 0)
(0.0603059498700046 -0.000131176113536971 0)
(0.0618888734036859 -0.000113913687526562 1.31420434209349e-20)
(0.063268105985037 -9.607706609903e-05 -2.63878163615785e-20)
(0.0644374979298872 -7.75239975154605e-05 1.32499732257815e-20)
(0.0653850604392944 -5.78715691917404e-05 1.34323882192818e-20)
(0.0661012796275537 -3.70304482157716e-05 -2.69974748816417e-20)
(0.066563168659444 -1.41876891631091e-05 -8.27931570647255e-23)
(0.0667585722764294 1.0470352557692e-05 2.74652976013775e-20)
(0.0666412855036606 3.87842551884313e-05 -2.76948690587167e-20)
(0.0662035561066023 6.99838661420248e-05 -8.82127954815691e-23)
(0.0653403625340568 0.000109077004202256 1.40586433869072e-20)
(0.0640664788204643 0.00015272536625682 0)
(0.0621206152745561 0.000214080668022891 0)
(0.0596179048366135 0.000282049381206619 0)
(0.0558602225668969 0.000390483894262168 2.97324235674879e-20)
(0.0513701983060234 0.000515243745560857 -6.02327295649794e-20)
(0.0439176057882605 0.000760734821413404 6.1498020017476e-20)
(0.0355669540247835 0.00140505991205714 -6.30706768371519e-20)
(0.0360826925304981 0.00283705001666662 6.30738204780444e-20)
(0.0424178686522705 0.00570527392213335 -1.58334627569032e-17)
(0.0502871578799548 0.00968350313461743 0)
(0.0597758684189002 0.0150004409168763 0)
(0.0703902133830461 0.0216802311847254 0)
(0.082744606097162 0.0300208613048028 0)
(0.0971224611895995 0.0399753333736713 -2.59675015595539e-17)
(0.11267805247864 0.050747008113241 2.46286401642062e-17)
(0.128467531378059 0.0614862863999814 0)
(0.144167020479401 0.0716093651918593 -2.202375166618e-17)
(0.158369736208836 0.0801002922285003 0)
(0.170076996171399 0.0870198899941232 9.36963344371811e-21)
(0.180695814307754 0.0938428953078298 -3.64411741395981e-17)
(0.192189736747159 0.101783740231185 1.67201770238061e-17)
(0.205962639233292 0.11167921886323 1.50280259025335e-17)
(0.2257688686078 0.125534815775459 -1.49472719681052e-21)
(0.255994713095681 0.143153103181403 2.00082050911824e-21)
(0.294609865862639 0.159075064726729 -5.60974810837196e-22)
(0.340675957592204 0.168847617925378 0)
(0.390163000082228 0.165277339079814 -2.00509125294431e-18)
(0.429885062886275 0.13771778190454 -1.14781079583645e-23)
(0.405329187601578 0.0800236966357769 1.80658602517142e-20)
(0.313174660766116 0.0306753262232748 -1.15087374009126e-22)
(0.20761446787873 0.00694291475317588 -2.62240375922136e-23)
(0.148460397230375 0.00090255934130006 2.7575286396356e-23)
(0.219673734508808 -0.000422140864887441 4.35950920494985e-24)
(0.228575700947506 -0.00317257313846403 -1.7819335569823e-20)
(0.191518252246986 -0.010711399508662 3.23045399473014e-19)
(0.08271049748305 -0.00869011275865287 8.89337501081253e-19)
(-0.0288292957104726 0.0133263357575123 -2.87131543965945e-18)
(-0.0633277441926808 0.0273855033687433 0)
(-0.0542877110116601 0.0265116368656777 0)
(-0.0470982579252846 0.0250812196841159 -3.93897536076425e-21)
(-0.0402301386163677 0.0223082588025344 0)
(-0.0367313814490277 0.0203354828311825 -2.30367714149338e-21)
(-0.0344770933519614 0.0186886253570682 5.66230869732333e-18)
(-0.034037779120015 0.0180872354992832 6.01999351891815e-18)
(-0.0341506678088403 0.0178795473572933 -6.34344355805385e-18)
(-0.0353984097280978 0.0183930665740978 -6.63697671243734e-18)
(-0.0377660469743772 0.0195939909845745 0)
(-0.0412863584645552 0.021259548340979 -7.12834234605411e-18)
(-0.0458651767477683 0.0229823721991723 0)
(-0.0515134845866448 0.0245138113893555 0)
(-0.0578219022092952 0.0253771906815163 -7.7575344744263e-18)
(-0.0646671886158364 0.0252740082800878 -6.15041339019388e-23)
(-0.0721759797647971 0.0242398308243859 8.0170236004422e-18)
(-0.0799775765090893 0.0222512536352392 0)
(-0.0875149826422494 0.0191516941787595 7.92415788208626e-21)
(-0.094666236629869 0.0150185938559928 7.85821135110887e-23)
(-0.101837940605691 0.0101275749675139 -2.00500718460951e-18)
(-0.112769054429277 0.00513855379558301 -4.12213271099746e-23)
(-0.127936277054138 0.00231188141983759 3.4568168190761e-22)
(-0.140097182431564 0.00169360515785283 1.41122835581829e-20)
(-0.147424051833833 0.00114908140299433 -1.40541143015909e-20)
(-0.152303082891025 0.000804496033375107 6.93501357624633e-21)
(-0.155187428576688 0.000540818925293571 0)
(-0.156588850781986 0.000331301750272819 -3.70424397655067e-21)
(-0.156734503761266 0.000152665323256518 7.41574922515962e-21)
(-0.155800392283113 -4.92931983105704e-06 1.59504073020428e-22)
(-0.153908161371417 -0.000147320588498077 -3.80021610000244e-21)
(-0.151163515055107 -0.000276456643045691 0)
(-0.147653070322153 -0.000394274808812826 0)
(-0.143453344602225 -0.000501566984286487 0)
(-0.13863574128208 -0.000598861655888514 0)
(-0.133268003331624 -0.000686204669390097 4.55843815105e-21)
(-0.127416276855016 -0.000763612306365587 -4.531245533268e-21)
(-0.121146086016717 -0.000830783165086886 0)
(-0.11452203981557 -0.00088786856177542 0)
(-0.107604315671941 -0.000935441901477097 5.16352093593775e-21)
(-0.100448942040885 -0.000974042783637809 -5.16848050387462e-21)
(-0.0931079834787791 -0.00100427423905076 2.74946924007143e-21)
(-0.0856297416505907 -0.00102667664330889 -2.75991926490776e-21)
(-0.0780587001578125 -0.00104189925037103 0)
(-0.0704354820557516 -0.00105054897334338 3.01790233638243e-21)
(-0.0627965421694832 -0.00105331229838452 -3.04001002533142e-21)
(-0.0551754687732993 -0.00105050175822229 -3.20676722839227e-21)
(-0.0476049328597701 -0.0010424385547858 -1.10118384767904e-15)
(-0.0401137645815107 -0.00102982313010586 -1.1371866427688e-15)
(-0.032727099541771 -0.00101327492675595 0)
(-0.0254657281435736 -0.00099356897224979 -1.80263110963407e-21)
(-0.0183470806943552 -0.000971243459615322 1.82424924974251e-21)
(-0.0113848109286478 -0.000947061647207572 0)
(-0.00458874480657964 -0.000921268221543258 0)
(0.00202835049875007 -0.000893608450333878 5.00289625905803e-22)
(0.0084550737726977 -0.000864288889232433 -5.0097911919143e-22)
(0.0146814553695893 -0.000833551489638586 0)
(0.0207007224298236 -0.000802168671777629 0)
(0.0265102193544247 -0.000770422902650304 0)
(0.0321060124947182 -0.000738229688826415 0)
(0.0374845928278398 -0.000705703363320856 0)
(0.0426428039891219 -0.000672959231007554 0)
(0.0475793868221464 -0.000640288562217157 0)
(0.0522938282479988 -0.000607657890438599 1.50162022936107e-15)
(0.0567853373122974 -0.000575076660297284 1.51572935560909e-15)
(0.0610528448835707 -0.000542528317856994 0)
(0.0650958710879578 -0.000510137087399318 -4.6220097628015e-21)
(0.068914305230187 -0.00047784134722063 4.63902632211897e-21)
(0.0725074362031071 -0.00044555310118789 0)
(0.0758738085654633 -0.000413185575693857 0)
(0.0790116880644996 -0.000380727268459183 0)
(0.0819191563828986 -0.000348066887309106 -9.76930033036048e-21)
(0.0845931593452811 -0.000314986478508947 -6.32728235868231e-23)
(0.0870290468492443 -0.000281318778550218 -6.28388203102112e-23)
(0.089221433678856 -0.000246861122419491 -6.26225743547891e-23)
(0.091162331164508 -0.000211310261578145 1.01669716778633e-20)
(0.0928433867370363 -0.000174353559458315 1.03546447210824e-20)
(0.0942500443659236 -0.0001353472196119 -2.09073146978581e-20)
(0.0953694244691305 -9.39642138720089e-05 1.05585642116664e-20)
(0.0961746103527603 -4.89121920645715e-05 1.07684795492809e-20)
(0.0966480351708874 2.31157827914724e-08 -2.17806232209788e-20)
(0.0967339542837553 5.5577598870487e-05 1.100708280823e-20)
(0.0964161119054791 0.000117397643139283 0)
(0.0955794775336771 0.000192801081065412 -1.14059799524191e-20)
(0.0942224813222248 0.000279357253526904 1.15167758760729e-20)
(0.0920605260722551 0.000395735924489561 0)
(0.089174412760292 0.000532293945650151 -2.40817915474585e-20)
(0.0848064172163538 0.000735473084839672 2.44509987907079e-20)
(0.0793999200165406 0.00099304515729982 2.52866237208245e-20)
(0.0705301249905412 0.00141258579067513 -2.43122968779533e-20)
(0.0607286295897002 0.00246110946857282 0)
(0.0605735556006403 0.00472410531882158 -2.6549145983964e-20)
(0.067230417266607 0.00881584770882019 5.05992303048396e-20)
(0.0761403028224586 0.0143020827601028 -1.24314087238338e-17)
(0.0869572019969006 0.0213363767009334 0)
(0.0992133284827201 0.0299415345986151 0)
(0.113498075092091 0.0404088811965682 0)
(0.13015227660098 0.052652258639408 0)
(0.148438781874814 0.0658354461670451 -1.9743733115631e-17)
(0.167410914383116 0.0790599917988994 -9.30434963667278e-21)
(0.186674796943793 0.0916664297922227 1.81397539263704e-17)
(0.204797377918845 0.10261127415416 -8.62539960247595e-21)
(0.220534124354442 0.111952854541569 -7.98181795006317e-21)
(0.234998202446213 0.121177682575227 3.15191741974537e-17)
(0.250217155071413 0.131587377132247 -2.28825686760346e-20)
(0.267899234116255 0.144171254684687 -1.33143447171532e-17)
(0.292111497698932 0.160999453263382 0)
(0.328058146480134 0.181645122302221 0)
(0.374466664692703 0.200122182792408 7.21811753293353e-18)
(0.430372522263602 0.211104025003312 1.7686105128808e-22)
(0.491390255514749 0.206184399150724 0)
(0.544672401408763 0.173698293801453 1.12810993616117e-18)
(0.532685580493443 0.106307738101499 2.99785143691317e-20)
(0.439953583348441 0.0450904214299016 0)
(0.315685426089805 0.0121432630902194 -2.41457502688743e-23)
(0.235602744397941 0.00224828503744239 2.59358152586546e-23)
(0.301310777282676 -8.19631853506338e-05 0)
(0.303347196681995 -0.00377770468969851 -1.61714352647177e-20)
(0.260784892873594 -0.0132542180609301 -1.46329835323176e-19)
(0.133013965078968 -0.0132192323485606 5.67570588468573e-22)
(-0.0147479917155878 0.0123539565270884 6.16653720935748e-21)
(-0.0717845837043317 0.0316911621234991 -1.02461267966978e-22)
(-0.0653324259206359 0.0316389864106588 4.06864332014582e-18)
(-0.0575044128717938 0.0303159267005574 -4.51722135339768e-18)
(-0.0498037055453114 0.0273793844565304 4.92820583376252e-18)
(-0.0458451909030534 0.0252208031402324 -5.36981450163222e-18)
(-0.0433927176992172 0.0234255871568159 0)
(-0.043040298284845 0.0228218891872645 -6.11474594007647e-18)
(-0.043440177290574 0.0227334250747238 6.42067289278721e-18)
(-0.0452214711698975 0.0235351588993353 0)
(-0.0483653861892638 0.0251809159974949 6.88833075931527e-18)
(-0.052898299739225 0.0273754697500517 -6.88332014245734e-21)
(-0.0587031947599407 0.0296001787191816 1.05213743244198e-20)
(-0.0657306717865857 0.0315057657376423 -7.26095954147812e-18)
(-0.0735163323600391 0.0325237613364035 1.64351843757385e-21)
(-0.0818924270356255 0.0322941510481494 -7.11842141531371e-21)
(-0.0908730102097663 0.0308296990825973 3.72108344332625e-21)
(-0.0999821779631871 0.0281316926410586 3.50578519319948e-18)
(-0.108667152184368 0.0240905301110306 0)
(-0.116913066475719 0.0188835013130139 -6.51981290264179e-21)
(-0.125324737831634 0.0128911990888656 7.6620044075053e-21)
(-0.13687620905305 0.00680686407436357 -3.72911221375643e-19)
(-0.150959142172394 0.00331802323765884 -5.17195267317799e-21)
(-0.161290075241329 0.00236883859264888 0)
(-0.167107389236895 0.00155885337675693 0)
(-0.170593247000005 0.00104473477132331 0)
(-0.172176152391248 0.000650130564126402 0)
(-0.172335800600974 0.00033643736249489 5.07991864096947e-21)
(-0.171286714669229 6.9194598394405e-05 -4.90719266973736e-21)
(-0.169199920648473 -0.000165393319394882 -2.57844224623982e-21)
(-0.166198681243911 -0.000375984715672684 2.50099663952775e-21)