/*--------------------------------*- C++ -*----------------------------------*\
  =========                 |
  \\      /  F ield         | OpenFOAM: The Open Source CFD Toolbox
   \\    /   O peration     | Website:  https://openfoam.org
    \\  /    A nd           | Version:  7
     \\/     M anipulation  |
\*---------------------------------------------------------------------------*/
FoamFile
{
    version     2.0;
    format      ascii;
    class       volScalarField;
    location    "20000";
    object      walldist;
}
// * * * * * * * * * * * * * * * * * * * * * * * * * * * * * * * * * * * * * //

dimensions      [0 1 0 0 0 0 0];

internalField   nonuniform List<scalar> 
15600
(
0.00195552661620946
0.00195699358454882
0.00196080862076003
0.00196179517438637
0.00195297183518164
0.0019606889681133
0.00199991746333731
0.00206854660863479
0.00216247084972554
0.00227875468435182
0.002404307912884
0.00252566691074533
0.0026423644394331
0.00275471370830171
0.00286317446512626
0.00297310861706661
0.0030911244574292
0.0032162278128774
0.00334616866665202
0.00347731282670215
0.00360073651796644
0.0037078105477191
0.00379529322198393
0.0038602965350779
0.00390022195066004
0.00391302060657273
0.00391105593751669
0.00391105323242201
0.00391105323242206
0.00391105323242195
0.00391105323242198
0.00391105323242193
0.00391105323242179
0.00391105323242204
0.00391105323242195
0.00391105323242198
0.0039110532324219
0.0039110532324219
0.00391105323242201
0.00391105323242192
0.0039110532324219
0.00391105323242203
0.00391105323242206
0.00391105323242201
0.00391105323242201
0.00391105323242198
0.00391105323242192
0.00391105323242184
0.00391105323242196
0.00391105323242192
0.00391105323242193
0.003911053232422
0.00391105323242196
0.00391105323242195
0.00391105323242201
0.00391105323242201
0.0039110532324219
0.0039110532324219
0.0039110532324219
0.0039110532324219
0.00391105323242182
0.00391105323242192
0.0039110532324219
0.0039110532324219
0.00391105323242206
0.00391105323242206
0.00391105323242204
0.00391105323242198
0.00391105323242212
0.00391105323242185
0.0039110532324219
0.00391105323242195
0.0039110532324219
0.003911053232422
0.00391105323242185
0.00391105323242201
0.00391105323242196
0.00391105323242205
0.00391105323242198
0.00391105323242199
0.00391105323242201
0.00391105323242201
0.00391105323242184
0.00391105323242191
0.00391105323242195
0.00391105323242187
0.00391105323242225
0.00391105323242168
0.00391105323242173
0.00391105323242229
0.00391105323242227
0.00391105323242177
0.00391105323242172
0.0039110554586262
0.00391302536395926
0.00390012406475451
0.00386010328174588
0.00379501315448098
0.00370745378339485
0.00360031355532975
0.00347684020090701
0.00334568840408821
0.00321575892793873
0.00309067704981115
0.00297268927118486
0.00286277844587157
0.00275430713575406
0.00264194276429172
0.00252522888922728
0.00240385245476314
0.00227829530802932
0.00216208007043463
0.00206824193215689
0.00199971007268422
0.00196059607664024
0.00195298803903388
0.00196180667283648
0.00196079072447207
0.00195698165207504
0.0019555266162099
0.00593830105948549
0.00594374999739168
0.00597158022003132
0.0060371517826569
0.00614783757741364
0.0063309631054162
0.00658769176684758
0.00689975903176838
0.00724874940196057
0.00761866471768061
0.00798955155654704
0.00834945473720618
0.00869979028141222
0.00904261459804607
0.00937998837222975
0.00971506652790791
0.0100480211734904
0.0103730397237765
0.0106832949081746
0.0109709591469675
0.0112269929141432
0.0114450949734913
0.0116225736277065
0.0117570870669237
0.0118465905529437
0.0118894427693573
0.0118979780642356
0.0118967511219459
0.0118955300745171
0.0118943470652846
0.0118932021055998
0.011892095206453
0.0118910263784723
0.0118899956319254
0.0118890029767168
0.0118880484223882
0.0118871319781186
0.0118862536527228
0.0118854134546516
0.0118846113919913
0.0118838474724637
0.0118831217034251
0.0118824340918658
0.0118817846444104
0.0118811733673175
0.0118806002664789
0.0118800653474193
0.0118795686152963
0.011879110074901
0.0118786897306559
0.0118783075866159
0.0118779636464682
0.0118776579135313
0.0118773903907558
0.0118771610807236
0.0118769699856483
0.0118768171073743
0.0118767024473772
0.0118766260067644
0.0118765877862732
0.0118765877862732
0.0118766260067643
0.0118767024473771
0.0118768171073743
0.0118769699856484
0.0118771610807237
0.0118773903907558
0.0118776579135315
0.0118779636464681
0.0118783075866158
0.0118786897306558
0.011879110074901
0.0118795686152963
0.011880065347419
0.0118806002664786
0.0118811733673172
0.0118817846444105
0.0118824340918658
0.0118831217034253
0.0118838474724639
0.0118846113919916
0.0118854134546516
0.0118862536527228
0.0118871319781188
0.0118880484223881
0.0118890029767173
0.0118899956319259
0.0118910263784724
0.0118920952064536
0.0118932021056006
0.0118943470652827
0.0118955300745151
0.0118967511219463
0.0118979837392589
0.0118893747548669
0.0118463471521582
0.0117566788730876
0.0116220073408805
0.0114443787769802
0.0112261347958734
0.0109699730329722
0.0106822116706308
0.0103718899612916
0.0100468320201501
0.00971386004038872
0.0093787793647687
0.00904139049373487
0.0086985429394024
0.00834817681250401
0.00798823562544668
0.00761731661419311
0.00724744478667275
0.00689855782782685
0.00658665437466707
0.00633016216864985
0.00614732514562657
0.00603684204251932
0.00597141497810731
0.00594369984543436
0.0059383010594851
0.0100669728230361
0.0100764573243902
0.0101286855432984
0.0102597399312403
0.0104899241887951
0.0108447995870119
0.0113102577423143
0.0118535627785599
0.0124456010250965
0.0130616568831699
0.0136755286553309
0.0142734572320196
0.0148576883755947
0.0154313157006426
0.0159974781420521
0.0165594886658259
0.0171153777873219
0.0176555616388848
0.0181689441101938
0.0186428679772895
0.0190637594845824
0.0194224373090333
0.0197144950217045
0.0199360898459146
0.0200839066433997
0.0201553227348141
0.0201701805149882
0.0201681034739245
0.0201660334792981
0.0201640279693598
0.0201620869633525
0.0201602104799077
0.0201583985370432
0.0201566511521646
0.0201549683420631
0.0201533501229147
0.0201517965102798
0.0201503075191016
0.020148883163707
0.0201475234578045
0.0201462284144838
0.0201449980462159
0.0201438323648516
0.0201427313816213
0.0201416951071346
0.0201407235513799
0.0201398167237231
0.0201389746329081
0.0201381972870555
0.020137484693664
0.0201368368596073
0.020136253791136
0.0201357354938765
0.02013528197283
0.0201348932323739
0.0201345692762607
0.0201343101076174
0.0201341157289455
0.0201339861421217
0.020133921348397
0.020133921348397
0.0201339861421217
0.0201341157289455
0.0201343101076174
0.0201345692762608
0.0201348932323741
0.02013528197283
0.0201357354938765
0.020136253791136
0.0201368368596072
0.0201374846936639
0.0201381972870554
0.0201389746329079
0.020139816723723
0.0201407235513798
0.0201416951071346
0.0201427313816213
0.0201438323648516
0.020144998046216
0.020146228414484
0.0201475234578046
0.0201488831637071
0.0201503075191017
0.0201517965102796
0.0201533501229144
0.0201549683420641
0.0201566511521651
0.0201583985370424
0.0201602104799067
0.0201620869633529
0.0201640279693575
0.020166033479297
0.0201681034739237
0.0201701906576742
0.0201552063763239
0.0200835035781002
0.0199354169033466
0.0197135629947562
0.0194212595466807
0.0190623493864422
0.0186412470128774
0.018167156875037
0.017653656334853
0.0171133983624351
0.0165574715869563
0.015995449617566
0.0154292665730621
0.0148556071285424
0.0142713327102331
0.0136733499133443
0.0130594290371549
0.0124434144003716
0.0118515058319347
0.0113084247225233
0.0108433079355409
0.0104888851520443
0.0102591037829693
0.0101283692887601
0.0100763681512334
0.0100669728230357
0.014346889806622
0.0143605650335517
0.0144382693265024
0.014637930925075
0.0149934146755988
0.015527540873126
0.0162098984829749
0.0169928859938345
0.0178365155315734
0.0187071903846301
0.0195724223853291
0.020416689768355
0.0212430719847652
0.0220557144963455
0.0228588565911725
0.0236559409437079
0.0244427494339965
0.0252057936782398
0.0259295573386211
0.02659638107384
0.0271880057489598
0.0276922759153319
0.0281030053818989
0.0284147937492217
0.0286230082355128
0.0287240088299253
0.0287454177472437
0.0287424594498598
0.028739509408638
0.0287366512674077
0.0287338850535925
0.0287312107937447
0.0287286285135429
0.0287261382377924
0.0287237399904231
0.0287214337944878
0.0287192196721624
0.0287170976447435
0.0287150677326485
0.0287131299554144
0.0287112843316958
0.0287095308792657
0.0287078696150133
0.028706300554943
0.0287048237141756
0.0287034391069455
0.0287021467466009
0.028700946645603
0.0286998388155253
0.0286988232670535
0.0286979000099843
0.0286970690532255
0.0286963304047954
0.0286956840718221
0.0286951300605435
0.0286946683763072
0.02869429902357
0.0286940220058969
0.0286938373259624
0.0286937449855494
0.0286937449855494
0.0286938373259625
0.0286940220058969
0.02869429902357
0.0286946683763075
0.0286951300605436
0.0286956840718221
0.0286963304047954
0.0286970690532255
0.0286979000099841
0.0286988232670533
0.0286998388155252
0.028700946645603
0.028702146746601
0.0287034391069455
0.0287048237141755
0.028706300554943
0.028707869615013
0.0287095308792659
0.0287112843316962
0.0287131299554145
0.0287150677326485
0.0287170976447434
0.0287192196721622
0.0287214337944877
0.0287237399904232
0.0287261382377941
0.0287286285135422
0.0287312107937454
0.0287338850535937
0.0287366512674077
0.0287395094086383
0.0287424594498619
0.0287454325184298
0.0287238424027203
0.0286224397960235
0.0284138465918469
0.0281016945431597
0.0276906201025304
0.0271860239857737
0.0265941026343034
0.0259270409874953
0.0252031058312258
0.024439951445988
0.0236530842188605
0.022855979147745
0.0220528108918933
0.0212401272717992
0.0204136889124683
0.0195693508885371
0.0187040526266699
0.0178334162919034
0.0169899427739261
0.0162072399453523
0.0155253300580071
0.0149918243915733
0.0146369523858717
0.0144377951574967
0.0143604352666523
0.0143468898066223
0.0187835925567704
0.0188016145182101
0.0189057907205252
0.0191768180861817
0.0196626674797196
0.0203830090939527
0.0212903811649106
0.0223218212267938
0.0234261403121005
0.0245605853544831
0.0256862128838259
0.0267857091398002
0.0278630094984586
0.0289233423326087
0.0299720819739093
0.03101279429745
0.0320389206565192
0.0330329267097197
0.0339747155977801
0.0348414440932894
0.0356100010939971
0.0362651520122982
0.0367988650199553
0.0372041245228106
0.0374749316269281
0.0376065917298967
0.0376347907960498
0.0376309189422062
0.0376270566157313
0.0376233146088529
0.0376196929574754
0.0376161916963621
0.0376128108591331
0.0376095504782643
0.0376064105850858
0.0376033912097797
0.0376004923813791
0.0375977141277668
0.0375950564756743
0.0375925194506799
0.0375901030772073
0.0375878073785257
0.0375856323767469
0.0375835780928253
0.037581644546557
0.0375798317565788
0.0375781397403664
0.0375765685142347
0.0375751180933364
0.0375737884916616
0.0375725797220365
0.0375714917961236
0.0375705247244208
0.0375696785162607
0.0375689531798102
0.0375683487220706
0.0375678651488767
0.0375675024648962
0.0375672606736307
0.0375671397774142
0.0375671397774142
0.0375672606736306
0.0375675024648962
0.0375678651488767
0.0375683487220708
0.0375689531798104
0.0375696785162607
0.0375705247244208
0.0375714917961234
0.0375725797220362
0.0375737884916614
0.0375751180933363
0.0375765685142346
0.0375781397403664
0.0375798317565787
0.037581644546557
0.0375835780928251
0.0375856323767466
0.0375878073785257
0.0375901030772075
0.0375925194506799
0.0375950564756744
0.0375977141277668
0.0376004923813791
0.0376033912097797
0.0376064105850869
0.0376095504782656
0.0376128108591338
0.0376161916963632
0.0376196929574768
0.0376233146088527
0.0376270566157337
0.0376309189422094
0.0376348103622516
0.0376063734175532
0.0374741918024698
0.0372028931843544
0.0367971616032954
0.0362630007803321
0.035607426905032
0.0348384843063618
0.0339714436465267
0.0330294278795189
0.032035274339143
0.0310090673814163
0.0299683247195547
0.0289195532050969
0.0278591700159257
0.0267818002689494
0.0256822164753943
0.0245565050258542
0.0234220955834496
0.0223179595368404
0.0212868666318117
0.0203800517431584
0.0196605039783264
0.0191754832570539
0.0189051523875203
0.0188014426218825
0.0187835925567698
0.0233828245857962
0.0234053536684806
0.02353700047345
0.0238821211656927
0.0245033303963492
0.0254168902689903
0.0265575960556883
0.027846585150119
0.029221089816908
0.0306288877561712
0.0320243713543767
0.0333883851961482
0.0347257482542218
0.0360428081375415
0.0373461132714366
0.0386393521167238
0.039913535402545
0.0411469353280865
0.0423147074494379
0.0433886354208233
0.0443405807629423
0.0451521187906885
0.0458133041379506
0.0463154466281522
0.0466511311320759
0.0468145698253602
0.0468498073586428
0.0468449884636591
0.0468401804322784
0.0468355221811917
0.046831013755095
0.0468266551972636
0.0468224465495495
0.0468183878523803
0.0468144791447576
0.0468107204642532
0.0468071118470097
0.0468036533277367
0.0468003449397113
0.0467971867147748
0.0467941786833308
0.046791320874346
0.0467886133153465
0.0467860560324177
0.0467836490502026
0.0467813923919013
0.0467792860792685
0.0467773301326139
0.0467755245708004
0.0467738694112437
0.0467723646699105
0.0467710103613186
0.0467698064985368
0.0467687530931825
0.0467678501554227
0.0467670976939725
0.0467664957160955
0.0467660442276026
0.0467657432328524
0.0467655927347508
0.0467655927347507
0.0467657432328525
0.0467660442276026
0.0467664957160955
0.0467670976939726
0.0467678501554228
0.0467687530931825
0.0467698064985367
0.0467710103613186
0.0467723646699102
0.0467738694112435
0.0467755245708004
0.0467773301326138
0.0467792860792685
0.0467813923919011
0.0467836490502025
0.0467860560324174
0.0467886133153463
0.0467913208743461
0.046794178683331
0.0467971867147746
0.0468003449397114
0.046803653327737
0.0468071118470097
0.0468107204642531
0.0468144791447572
0.0468183878523806
0.0468224465495482
0.0468266551972626
0.0468310137550944
0.0468355221811906
0.0468401804322782
0.04684498846366
0.0468498318922489
0.0468142977371882
0.0466502136662696
0.0463139207348795
0.0458111938134764
0.0451494540574346
0.0443373925295525
0.0433849694250159
0.0423106523220331
0.0411425959100665
0.039909009779995
0.0386347232296739
0.0373414440706065
0.0360381011647556
0.0347209813737114
0.0333835352394166
0.032019416401087
0.0306238306334966
0.0292160652160082
0.0278417714672701
0.0265531940641078
0.0254131585694015
0.0245005718668672
0.0238804163697712
0.0235361917477714
0.0234051380768945
0.0233828245857958
0.0281505398069761
0.0281777417523751
0.0283378813525176
0.0287598715768997
0.0295215183811184
0.0306354728676003
0.0320181011023755
0.0335740710587256
0.0352286298427949
0.0369197511699312
0.0385949339853636
0.0402331223772694
0.0418400493232377
0.043423220877848
0.0449904012109207
0.0465454030824245
0.048076715186918
0.0495582630240709
0.0509602810386082
0.0522489832918103
0.0533910210367331
0.0543646636478304
0.0551579819770914
0.0557605498115711
0.0561634838713056
0.0563598630594423
0.0564023966915819
0.0563965960427439
0.0563908076625472
0.0563851996025727
0.0563797719166303
0.0563745246568186
0.0563694578735233
0.0563645716154153
0.0563598659294478
0.0563553408608546
0.0563509964531465
0.0563468327481112
0.0563428497858107
0.0563390476045783
0.0563354262410178
0.0563319857300011
0.0563287261046672
0.0563256473964203
0.0563227496349285
0.0563200328481216
0.0563174970621904
0.0563151423015858
0.0563129685890166
0.0563109759454495
0.056309164390107
0.0563075339404673
0.0563060846122633
0.0563048164194816
0.0563037293743616
0.0563028234873962
0.0563020987673298
0.0563015552211579
0.0563011928541279
0.0563010116697383
0.0563010116697384
0.0563011928541279
0.0563015552211579
0.0563020987673298
0.0563028234873964
0.0563037293743618
0.0563048164194816
0.0563060846122634
0.0563075339404672
0.0563091643901068
0.0563109759454494
0.0563129685890166
0.0563151423015857
0.0563174970621904
0.0563200328481214
0.0563227496349284
0.0563256473964202
0.0563287261046671
0.0563319857300012
0.0563354262410179
0.0563390476045784
0.0563428497858109
0.0563468327481115
0.0563509964531466
0.0563553408608541
0.0563598659294476
0.0563645716154143
0.0563694578735213
0.056374524656818
0.0563797719166306
0.0563851996025699
0.0563908076625457
0.0563965960427447
0.0564024263710497
0.0563595352326386
0.0561623822686951
0.0557587185932476
0.0551554498668549
0.0543614666388025
0.0533871963105517
0.052244585270378
0.0509554141017525
0.0495530522817806
0.0480712781026267
0.0465398392357117
0.0449847867077692
0.0434175625000297
0.0418343211526311
0.0402272969641862
0.0385889855077675
0.0369136816356274
0.0352225896107701
0.0335682705757076
0.032012779085984
0.0306309382013005
0.0295181425845184
0.0287577829196778
0.0283368958744781
0.0281774808525092
0.028150539806976
0.0330929102420919
0.033124956617446
0.0333146424744188
0.0338163559709441
0.0347236574133232
0.0360454069719284
0.0376788446220319
0.0395115738121865
0.0414564282562902
0.0434412258465544
0.045406328443467
0.0473287152009075
0.0492150654153717
0.0510740849517855
0.0529147974445949
0.0547411428288427
0.0565389939377395
0.0582777705614131
0.0599226059886095
0.0614339408699066
0.0627730261032234
0.0639147046487582
0.0648449908258402
0.0655516587305599
0.0660243031349954
0.0662548281485472
0.0663049250535985
0.0662981066650685
0.0662913020230395
0.0662847093599278
0.0662783287389895
0.0662721602214709
0.0662662038666029
0.0662604597316025
0.066254927871666
0.0662496083399687
0.066244501187661
0.0662396064638673
0.0662349242156825
0.066230454488171
0.0662261973243618
0.0662221527652507
0.0662183208497942
0.06621470161491
0.0662112950954752
0.0662081013243232
0.0662051203322434
0.0662023521479787
0.0661997967982257
0.0661974543076318
0.0661953246987943
0.0661934079922604
0.0661917042065252
0.0661902133580305
0.0661889354611651
0.0661878705282636
0.0661870185696056
0.0661863795934155
0.0661859536058615
0.0661857406110563
0.0661857406110563
0.0661859536058615
0.0661863795934157
0.0661870185696056
0.0661878705282637
0.0661889354611651
0.0661902133580306
0.0661917042065252
0.0661934079922604
0.0661953246987941
0.0661974543076319
0.0661997967982255
0.0662023521479786
0.0662051203322434
0.0662081013243234
0.0662112950954753
0.06621470161491
0.0662183208497939
0.0662221527652508
0.0662261973243621
0.066230454488171
0.0662349242156829
0.0662396064638675
0.066244501187661
0.0662496083399684
0.0662549278716659
0.0662604597316027
0.0662662038666016
0.0662721602214703
0.0662783287389891
0.0662847093599272
0.0662913020230401
0.0662981066650706
0.0663049600636554
0.0662544425472047
0.0660230106575089
0.0655495110146352
0.0648420214959747
0.0639109558875837
0.0627685415957369
0.0614287840395187
0.0599168975378141
0.0582716566102435
0.0565326120355546
0.0547346098043909
0.0529082030410938
0.0510674403546735
0.049208340788968
0.0473218786607787
0.0453993501271609
0.043434106912672
0.0414493352701708
0.0395047504205012
0.0376725688442194
0.0360400397723926
0.0347196414694704
0.0338138691823765
0.0333134736972041
0.0331246487419859
0.0330929102420919
0.0382163340113479
0.0382534025373196
0.038473723397877
0.0390581055244051
0.0401164448809355
0.0416536404456797
0.043547091342998
0.0456667169040157
0.0479124898324542
0.05020170491987
0.0524673312224054
0.0546843143296465
0.0568603137711953
0.0590052784823463
0.0611295371717843
0.0632371605164706
0.0653113087214686
0.0673167309488552
0.0692132726051637
0.0709553895678854
0.072498735063213
0.0738146005430473
0.0748868684137045
0.0757014471209216
0.0762463537316869
0.0765122745167386
0.076570211714161
0.076562338280223
0.0765544801477499
0.076546866812638
0.0765394983479369
0.0765323748243746
0.0765254963103531
0.0765188628719466
0.0765124745728975
0.0765063314746128
0.0765004336361633
0.076494781114278
0.0764893739633433
0.0764842122353997
0.0764792959801393
0.0764746252449032
0.0764702000746805
0.0764660205121041
0.0764620865974503
0.076458398368636
0.0764549558612174
0.0764517591083877
0.076448808140976
0.0764461029874464
0.0764436436738939
0.0764414302240473
0.0764394626592647
0.0764377409985339
0.0764362652584711
0.0764350354533205
0.0764340515949534
0.076433313692867
0.0764328217541851
0.0764325757836566
0.0764325757836566
0.0764328217541851
0.076433313692867
0.0764340515949534
0.0764350354533206
0.0764362652584712
0.0764377409985337
0.0764394626592647
0.0764414302240471
0.0764436436738938
0.0764461029874462
0.0764488081409761
0.0764517591083876
0.0764549558612174
0.0764583983686361
0.0764620865974501
0.0764660205121043
0.0764702000746805
0.0764746252449034
0.0764792959801393
0.0764842122353997
0.0764893739633433
0.0764947811142779
0.0765004336361634
0.0765063314746126
0.0765124745728982
0.0765188628719476
0.0765254963103505
0.0765323748243729
0.0765394983479384
0.0765468668126383
0.076554480147751
0.0765623382802248
0.0765702522460169
0.0765118290298584
0.0762448633919204
0.0756989713214098
0.0748834458591334
0.0738102798323398
0.0724935666232754
0.0709494461528343
0.0692066918360333
0.067309680724173
0.0653039474117581
0.0632296228316149
0.0611219269916492
0.0589976115630386
0.0568525562179985
0.0546764296629036
0.0524592853944818
0.0501934982085896
0.0479043055806315
0.0456588331583805
0.0435398268434498
0.0416474101160968
0.0401117651640576
0.0390552058829769
0.0384723645593969
0.0382530459604454
0.0382163340113477
0.0435274436159331
0.0435697184466355
0.0438218010069401
0.0444918974618091
0.0457068406735406
0.0474674014374658
0.0496304015202498
0.0520474322647748
0.0546051391986484
0.057209911801344
0.0597870594040886
0.0623094218181982
0.0647856742040172
0.0672270536324982
0.0696452413344421
0.0720444427679426
0.0744050054884678
0.0766868370210621
0.0788443012727841
0.0808256501968397
0.0825807346475832
0.0840771647715019
0.0852966129412213
0.0862230535926101
0.0868428682945293
0.0871454808551898
0.0872115455484656
0.0872025783950547
0.0871936281797345
0.0871849567824542
0.0871765642864151
0.087168450772175
0.087160616317642
0.0871530609980726
0.0871457848860681
0.0871387880515699
0.0871320705618575
0.0871256324815441
0.0871194738725743
0.0871135947942212
0.0871079953030824
0.0871026754530788
0.0870976352954512
0.087092874878758
0.0870883942488725
0.0870841934489815
0.0870802725195822
0.0870766314984809
0.0870732704207912
0.0870701893189328
0.0870673882226281
0.0870648671589025
0.0870626261520831
0.087060665223796
0.0870589843929673
0.0870575836758202
0.0870564630858759
0.0870556226339514
0.0870550623281608
0.0870547821739132
0.0870547821739132
0.0870550623281608
0.0870556226339515
0.0870564630858759
0.0870575836758203
0.0870589843929673
0.0870606652237961
0.0870626261520831
0.0870648671589024
0.087067388222628
0.0870701893189327
0.0870732704207912
0.0870766314984807
0.087080272519582
0.0870841934489815
0.0870883942488726
0.0870928748787581
0.0870976352954514
0.0871026754530789
0.0871079953030825
0.0871135947942212
0.0871194738725743
0.0871256324815441
0.0871320705618576
0.0871387880515698
0.0871457848860695
0.0871530609980724
0.0871606163176402
0.0871684507721746
0.0871765642864165
0.087184956782454
0.0871936281797361
0.0872025783950561
0.0872115918000298
0.087144973294287
0.0868411728476514
0.086220237696672
0.085292720567171
0.0840722511695861
0.0825748572337688
0.0808188913973998
0.0788368162455404
0.0766788162401054
0.0743966289077719
0.0720358636335323
0.069636578180862
0.0672183269576923
0.0647768459069424
0.0623004506572587
0.0597779069948263
0.0572005775088373
0.0545958237417937
0.0520384493401798
0.0496221120647897
0.0474602762911573
0.0457014727462721
0.0444885697483668
0.0438202451117413
0.0435693113808105
0.0435274436159332
0.0490331145240231
0.0490807865115619
0.0493657975322013
0.0501247608629528
0.0515020686871358
0.0534941964487266
0.0559366278285712
0.0586619577348362
0.0615430199383041
0.064474901473747
0.0673749741039272
0.0702138963326626
0.0730013957950126
0.0757500445512421
0.0784729256447412
0.0811743837154918
0.0838318501651842
0.0864002135773018
0.0888281556171864
0.0910574971052932
0.0930320742283223
0.094715681200656
0.0960876993924403
0.097130098376505
0.097827564317959
0.0981682123021206
0.0982427022403463
0.0982326012747879
0.0982225189704681
0.0982127507511425
0.0982032967105365
0.098194156939397
0.0981853315254869
0.0981768205535819
0.0981686241054663
0.098160742259928
0.0981531750927567
0.0981459226767384
0.0981389850816526
0.0981323623742699
0.0981260546183468
0.0981200618746245
0.0981143842008255
0.0981090216516492
0.098103974278772
0.0980992421308431
0.0980948252534825
0.0980907236892783
0.0980869374777851
0.0980834666555236
0.0980803112559759
0.0980774713095858
0.0980749468437569
0.0980727378828511
0.0980708444481882
0.0980692665580439
0.0980680042276493
0.0980670574691901
0.0980664262918058
0.0980661107015903
0.0980661107015905
0.098066426291806
0.09806705746919
0.0980680042276495
0.098069266558044
0.0980708444481884
0.0980727378828511
0.0980749468437566
0.0980774713095856
0.0980803112559757
0.0980834666555237
0.0980869374777851
0.098090723689278
0.0980948252534827
0.0980992421308433
0.098103974278772
0.098109021651649
0.0981143842008252
0.0981200618746245
0.0981260546183469
0.0981323623742699
0.0981389850816526
0.0981459226767385
0.0981531750927568
0.0981607422599279
0.098168624105467
0.0981768205535835
0.0981853315254854
0.0981941569393971
0.0982032967105378
0.098212750751141
0.0982225189704683
0.0982326012747909
0.0982427544164478
0.0981676403985753
0.0978256562528325
0.0971269299297281
0.0960833199940946
0.0947101529959685
0.0930254618784191
0.0910498930626416
0.0888197332176631
0.086391186697106
0.0838224211319804
0.0811647249906618
0.0784631709543413
0.0757402193114432
0.0729914575455059
0.0702037988963441
0.067364674602109
0.0644643983251069
0.0615325318638969
0.0586518353787312
0.0559272758602944
0.053486143657337
0.051495987250593
0.0501209893268738
0.0493640373375391
0.0490803271047057
0.049033114524023
0.0547404740713066
0.0547937410276055
0.0551128892144956
0.0559639843461703
0.0575096225978415
0.059741814676949
0.0624739193948608
0.0655188416432956
0.0687351002276661
0.072006067453848
0.0752408887386678
0.0784079625388086
0.0815181072561573
0.0845852786008058
0.0876240125937204
0.0906387977596834
0.0936040421702797
0.0964694316467448
0.099177757495069
0.101664173851552
0.103866282098681
0.105743920911759
0.107274096733113
0.108436700831246
0.109214661870801
0.109594738257537
0.109677962115366
0.109666685774267
0.109655429909255
0.109644524688122
0.109633970215504
0.109623766592709
0.109613913917715
0.109604412285167
0.109595261786368
0.109586462509278
0.109578014538506
0.109569917955312
0.109562172837597
0.109554779259905
0.109547737293411
0.109541047005928
0.109534708461897
0.109528721722385
0.109523086845082
0.109517803884301
0.109512872890972
0.109508293912639
0.109504066993463
0.109500192174213
0.109496669492271
0.109493498981622
0.109490680672861
0.109488214593185
0.109486100766395
0.109484339212894
0.109482929949687
0.109481872990377
0.109481168345168
0.109480816020863
0.109480816020863
0.109481168345168
0.109481872990377
0.109482929949687
0.109484339212895
0.109486100766395
0.109488214593184
0.109490680672861
0.109493498981622
0.109496669492271
0.109500192174213
0.109504066993463
0.109508293912639
0.109512872890971
0.109517803884301
0.109523086845082
0.109528721722385
0.109534708461897
0.109541047005928
0.109547737293411
0.109554779259904
0.109562172837597
0.109569917955312
0.109578014538506
0.109586462509278
0.10959526178637
0.109604412285168
0.109613913917713
0.109623766592709
0.109633970215504
0.10964452468812
0.109655429909256
0.10966668577427
0.109678020427979
0.109594099659778
0.109212533400536
0.108433166921993
0.107269212474023
0.105737755595582
0.103858907897117
0.101655693610409
0.0991683633931936
0.0964593618193719
0.0935935221382864
0.0906280199036575
0.0876131263878047
0.0845743145616356
0.0815070184051545
0.0783966975833243
0.0752294001422115
0.0719943526540003
0.0687233965989193
0.0655075381255208
0.0624634659837133
0.0597328002222748
0.0575028014484732
0.0559597526769936
0.0551109172182222
0.0547932273604108
0.0547404740713065
0.0606569106875516
0.0607159776492743
0.0610705154403718
0.0620171247685582
0.063737273707527
0.0662183353155934
0.0692507291727972
0.0726269507246664
0.0761906815709953
0.0798131514880662
0.0833949796681712
0.0869022225895661
0.0903468291834882
0.093744189315357
0.0971103450704555
0.100449933830738
0.103734229317324
0.106907524019823
0.109906503127807
0.112659409899241
0.115097382667945
0.117176159816362
0.118870285866419
0.120157497656275
0.121018901981411
0.121439850852985
0.121532128627175
0.121519633822396
0.121507161405773
0.121495077531172
0.121483382314536
0.121472075868126
0.121461158300508
0.121450629716556
0.121440490217441
0.12143073990063
0.121421378859878
0.121412407185225
0.121403824962995
0.121395632275785
0.121387829202466
0.12138041581818
0.121373392194331
0.121366758398587
0.121360514494874
0.121354660543375
0.121349196600524
0.121344122719005
0.121339438947749
0.121335145331935
0.121331241912982
0.121327728728551
0.121324605812542
0.121321873195092
0.121319530902575
0.121317578957599
0.121316017379006
0.121314846181869
0.121314065377497
0.121313674973426
0.121313674973426
0.121314065377497
0.12131484618187
0.121316017379006
0.1213175789576
0.121319530902576
0.121321873195092
0.121324605812542
0.121327728728551
0.121331241912982
0.121335145331935
0.121339438947749
0.121344122719004
0.121349196600524
0.121354660543375
0.121360514494875
0.121366758398587
0.121373392194331
0.12138041581818
0.121387829202466
0.121395632275785
0.121403824962995
0.121412407185225
0.121421378859878
0.12143073990063
0.121440490217443
0.121450629716557
0.121461158300507
0.121472075868127
0.121483382314537
0.12149507753117
0.121507161405774
0.121519633822397
0.121532193295657
0.121439143123539
0.121016545033455
0.120153584899245
0.118864878255796
0.1171693340542
0.11508921871163
0.112650021368487
0.109896101733953
0.106896373045591
0.103722578326195
0.10043799585241
0.0970982859039945
0.0937320447662778
0.0903345475900245
0.0868897473566839
0.0833822584315862
0.0798001806683932
0.0761777178737525