/*--------------------------------*- C++ -*----------------------------------*\
  =========                 |
  \\      /  F ield         | OpenFOAM: The Open Source CFD Toolbox
   \\    /   O peration     | Website:  https://openfoam.org
    \\  /    A nd           | Version:  7
     \\/     M anipulation  |
\*---------------------------------------------------------------------------*/
FoamFile
{
    version     2.0;
    format      ascii;
    class       volVectorField;
    location    "0";
    object      C;
}
// * * * * * * * * * * * * * * * * * * * * * * * * * * * * * * * * * * * * * //

dimensions      [0 1 0 0 0 0 0];

internalField   nonuniform List<vector> 
15600
(
(0.0348279109254663 1.00195549917933 -2.59095232924867e-18)
(0.104483732776399 1.00195549917933 2.49457880269694e-18)
(0.17413968907306 1.00154525709452 9.63401330111219e-20)
(0.243763044217246 0.99948594261652 2.6854279933314e-18)
(0.313240756270474 0.994614921084097 -9.6111605372365e-20)
(0.382360607149361 0.986147985577794 -2.68381185656268e-18)
(0.450777325896757 0.973256335198312 -2.59440954724168e-18)
(0.518072066106625 0.95543596717284 0)
(0.583985131179568 0.93299649213321 1.90732885154432e-19)
(0.648524146584616 0.906849382054596 -2.69668716528361e-18)
(0.711844138843792 0.877868229759107 2.57776354234219e-18)
(0.774160126900126 0.846777197292212 0)
(0.835693183976665 0.814164208313831 7.57478820523565e-18)
(0.896660138028012 0.780508362524079 4.96894410066865e-18)
(0.957276957019556 0.746230413838853 2.56393459917351e-18)
(1.01775986501386 0.711721541521337 -7.01139800377028e-18)
(1.07831993765983 0.677353882879967 -9.51706510180521e-20)
(1.13909828815448 0.643375778543159 0)
(1.20012044556528 0.60983497336622 4.29681378180811e-18)
(1.26136015051978 0.5766896080115 0)
(1.32278912530299 0.543893791677924 -1.98774009143315e-18)
(1.38437903295888 0.511399610663565 0)
(1.44610186149249 0.479157218350123 0)
(1.50792965405617 0.447115282843784 -1.94248337982766e-18)
(1.56983451281748 0.415221271998309 3.51709760923502e-18)
(1.63179538642351 0.383434843417308 9.02973301315383e-18)
(1.69383389613797 0.351801095612788 -1.26762312049168e-15)
(1.75602185868053 0.320462800355486 -1.26289226980799e-15)
(1.8184435942011 0.28959218065913 -1.5571010398985e-18)
(1.88118144152406 0.259370424830906 6.64997417732409e-18)
(1.94431613191774 0.229990312018157 6.50055273234969e-18)
(2.00792558868569 0.201659550573152 0)
(2.0720878377928 0.174602283588187 0)
(2.13687033207829 0.149064701547666 -5.98149842407308e-18)
(2.20230979327368 0.125274284189937 8.83171259543208e-18)
(2.26840756177647 0.103372418911652 -4.23454119966474e-18)
(2.33512951343999 0.083447540810007 5.73795370867357e-18)
(2.40243194641794 0.0655835999650006 0)
(2.47026688737958 0.0498603771394655 2.21241493318185e-16)
(2.53857805582994 0.0363539440252928 2.19993743409232e-16)
(2.60730245879033 0.0251342398967197 -9.61653092629666e-20)
(2.67636892547644 0.0162643400879105 -2.80604995429861e-18)
(2.74570240831273 0.00979805591114809 0)
(2.81522009857641 0.00577943075698031 0)
(2.88483778584015 0.00414892422743915 0)
(2.95449058316148 0.00391099835865907 0)
(3.02414640501241 0.0039109983586591 -2.33871457205741e-16)
(3.09380222686334 0.00391099835865908 -2.43528545826936e-16)
(3.16345804871427 0.00391099835865903 0)
(3.23311387056521 0.00391099835865905 0)
(3.30276969241614 0.0039109983586591 0)
(3.37242551426707 0.00391099835865909 0)
(3.44208133611801 0.00391099835865913 -2.36558783061539e-16)
(3.51173715796894 0.00391099835865919 -2.32816781759964e-16)
(3.58139297981987 0.0039109983586592 5.56739876470068e-18)
(3.6510488016708 0.0039109983586593 -9.63735265517995e-20)
(3.72070462352173 0.00391099835865913 -8.0619775673963e-18)
(3.79036044537267 0.00391099835865898 0)
(3.86001626722361 0.00391099835865922 0)
(3.92967208907454 0.00391099835865898 0)
(3.99932791092548 0.00391099835865904 -2.6873258557988e-18)
(4.06898373277641 0.00391099835865911 0)
(4.13863955462734 0.00391099835865897 9.63735265518062e-20)
(4.20829537647827 0.00391099835865914 5.37465171159751e-18)
(4.27795119832921 0.00391099835865924 9.63735265518028e-20)
(4.34760702018014 0.00391099835865915 5.37465171159697e-18)
(4.41726284203107 0.00391099835865921 9.63735265518032e-20)
(4.486918663882 0.00391099835865921 -5.47102523814918e-18)
(4.55657448573294 0.00391099835865906 0)
(4.62623030758387 0.00391099835865922 -9.63735265518018e-20)
(4.6958861294348 0.00391099835865907 2.68732585579881e-18)
(4.76554195128573 0.00391099835865913 -2.68732585579873e-18)
(4.83519777313666 0.00391099835865895 2.28593179020692e-16)
(4.9048535949876 0.00391099835865913 4.7214275749306e-16)
(4.97450941683853 0.00391099835865917 2.32705817431319e-16)
(5.04416211561544 0.00415369056719575 2.78366486360803e-18)
(5.11377944219305 0.0057965991527093 2.68900354909364e-18)
(5.18329624180125 0.00983039172068495 -2.79305284248196e-18)
(5.25262839761866 0.0163116185450854 -2.61371574740089e-18)
(5.32169301587658 0.0251961517792932 2.16602181311233e-16)
(5.39041487424481 0.036430088728878 2.13961976726637e-16)
(5.45872333710736 0.0499503891931584 0)
(5.52655515017139 0.0656870065266194 0)
(5.59385414523166 0.0835638747514902 9.67857314485456e-20)
(5.66057231213692 0.103501141158943 -2.9202260443459e-18)
(5.7266660465538 0.125414881271203 5.95451311439258e-18)
(5.79210173936358 0.149216686841685 -2.94325278480241e-18)
(5.85688010948406 0.174764314640429 9.69968956103237e-20)
(5.92103856259297 0.201830074128555 3.08209042334303e-18)
(5.98464505492938 0.230168048704366 0)
(6.04777718755052 0.259554015193723 -9.71303588050616e-20)
(6.11051291236701 0.289780368833607 1.75009061411167e-18)
(6.17293283920363 0.320654344971142 0)
(6.23511952242183 0.351994928036797 8.74596964381977e-18)
(6.29715743160046 0.383630010244229 0)
(6.35911797363786 0.415417136568793 1.80653840841918e-18)
(6.42102245241882 0.447311899430724 -2.0419104346157e-18)
(6.48284970273768 0.479354918481761 1.40082104848959e-15)
(6.5445718256125 0.511598719289342 1.39107270445997e-15)
(6.60616086276803 0.544094625010226 -1.89068449850657e-18)
(6.66758880055413 0.576892471551027 -2.04238433483131e-18)
(6.72882712677617 0.610040063157247 2.19864818202039e-18)
(6.78984771228863 0.643583356961647 0)
(6.85062455994989 0.677564207201202 -4.37096750845196e-18)
(6.91118368880858 0.711933747103009 7.01525387003797e-18)
(6.97166685898294 0.74644242308209 0)
(7.03228524162471 0.780717804334603 0)
(7.09325504127642 0.814368576202957 5.08484700461122e-18)
(7.15479218361129 0.846973724116599 2.54117128838005e-18)
(7.21711347787471 0.878053612626987 9.75937796832286e-20)
(7.2804399446185 0.907019506251136 2.69909968615513e-18)
(7.34498737421058 0.933146770069901 -5.22062606601332e-18)
(7.41090935312413 0.955560517068751 -5.30954212693142e-18)
(7.47821199393126 0.973350584149907 -9.69946024576809e-20)
(7.54663442799821 0.986212849807378 0)
(7.61575724234859 0.994654940808659 -9.66343465074726e-20)
(7.68523648789605 0.999506683572489 -5.37142292602049e-18)
(7.75486030461893 1.00155154100598 0)
(7.82451626722361 1.00195549917933 0)
(7.89417208907453 1.00195549917933 -5.37465171160114e-18)
(0.0348207661718193 1.00593826201089 0)
(0.104462298515458 1.00593826201089 -1.92755999670059e-19)
(0.174103982822319 1.00552965703571 5.38435467420152e-18)
(0.243713232365845 1.00347856037943 0)
(0.313177434032573 0.998626976951738 2.68874872362011e-18)
(0.382285220655147 0.990193829465599 -1.92327284104756e-19)
(0.450692694441197 0.977353625228712 -2.50295550395576e-18)
(0.517982667763945 0.959604374373574 2.51409643633086e-18)
(0.58389645615505 0.937254452447968 1.9173776062515e-19)
(0.648441653748745 0.911211693057726 -1.91605470052853e-19)
(0.71177267338258 0.882346201181676 4.97212807924978e-18)
(0.774103680089747 0.851379247672994 2.45035652766996e-18)
(0.835654868899133 0.818896409212303 0)
(0.896642204997335 0.785374873120118 -2.54140384753175e-18)
(0.957280796082052 0.751233714047365 -4.57808537060729e-18)
(1.01778600442463 0.716862550304736 0)
(1.07836806427332 0.682632034558889 -2.1541506254066e-18)
(1.13916752986895 0.648789518172044 -1.89580544485601e-18)
(1.20020983125786 0.615382556524476 -3.83269231527002e-19)
(1.26146881380148 0.582369457246495 3.93868063722534e-18)
(1.32291631251225 0.549704512585765 1.72530725162651e-18)
(1.38452410341702 0.517339999969869 -3.73704832813376e-18)
(1.4462642862089 0.485226271641418 -1.82343306985645e-18)
(1.50810901551432 0.453312200505804 -9.29060452168895e-18)
(1.57003050474483 0.421545464014948 0)
(1.63200778612092 0.389885880634594 1.91857194267114e-19)
(1.694062392639 0.3583783683812 1.24474952209986e-15)
(1.75626585384543 0.327165129140932 1.18362177029334e-15)
(1.81870215343113 0.296417698748716 1.9194624162872e-19)
(1.88145330163472 0.266316542555147 0)
(1.9445997075095 0.237053670505398 0)
(2.00821898330171 0.2088359621822 1.67834577741317e-18)
(2.07238884350903 0.181886666282915 0)
(2.13717647155456 0.156450991043936 0)
(2.20261844346451 0.132755508607027 -2.77833347857928e-18)
(2.26871609553524 0.110941042230624 0)
(2.33543543972898 0.0910956741715564 1.92339266267979e-19)
(2.40273294863618 0.073303019356166 3.0174900511644e-18)
(2.47056084028106 0.057642540197546 -2.09729593691691e-16)
(2.53886305878013 0.0441900047209182 -2.11243253228019e-16)
(2.6075768624907 0.0330150731154003 -5.46672774518061e-18)
(2.6766313646658 0.0241805689378883 0)
(2.7459518172125 0.0177400887614605 0)
(2.81545574188921 0.0137375001919089 -5.58099187674453e-18)
(2.88505926637185 0.0121135004027894 2.88534510180622e-18)
(2.95469778101724 0.0118765240217846 -1.92755999670063e-19)
(3.02433931336088 0.0118765240217845 2.31545164195748e-16)
(3.09398084570452 0.0118765240217844 2.29587156000674e-16)
(3.16362237804816 0.0118765240217845 0)
(3.2332639103918 0.0118765240217844 0)
(3.30290544273543 0.0118765240217845 1.92755999670066e-19)
(3.37254697507907 0.0118765240217846 2.69266111308083e-18)
(3.44218850742271 0.0118765240217846 2.26352597969254e-16)
(3.51183003976635 0.0118765240217846 2.22278765210464e-16)
(3.58147157210999 0.0118765240217846 0)
(3.65111310445363 0.0118765240217846 2.49990511341086e-18)
(3.72075463679727 0.0118765240217844 2.88541711275109e-18)
(3.7903961691409 0.0118765240217844 -2.49990511341075e-18)
(3.86003770148455 0.0118765240217844 0)
(3.92967923382819 0.0118765240217844 2.69266111308081e-18)
(3.99932076617183 0.0118765240217844 0)
(4.06896229851547 0.0118765240217844 -2.88541711275088e-18)
(4.1386038308591 0.0118765240217843 2.88541711275108e-18)
(4.20824536320274 0.0118765240217844 -2.69266111308084e-18)
(4.27788689554638 0.0118765240217846 -2.49990511341085e-18)
(4.34752842789002 0.0118765240217846 -2.88541711275098e-18)
(4.41716996023366 0.0118765240217846 -5.38532222616173e-18)
(4.4868114925773 0.0118765240217847 1.92755999670064e-19)
(4.55645302492093 0.0118765240217847 0)
(4.62609455726457 0.0118765240217844 -5.19256622649124e-18)
(4.69573608960821 0.0118765240217844 8.07798333924251e-18)
(4.76537762195185 0.0118765240217845 -1.92755999670065e-19)
(4.83501915429549 0.0118765240217845 -2.23659936856195e-16)
(4.90466068663912 0.0118765240217845 -4.49198803001277e-16)
(4.97430221898277 0.0118765240217843 -2.22842217154614e-16)
(5.04394063537202 0.0121182477217451 2.49985409087982e-18)
(5.11354380054427 0.0137546000755757 -5.58138302553425e-18)
(5.183046838121 0.017772295533665 -2.89444411698252e-18)
(5.25236596894537 0.0242276587281116 -2.521844577288e-18)
(5.3214186300705 0.0330767379375935 -2.08537938583897e-16)
(5.39012989934513 0.0442658455686988 -2.10394022560313e-16)
(5.45842942305342 0.057732193056411 2.78960729874044e-18)
(5.52625419928595 0.0734060132754346 1.93113466395139e-19)
(5.59354828399383 0.0912115438825066 1.93163927877151e-19)
(5.66026385853662 0.111069250816748 5.79644790469383e-19)
(5.72635749261739 0.132895544639062 0)
(5.79179571118255 0.156602369845989 -1.61294549125288e-18)
(5.85657923153835 0.182048050760507 -1.45227421933681e-18)
(5.92074531090425 0.209005805269255 0)
(5.9843616341069 0.237230697938753 -1.9345961768815e-19)
(6.04750549242761 0.266499400304952 3.30882592791328e-18)
(6.11025452660578 0.29660513596099 3.18855298871554e-18)
(6.17268902473782 0.327355909400093 -1.63125214976731e-18)
(6.23489121173322 0.35857142731415 3.33663488041743e-18)
(6.29694522012321 0.390080268642526 7.01437656262421e-18)
(6.35892217125427 0.42174054698191 1.54870832833813e-18)
(6.42084328201315 0.453508032489974 0)
(6.48268747122954 0.485423182848282 -1.31544228603748e-15)
(6.54442695116998 0.517538314052397 -1.38391520937008e-15)
(6.606033875039 0.549904544494816 0)
(6.6674803408811 0.58257151126408 -6.1028622263435e-18)
(6.72873795018686 0.615586827915568 6.27287611589914e-18)
(6.78977868593659 0.64899626826162 -1.70004077487614e-18)
(6.85057665468717 0.682841519596755 1.96066071839782e-18)
(6.91115777453857 0.71707390908604 7.05875620538111e-18)
(6.9716632440505 0.7514448772591 2.28945380010777e-18)
(7.03230339258645 0.785583479128737 2.54438971356572e-18)
(7.09329356297861 0.819099961531808 -2.59869117045712e-18)
(7.15484882080476 0.851574990204933 2.25662923281008e-18)
(7.21718511262666 0.882530844218294 -7.84675903523845e-18)
(7.28052258101668 0.911381138311297 5.0184547605662e-18)
(7.34507615933886 0.937404130637235 2.51785254072515e-18)
(7.41099882617968 0.95972842721568 0)
(7.4782966686455 0.977447498059171 3.86745492039139e-19)
(7.54670983488541 0.99025843484898 0)
(7.6158205730526 0.998666836974834 1.93015998283238e-19)
(7.68528630197187 1.00349921856746 0)
(7.75489601117126 1.00553591587077 0)
(7.82453770148455 1.00593826201089 -2.49990511340864e-18)
(7.89417923382818 1.00593826201089 8.07798333923523e-18)
(0.0348133596852608 1.01006692492001 0)
(0.104440079055783 1.01006692492001 0)
(0.17406696854873 1.00966001702739 -5.20872349235537e-18)
(0.243661595762712 1.0076174392421 -4.82080063977884e-18)
(0.313111792118264 1.00278600601094 0)
(0.382207072535287 0.994387884334391 0)
(0.450604962689057 0.981601010919994 -2.60686146658707e-18)
(0.51788999449825 0.963925482533268 0)
(0.583804532703714 0.941668394365953 0)
(0.648356138957269 0.915733808364337 -2.61159340674192e-18)
(0.711698589930832 0.886988213899475 -1.91513801338886e-19)
(0.774045165466263 0.856149884728994 2.55449144858194e-18)
(0.835615150227319 0.823801964584699 -2.31854701818484e-18)
(0.89662361502684 0.790419658355541 0)
(0.957284775780739 0.756420299912236 -4.60607462966397e-18)
(1.01781310139925 0.722191889429179 -6.81438147739598e-18)
(1.07841795390698 0.688103540540837 -3.96308174965622e-18)
(1.13923930811227 0.654401579099635 0)
(1.20030249141284 0.62113336406987 3.90757490271095e-18)
(1.26158145774076 0.588257376167496 -1.89922760649956e-18)
(1.32304815896539 0.555728097395498 0)
(1.38467448823527 0.523498003313337 0)
(1.4464326610232 0.491517652309933 -7.22617397821349e-18)
(1.50829494751326 0.459736129592805 0)
(1.57023367643615 0.428101329890623 3.55222130945474e-18)
(1.63222796664741 0.396573238423804 1.83623107176648e-18)
(1.69429925964246 0.365196586097898 -5.21025384279579e-18)
(1.75651878727424 0.334112984035994 -1.91912090600806e-19)
(1.81897018444923 0.303493255720216 1.72942175045954e-18)
(1.88173512078312 0.27351711705984 1.91984229565046e-19)
(1.94489367131047 0.244375780619126 3.12705209754888e-18)
(2.00852312582523 0.21627526685062 0)
(2.07270087594793 0.189437897291524 0)
(2.13749382581613 0.164107861949324 0)
(2.20293840041327 0.140510792124153 -8.42524028869043e-18)
(2.26903593178451 0.118786926273273 0)
(2.33575257298728 0.0990239808915428 5.3543789049144e-18)
(2.40304497743887 0.0813052234729335 -1.92392176055238e-19)
(2.47086556152846 0.0657097864216681 0)
(2.53915850221225 0.0523131229716462 0)
(2.60786131839078 0.0411846040057152 -4.90299277931239e-18)
(2.6769034177595 0.0323867920798633 -1.92598101284524e-19)
(2.74621036267904 0.0259730611630306 1.92648890892899e-19)
(2.81570001749543 0.0219870966370834 0)
(2.88528886037353 0.0203698419498074 2.79751940287667e-18)
(2.95491256912744 0.0201338498400255 -2.79758823183159e-18)
(3.02453928849796 0.0201338498400255 -4.8241511461031e-18)
(3.09416600786848 0.0201338498400255 -2.6048319024414e-18)
(3.163792727239 0.0201338498400255 0)
(3.23341944660952 0.0201338498400255 -5.20966380488285e-18)
(3.30304616598005 0.0201338498400255 0)
(3.37267288535057 0.0201338498400256 0)
(3.44229960472109 0.0201338498400256 0)
(3.51192632409161 0.0201338498400256 -1.92756329390094e-19)
(3.58155304346213 0.0201338498400255 0)
(3.65117976283266 0.0201338498400255 -5.20966380488283e-18)
(3.72080648220318 0.0201338498400256 0)
(3.7904332015737 0.0201338498400255 -2.6048319024414e-18)
(3.86005992094422 0.0201338498400254 1.92756329390102e-19)
(3.92968664031475 0.0201338498400255 0)
(3.99931335968527 0.0201338498400255 -2.60483190244141e-18)
(4.06894007905579 0.0201338498400254 2.6048319024416e-18)
(4.13856679842631 0.0201338498400256 -1.92756329390089e-19)
(4.20819351779683 0.0201338498400255 -5.01690747549272e-18)
(4.27782023716735 0.0201338498400255 2.60483190244145e-18)
(4.34744695653788 0.0201338498400255 5.2096638048828e-18)
(4.4170736759084 0.0201338498400256 0)
(4.48670039527892 0.0201338498400256 -2.79758823183179e-18)
(4.55632711464944 0.0201338498400256 0)
(4.62595383401996 0.0201338498400255 5.40242013427297e-18)
(4.69558055339048 0.0201338498400255 0)
(4.76520727276101 0.0201338498400255 0)
(4.83483399213153 0.0201338498400255 7.42898304854409e-18)
(4.90446071150205 0.0201338498400254 1.92756329390103e-19)
(4.97408743087257 0.0201338498400255 0)
(5.0437110416692 0.0203745695511639 1.92766238216586e-19)
(5.11329952666302 0.0220041254989087 5.2128074926422e-18)
(5.18278829806519 0.0260051341709805 5.03400922840772e-18)
(5.25209392675297 0.0324336862918276 2.62613419014159e-18)
(5.32113419272023 0.0412460127171884 -1.92963912691346e-19)
(5.38983448499109 0.0523886488327542 0)
(5.45812474207664 0.0657990669275856 -2.31211045009526e-18)
(5.52594222369654 0.0814077896338969 -2.73337329503928e-18)
(5.59323121816969 0.0991393693661278 2.77444725763059e-18)
(5.65994410538224 0.118914602381715 -1.93215078854243e-19)
(5.72603763544912 0.140650246554406 0)
(5.79147847229326 0.164258612042153 5.47785673225125e-18)
(5.85626733155056 0.18959861150891 -1.40090672260203e-18)
(5.92044131654386 0.216444404542016 8.99000028422038e-18)
(5.98406783074487 0.244552072817825 0)
(6.04722384431096 0.273699215359035 -3.19834933615497e-18)
(6.10998667541114 0.303679914460461 6.3443439074457e-18)
(6.1724362786276 0.334302971938143 0)
(6.23465453734905 0.365388843204594 -3.41171112648739e-18)
(6.29672523471193 0.396766819082343 0)
(6.35871919605022 0.428295602621645 3.55450199315529e-18)
(6.42065754806553 0.459931148231929 3.43665473304555e-18)
(6.4825192967013 0.49171374569141 3.51773623229882e-18)
(6.54427676954798 0.523695493746178 -1.80235183305797e-18)
(6.60590223537366 0.555927298522831 0)
(6.66736790800927 0.588458591007978 7.79204944476073e-18)
(6.72864550679519 0.621336787080621 1.93834203122133e-19)
(6.78970713094506 0.65460747051614 -4.41452482788074e-18)
(6.85052699451303 0.688312155549855 1.93932244674462e-19)
(6.9111309109523 0.722402370389242 -1.93981196307786e-19)
(6.97165949669242 0.756630586099767 6.81714946171013e-18)
(7.03232220847146 0.790627397944322 -4.5329046881286e-18)
(7.09333349584436 0.824004671457857 2.51290357026404e-18)
(7.15490753278563 0.856344814237547 7.47793899862456e-18)
(7.21725937157075 0.887172090002613 -3.87915784950339e-19)
(7.28060824462959 0.915902549803188 -1.93872516023946e-19)
(7.34516819692738 0.941817450837023 -2.42865949028461e-18)
(7.4110915768952 0.964049020112696 -1.93578670656722e-19)
(7.47838444524101 0.98169449385047 2.60803537751253e-18)
(7.5467880041453 0.994452221389028 -4.81788118976954e-18)
(7.61588622374317 1.00282570048208 -2.79453551150956e-18)
(7.68533794088088 1.00763801163011 2.60330492587545e-18)
(7.75493302575746 1.00966624986741 2.60443416082457e-18)
(7.82455992094422 1.01006692492001 -5.01690747549197e-18)
(7.89418664031474 1.01006692492001 2.60483190244063e-18)
(0.0348056818777734 1.01434683263962 0)
(0.10441704563332 1.01434683263962 0)
(0.174028598335714 1.01394168399955 -1.92723217048242e-19)
(0.243608067562024 1.01190793716331 -4.84405542802776e-18)
(0.313043745551177 1.00709739230779 5.03267258684323e-18)
(0.382126061623521 0.998735579576767 1.92327638842372e-19)
(0.450514017067508 0.986003990710398 2.32962884989587e-18)
(0.517793926339534 0.968404885534941 0)
(0.583709241826093 0.946244031953621 2.34262928777843e-18)
(0.648267491507 0.920421582079718 1.91605325017356e-19)
(0.71162179258378 0.89180027723207 -2.3122729561946e-18)
(0.773984507279539 0.861095284290666 -2.27879713956714e-18)
(0.835573976543402 0.828887224920187 -7.09027205051334e-18)
(0.896604344050872 0.795649248960157 -1.99373705613771e-18)
(0.957288901267542 0.761796885732446 -4.25695127479976e-18)
(1.01784119101613 0.727716457996428 -1.07192395538211e-17)
(1.07846967114548 0.693775483971212 -2.38624292998152e-18)
(1.13931371580508 0.660219226427808 -1.91585763610838e-19)
(1.2003985459836 0.62709484071937 0)
(1.261698228161 0.594360986989364 0)
(1.32318483534439 0.56197234394841 -7.32372795323381e-18)
(1.38483038209456 0.529881592546753 -6.9517935769714e-18)
(1.44660720390527 0.498039504872041 0)
(1.50848769075153 0.466395386211656 -1.91810480642763e-19)
(1.5704442909077 0.434897356530938 -8.4860207646944e-18)
(1.63245621303799 0.403505573913378 1.96965025110387e-18)
(1.69454480378483 0.372264575295671 8.14212756650512e-18)
(1.75678098640225 0.341315359394316 -4.55170249374949e-18)
(1.81924803423519 0.310828011242417 6.12358198159773e-18)
(1.88202726379839 0.280981469852919 0)
(1.94519840387152 0.25196612119811 -1.92026184675286e-19)
(2.00883840998385 0.223987095127473 5.9157160511946e-18)
(2.07302433905079 0.197265752052478 -2.70228886691459e-18)
(2.13782280569342 0.172045226452817 -1.92175763350033e-19)
(2.20327007831943 0.148550174324331 0)
(2.26936748456728 0.126920227903413 0)
(2.3360813237585 0.107242724528287 -2.87475899420523e-18)
(2.40336843676144 0.0896005715319735 0)
(2.4711814455971 0.0740725592237971 -1.92444495074819e-19)
(2.53946476859092 0.0607338145141301 0)
(2.60815619473123 0.0496534083841595 4.92321224746546e-18)
(2.67718543694214 0.0408936328274172 2.1550424118645e-18)
(2.74647837941066 0.0345076310557786 -5.05625860614198e-18)
(2.81595324162042 0.0305388995521549 4.85028282724072e-18)
(2.88552686506455 0.0289286370600579 0)
(2.95513522554457 0.0286936652792366 0)
(3.02474658930012 0.0286936652792367 5.04021336012229e-18)
(3.09435795305567 0.0286936652792366 5.04021336012193e-18)
(3.16396931681121 0.0286936652792366 0)
(3.23358068056676 0.0286936652792366 0)
(3.30319204432231 0.0286936652792366 0)
(3.37280340807785 0.0286936652792367 -2.87377781243037e-16)
(3.4424147718334 0.0286936652792368 -2.89211376906658e-16)
(3.51202613558895 0.0286936652792367 0)
(3.5816374993445 0.0286936652792366 -2.52010668006098e-18)
(3.65124886310004 0.0286936652792366 0)
(3.72086022685559 0.0286936652792366 2.52010668006097e-18)
(3.79047159061114 0.0286936652792366 -2.52010668006097e-18)
(3.86008295436668 0.0286936652792366 0)
(3.92969431812223 0.0286936652792367 4.84745668878478e-18)
(3.99930568187778 0.0286936652792366 1.92756671336874e-19)
(4.06891704563333 0.0286936652792367 0)
(4.13852840938887 0.0286936652792366 0)
(4.20813977314442 0.0286936652792366 0)
(4.27775113689997 0.0286936652792366 -4.84745668878507e-18)
(4.34736250065551 0.0286936652792366 0)
(4.41697386441106 0.0286936652792366 -4.84745668878507e-18)
(4.48658522816661 0.0286936652792369 2.87377781243038e-16)
(4.55619659192215 0.0286936652792367 2.91538726915369e-16)
(4.6258079556777 0.0286936652792366 4.84745668878509e-18)
(4.69541931943325 0.0286936652792366 0)
(4.7650306831888 0.0286936652792366 -5.040213360122e-18)
(4.83464204694434 0.0286936652792366 0)
(4.90425341069989 0.0286936652792367 -7.36756336884648e-18)
(4.97386477445543 0.0286936652792366 0)
(5.04347303728797 0.0289333442214899 -7.36744865060216e-18)
(5.11304630432619 0.0305558547904202 -2.52162836705012e-18)
(5.1825202869425 0.0345395653993975 0)
(5.25181191887098 0.0409403242966425 2.34772783344216e-18)
(5.32083933560912 0.0497145516030477 0)
(5.3895282487557 0.060809013849961 -4.77686396008226e-18)
(5.45780889975384 0.074161453736647 7.63722742263536e-18)
(5.52561881953657 0.0897026942649573 -2.45082485829637e-18)
(5.59290253730294 0.107357614137729 0)
(5.65961263873835 0.127047352028376 0)
(5.72570606097868 0.148689025847374 0)
(5.79114961201468 0.17219532480531 -5.67093614792037e-18)
(5.85594400575088 0.197425771456449 1.93369428447457e-19)
(5.920126185976 0.224155501582762 0)
(5.98376326450011 0.252141651228571 6.04977729290319e-18)
(6.0469318785928 0.281162780880771 0)
(6.1097090120361 0.311013862993057 -3.35332368555672e-18)
(6.17217427368023 0.341504525913212 0)
(6.23440919288218 0.372456001202918 6.59475983498583e-18)
(6.29649719058421 0.403698317646972 9.90417574338545e-18)
(6.3585087852639 0.435090789344728 3.24139764351591e-18)
(6.42046501013379 0.466589561710536 3.87328603455502e-19)
(6.48234496144237 0.498234750468806 -1.93690871954645e-19)
(6.54412108632863 0.53007822915722 1.54450709480109e-18)
(6.60576577335768 0.562170683860053 -1.97705759786951e-18)
(6.66725135638849 0.594561331911212 7.52146057313267e-18)
(6.72854967692844 0.627297384271122 -3.96289362027886e-18)
(6.78963295468243 0.660424227715493 0)
(6.85047551513982 0.693983197079588 2.00359052339359e-18)
(6.91110306327347 0.727926028977983 2.06765935500732e-18)
(6.97165561205754 0.762006262767717 6.580588171817e-18)
(7.03234171363786 0.795856090389543 -6.94461438310637e-18)
(7.09337489156875 0.829089055375787 -2.04208394248497e-18)
(7.15496839555952 0.8612893709924 0)
(7.21733635083894 0.891983358306685 5.20682355365702e-18)
(7.28069704635304 0.920589593920955 0)
(7.34526360612337 0.946392443930847 7.22160270458509e-18)
(7.41118772534093 0.968527888975749 -2.33956843031939e-18)
(7.47847543734865 0.986097069457253 -1.93373165325992e-19)
(7.54686903697152 0.998799638472731 -4.64837475069805e-18)
(7.615954279408 1.00713691516216 -2.32384725958951e-18)
(7.68539147147192 1.01192842060812 -1.92889890628433e-19)
(7.75497139629454 1.01394788989225 -1.92789532357262e-19)
(7.82458295436668 1.01434683263962 0)
(7.89419431812223 1.01434683263962 0)
(0.0347977228101042 1.01878352569478 2.34200223862622e-18)
(0.104393168430313 1.01878352569478 0)
(0.173988822511382 1.01838020075479 4.68313926510503e-18)
(0.243552578469194 1.01635560837851 -4.87329644192805e-18)
(0.31297320624208 1.0115667171208 -1.92493915202942e-19)
(0.382042083047578 1.00324254347916 2.43474579742545e-18)
(0.45041973984322 0.990568264461658 4.49506371882783e-18)
(0.517694338922925 0.973048382181915 0)
(0.583610460163425 0.950987288600678 0)
(0.648175596639357 0.925281082762599 -2.44273061271684e-18)
(0.711542181923378 0.896788620638478 -6.68986918210145e-18)
(0.773921627004489 0.866221848427715 6.59261357878138e-18)
(0.835531294545965 0.834158773345469 2.15598507315671e-18)
(0.896584367122173 0.801070414904101 -2.10710122350382e-18)
(0.957293177883111 0.767370431772043 -2.43531300553291e-18)
(1.01787030963873 0.733443407843254 1.80192969971195e-18)
(1.07852328293946 0.699655207472559 -8.30128141788317e-18)
(1.13939084927195 0.666249991401293 5.61590010787982e-18)
(1.20049811931774 0.633274703912656 0)
(1.26181927622757 0.600688191151943 -3.83355650397695e-19)
(1.32332651858392 0.568445335744491 -3.82247974568659e-18)
(1.38499198680753 0.536499031556217 -5.22005425891549e-18)
(1.44678814080986 0.504800272202585 5.09894323279944e-18)
(1.50868749474518 0.473298591113569 0)
(1.57066262081072 0.441942341742731 -1.75469256701296e-18)
(1.63269282076938 0.410691861368747 0)
(1.69479934293563 0.379591485850058 0)
(1.75705279065967 0.348781579060035 0)
(1.81953606247973 0.318431460530502 -6.48886650120121e-18)
(1.88233010887447 0.28871926391725 2.79506036495726e-18)
(1.94551429968425 0.259834518319405 -1.92026096767786e-19)
(2.00916524392856 0.231981430357511 0)
(2.07335965155645 0.205380364107409 0)
(2.13816383706674 0.180273359855892 0)
(2.2036139065558 0.156884062569573 0)
(2.2697111830941 0.135351476059887 0)
(2.33642211762563 0.115762544623388 2.59469355801743e-18)
(2.40370374533664 0.0981998022371983 1.92392505735345e-19)
(2.47150890141303 0.0827416845872113 -2.3318283061853e-18)
(2.53978225439149 0.0694629803055744 0)
(2.60846187324236 0.0584324494884944 -4.94952243340771e-18)
(2.67747778729978 0.0497121036552088 0)
(2.7467562143666 0.0433548468090684 0)
(2.81621574207372 0.0394039796145033 4.87942578556691e-18)
(2.88577358855226 0.0378009654627115 -1.92747357258482e-19)
(2.95536603850698 0.0375670513895653 4.49123747848399e-18)
(3.02496148412719 0.0375670513895654 4.87675153042322e-18)
(3.0945569297474 0.0375670513895654 -2.43837576521162e-18)
(3.1641523753676 0.0375670513895653 -2.24561873924234e-18)
(3.23374782098781 0.0375670513895655 0)
(3.30334326660802 0.0375670513895655 -7.3151272956348e-18)
(3.37293871222823 0.0375670513895654 2.72693292269357e-16)
(3.44253415784844 0.0375670513895654 2.7401289723155e-16)
(3.51212960346865 0.0375670513895653 -1.9275702596945e-19)
(3.58172504908886 0.0375670513895654 0)
(3.65132049470907 0.0375670513895654 0)
(3.72091594032928 0.0375670513895654 -2.63113279118107e-18)
(3.79051138594948 0.0375670513895653 -2.24561873924234e-18)
(3.86010683156969 0.0375670513895655 7.12237026966489e-18)
(3.9297022771899 0.0375670513895652 -7.12237026966496e-18)
(3.99929772281011 0.0375670513895653 2.24561873924217e-18)
(4.06889316843032 0.0375670513895654 0)
(4.13848861405053 0.0375670513895653 0)
(4.20808405967073 0.0375670513895654 0)
(4.27767950529094 0.0375670513895654 0)
(4.34727495091115 0.0375670513895654 2.43837576521163e-18)
(4.41687039653136 0.0375670513895654 0)
(4.48646584215157 0.0375670513895653 -2.72693292269343e-16)
(4.55606128777178 0.0375670513895655 -2.71960035518273e-16)
(4.62565673339199 0.0375670513895654 0)
(4.6952521790122 0.0375670513895654 0)
(4.76484762463241 0.0375670513895653 0)