/*--------------------------------*- C++ -*----------------------------------*\
  =========                 |
  \\      /  F ield         | OpenFOAM: The Open Source CFD Toolbox
   \\    /   O peration     | Website:  https://openfoam.org
    \\  /    A nd           | Version:  7
     \\/     M anipulation  |
\*---------------------------------------------------------------------------*/
FoamFile
{
    version     2.0;
    format      ascii;
    class       volScalarField;
    location    "0";
    object      Cx;
}
// * * * * * * * * * * * * * * * * * * * * * * * * * * * * * * * * * * * * * //

dimensions      [0 1 0 0 0 0 0];

internalField   nonuniform List<scalar> 
15600
(
0.0348279109254663
0.104483732776399
0.17413968907306
0.243763044217246
0.313240756270474
0.382360607149361
0.450777325896757
0.518072066106625
0.583985131179568
0.648524146584616
0.711844138843792
0.774160126900126
0.835693183976665
0.896660138028012
0.957276957019556
1.01775986501386
1.07831993765983
1.13909828815448
1.20012044556528
1.26136015051978
1.32278912530299
1.38437903295888
1.44610186149249
1.50792965405617
1.56983451281748
1.63179538642351
1.69383389613797
1.75602185868053
1.8184435942011
1.88118144152406
1.94431613191774
2.00792558868569
2.0720878377928
2.13687033207829
2.20230979327368
2.26840756177647
2.33512951343999
2.40243194641794
2.47026688737958
2.53857805582994
2.60730245879033
2.67636892547644
2.74570240831273
2.81522009857641
2.88483778584015
2.95449058316148
3.02414640501241
3.09380222686334
3.16345804871427
3.23311387056521
3.30276969241614
3.37242551426707
3.44208133611801
3.51173715796894
3.58139297981987
3.6510488016708
3.72070462352173
3.79036044537267
3.86001626722361
3.92967208907454
3.99932791092548
4.06898373277641
4.13863955462734
4.20829537647827
4.27795119832921
4.34760702018014
4.41726284203107
4.486918663882
4.55657448573294
4.62623030758387
4.6958861294348
4.76554195128573
4.83519777313666
4.9048535949876
4.97450941683853
5.04416211561544
5.11377944219305
5.18329624180125
5.25262839761866
5.32169301587658
5.39041487424481
5.45872333710736
5.52655515017139
5.59385414523166
5.66057231213692
5.7266660465538
5.79210173936358
5.85688010948406
5.92103856259297
5.98464505492938
6.04777718755052
6.11051291236701
6.17293283920363
6.23511952242183
6.29715743160046
6.35911797363786
6.42102245241882
6.48284970273768
6.5445718256125
6.60616086276803
6.66758880055413
6.72882712677617
6.78984771228863
6.85062455994989
6.91118368880858
6.97166685898294
7.03228524162471
7.09325504127642
7.15479218361129
7.21711347787471
7.2804399446185
7.34498737421058
7.41090935312413
7.47821199393126
7.54663442799821
7.61575724234859
7.68523648789605
7.75486030461893
7.82451626722361
7.89417208907453
0.0348207661718193
0.104462298515458
0.174103982822319
0.243713232365845
0.313177434032573
0.382285220655147
0.450692694441197
0.517982667763945
0.58389645615505
0.648441653748745
0.71177267338258
0.774103680089747
0.835654868899133
0.896642204997335
0.957280796082052
1.01778600442463
1.07836806427332
1.13916752986895
1.20020983125786
1.26146881380148
1.32291631251225
1.38452410341702
1.4462642862089
1.50810901551432
1.57003050474483
1.63200778612092
1.694062392639
1.75626585384543
1.81870215343113
1.88145330163472
1.9445997075095
2.00821898330171
2.07238884350903
2.13717647155456
2.20261844346451
2.26871609553524
2.33543543972898
2.40273294863618
2.47056084028106
2.53886305878013
2.6075768624907
2.6766313646658
2.7459518172125
2.81545574188921
2.88505926637185
2.95469778101724
3.02433931336088
3.09398084570452
3.16362237804816
3.2332639103918
3.30290544273543
3.37254697507907
3.44218850742271
3.51183003976635
3.58147157210999
3.65111310445363
3.72075463679727
3.7903961691409
3.86003770148455
3.92967923382819
3.99932076617183
4.06896229851547
4.1386038308591
4.20824536320274
4.27788689554638
4.34752842789002
4.41716996023366
4.4868114925773
4.55645302492093
4.62609455726457
4.69573608960821
4.76537762195185
4.83501915429549
4.90466068663912
4.97430221898277
5.04394063537202
5.11354380054427
5.183046838121
5.25236596894537
5.3214186300705
5.39012989934513
5.45842942305342
5.52625419928595
5.59354828399383
5.66026385853662
5.72635749261739
5.79179571118255
5.85657923153835
5.92074531090425
5.9843616341069
6.04750549242761
6.11025452660578
6.17268902473782
6.23489121173322
6.29694522012321
6.35892217125427
6.42084328201315
6.48268747122954
6.54442695116998
6.606033875039
6.6674803408811
6.72873795018686
6.78977868593659
6.85057665468717
6.91115777453857
6.9716632440505
7.03230339258645
7.09329356297861
7.15484882080476
7.21718511262666
7.28052258101668
7.34507615933886
7.41099882617968
7.4782966686455
7.54670983488541
7.6158205730526
7.68528630197187
7.75489601117126
7.82453770148455
7.89417923382818
0.0348133596852608
0.104440079055783
0.17406696854873
0.243661595762712
0.313111792118264
0.382207072535287
0.450604962689057
0.51788999449825
0.583804532703714
0.648356138957269
0.711698589930832
0.774045165466263
0.835615150227319
0.89662361502684
0.957284775780739
1.01781310139925
1.07841795390698
1.13923930811227
1.20030249141284
1.26158145774076
1.32304815896539
1.38467448823527
1.4464326610232
1.50829494751326
1.57023367643615
1.63222796664741
1.69429925964246
1.75651878727424
1.81897018444923
1.88173512078312
1.94489367131047
2.00852312582523
2.07270087594793
2.13749382581613
2.20293840041327
2.26903593178451
2.33575257298728
2.40304497743887
2.47086556152846
2.53915850221225
2.60786131839078
2.6769034177595
2.74621036267904
2.81570001749543
2.88528886037353
2.95491256912744
3.02453928849796
3.09416600786848
3.163792727239
3.23341944660952
3.30304616598005
3.37267288535057
3.44229960472109
3.51192632409161
3.58155304346213
3.65117976283266
3.72080648220318
3.7904332015737
3.86005992094422
3.92968664031475
3.99931335968527
4.06894007905579
4.13856679842631
4.20819351779683
4.27782023716735
4.34744695653788
4.4170736759084
4.48670039527892
4.55632711464944
4.62595383401996
4.69558055339048
4.76520727276101
4.83483399213153
4.90446071150205
4.97408743087257
5.0437110416692
5.11329952666302
5.18278829806519
5.25209392675297
5.32113419272023
5.38983448499109
5.45812474207664
5.52594222369654
5.59323121816969
5.65994410538224
5.72603763544912
5.79147847229326
5.85626733155056
5.92044131654386
5.98406783074487
6.04722384431096
6.10998667541114
6.1724362786276
6.23465453734905
6.29672523471193
6.35871919605022
6.42065754806553
6.4825192967013
6.54427676954798
6.60590223537366
6.66736790800927
6.72864550679519
6.78970713094506
6.85052699451303
6.9111309109523
6.97165949669242
7.03232220847146
7.09333349584436
7.15490753278563
7.21725937157075
7.28060824462959
7.34516819692738
7.4110915768952
7.47838444524101
7.5467880041453
7.61588622374317
7.68533794088088
7.75493302575746
7.82455992094422
7.89418664031474
0.0348056818777734
0.10441704563332
0.174028598335714
0.243608067562024
0.313043745551177
0.382126061623521
0.450514017067508
0.517793926339534
0.583709241826093
0.648267491507
0.71162179258378
0.773984507279539
0.835573976543402
0.896604344050872
0.957288901267542
1.01784119101613
1.07846967114548
1.13931371580508
1.2003985459836
1.261698228161
1.32318483534439
1.38483038209456
1.44660720390527
1.50848769075153
1.5704442909077
1.63245621303799
1.69454480378483
1.75678098640225
1.81924803423519
1.88202726379839
1.94519840387152
2.00883840998385
2.07302433905079
2.13782280569342
2.20327007831943
2.26936748456728
2.3360813237585
2.40336843676144
2.4711814455971
2.53946476859092
2.60815619473123
2.67718543694214
2.74647837941066
2.81595324162042
2.88552686506455
2.95513522554457
3.02474658930012
3.09435795305567
3.16396931681121
3.23358068056676
3.30319204432231
3.37280340807785
3.4424147718334
3.51202613558895
3.5816374993445
3.65124886310004
3.72086022685559
3.79047159061114
3.86008295436668
3.92969431812223
3.99930568187778
4.06891704563333
4.13852840938887
4.20813977314442
4.27775113689997
4.34736250065551
4.41697386441106
4.48658522816661
4.55619659192215
4.6258079556777
4.69541931943325
4.7650306831888
4.83464204694434
4.90425341069989
4.97386477445543
5.04347303728797
5.11304630432619
5.1825202869425
5.25181191887098
5.32083933560912
5.3895282487557
5.45780889975384
5.52561881953657
5.59290253730294
5.65961263873835
5.72570606097868
5.79114961201468
5.85594400575088
5.920126185976
5.98376326450011
6.0469318785928
6.1097090120361
6.17217427368023
6.23440919288218
6.29649719058421
6.3585087852639
6.42046501013379
6.48234496144237
6.54412108632863
6.60576577335768
6.66725135638849
6.72854967692844
6.78963295468243
6.85047551513982
6.91110306327347
6.97165561205754
7.03234171363786
7.09337489156875
7.15496839555952
7.21733635083894
7.28069704635304
7.34526360612337
7.41118772534093
7.47847543734865
7.54686903697152
7.615954279408
7.68539147147192
7.75497139629454
7.82458295436668
7.89419431812223
0.0347977228101042
0.104393168430313
0.173988822511382
0.243552578469194
0.31297320624208
0.382042083047578
0.45041973984322
0.517694338922925
0.583610460163425
0.648175596639357
0.711542181923378
0.773921627004489
0.835531294545965
0.896584367122173
0.957293177883111
1.01787030963873
1.07852328293946
1.13939084927195
1.20049811931774
1.26181927622757
1.32332651858392
1.38499198680753
1.44678814080986
1.50868749474518
1.57066262081072
1.63269282076938
1.69479934293563
1.75705279065967
1.81953606247973
1.88233010887447
1.94551429968425
2.00916524392856
2.07335965155645
2.13816383706674
2.2036139065558
2.2697111830941
2.33642211762563
2.40370374533664
2.47150890141303
2.53978225439149
2.60846187324236
2.67747778729978
2.7467562143666
2.81621574207372
2.88577358855226
2.95536603850698
3.02496148412719
3.0945569297474
3.1641523753676
3.23374782098781
3.30334326660802
3.37293871222823
3.44253415784844
3.51212960346865
3.58172504908886
3.65132049470907
3.72091594032928
3.79051138594948
3.86010683156969
3.9297022771899
3.99929772281011
4.06889316843032
4.13848861405053
4.20808405967073
4.27767950529094
4.34727495091115
4.41687039653136
4.48646584215157
4.55606128777178
4.62565673339199
4.6952521790122
4.76484762463241
4.83444307025261
4.90403851587282
4.97363396149303
5.04322631412142
5.11278380572655
5.18224245780096
5.25151958022796
5.32053367703174
5.38921079420264
5.45748148721302
5.52528356814472
5.59256181590105
5.65926902950591
5.72536233996717
5.79080870462129
5.8556088355782
5.91979951124853
5.9834475410963
6.04662921730876
6.10942117703125
6.17190267071685
6.23415486072157
6.29626079252519
6.35829066650767
6.42026541896764
6.48216423976675
6.54395969997197
6.60562431233393
6.66713053513668
6.72845033652988
6.78955606112369
6.85042214992485
6.91107419545182
6.97165158511701
7.03236193333609
7.09341780374066
7.15503148791636
7.2174161500848
7.28078910114535
7.34536251043874
7.4112873959857
7.47856976276194
7.54695303826467
7.61602482814812
7.6854469630427
7.75501117245481
7.82460683156969
7.8942022771899
0.0347894721788985
0.104368416536696
0.173947589584197
0.243495056651211
0.3129000828747
0.381955028093462
0.450322008969973
0.51759110332771
0.583508059837945
0.648080335391806
0.711459654889602
0.773856443239412
0.835487048980993
0.8965636583796
0.957297611163744
1.01790049496258
1.07857885869215
1.13947080836617
1.20060134031811
1.26194475864345
1.32347339210027
1.38515951157985
1.44697570596918
1.50889461815082
1.57088894878458
1.63293809614248
1.69506320660892
1.75733455191106
1.81983464205016
1.88264404805968
1.94584176769168
2.00950405076217
2.07370724754337
2.13851736141769
2.20397033022435
2.27006747229875
2.33677539576197
2.4040513372366
2.47184835288239
2.54011137061331
2.60877874963833
2.6777808472926
2.74704422721617
2.81648785867343
2.88602935023078
2.95560530681194
3.02518425116974
3.09476319552754
3.16434213988534
3.23392108424313
3.30350002860093
3.37307897295873
3.44265791731653
3.51223686167432
3.58181580603212
3.65139475038991
3.72097369474771
3.79055263910551
3.86013158346331
3.92971052782111
3.99928947217891
4.0688684165367
4.1384473608945
4.20802630525229
4.27760524961009
4.34718419396789
4.41676313832569
4.48634208268348
4.55592102704128
4.62549997139908
4.69507891575688
4.76465786011467
4.83423680447247
4.90381574883027
4.97339469318807
5.04297055277581
5.11251169104841
5.18195445097879
5.25121653237889
5.32021682129974
5.38888171037299
5.45714208060404
5.52493603552291
5.59220861288456
5.65891283286674
5.72500602745143
5.79045530879202
5.8552613871383
5.91946086946474
5.98312025181363
6.04631546864843
6.10912279777945
6.1716211181335
6.23389121162115
6.29601573450534
6.35806455741553
6.42005851618602
6.48197689772088
6.54379240155498
6.6054776691738
6.66700528784445
6.72834735699822
6.78947635072616
6.85036682978408
6.9110442701165
6.97164741065776
7.03238289374155
7.09346228791209
7.15509689153242
7.21749887261247
7.28088452817608
7.34546503791005
7.41139071785796
7.47866754358949
7.54704011676821
7.61609796129201
7.68550448742935
7.75505240573026
7.82463158346331
7.8942105278211
0.0347809193033618
0.104342757910086
0.173904846176391
0.243435427643613
0.312824280787713
0.381864784064657
0.450220697930589
0.51748408591043
0.583401908287347
0.647981584443863
0.711374104647023
0.773788871600618
0.835441182570366
0.896542191014624
0.957302206848549
1.01793178606415
1.07863647034923
1.13955369659892
1.20070834260963
1.26207483785215
1.32362564602883
1.38533317328103
1.44717014219604
1.50910932910042
1.57112356782256
1.63319235667898
1.69533673638985
1.75762663491088
1.82014415947299
1.88296948776425
1.94618123181763
2.00985526908698
2.07406757699164
2.13888383640057
2.20433981073241
2.27043681341421
2.33714161550225
2.40441166243467
2.4722002394402
2.54045254331176
2.60910723412939
2.6780950092448
2.74734279080431
2.8167699436861
2.88629448119454
2.95585334020251
3.02541517880923
3.09497701741596
3.16453885602268
3.2341006946294
3.30366253323613
3.37322437184285
3.44278621044958
3.5123480490563
3.58190988766302
3.65147172626974
3.72103356487647
3.79059540348319
3.86015724208992
3.92971908069664
3.99928091930337
4.06884275791009
4.13840459651682
4.20796643512354
4.27752827373026
4.34709011233699
4.41665195094371
4.48621378955043
4.55577562815716
4.62533746676388
4.69489930537061
4.76446114397733
4.83402298258405
4.90358482119078
4.9731466597975
5.04270542215716
5.11222960802769
5.18165589363884
5.25090238301529
5.31988835822963
5.38854057125332
5.45679024054996
5.52457577177448
5.59184247101597
5.65854358770768
5.72463666216802
5.7900889670389
5.85490121064213
5.919109822236
5.98278097295964
6.04599022644821
6.1088134880135
6.17132925144584
6.23361790427351
6.2957616992844
6.35783016527757
6.41984403394252
6.48178269278077
6.5436189745012
6.60532565404008
6.66687545237267
6.72824060502111
6.7893937203006
6.85030948310275
6.91101324852761
6.97164308327573
7.03240462198856
7.09350840167002
7.15516469107599
7.21758462551046
7.28098345098032
7.3455713212642
7.41149782471285
7.47876890641312
7.54713038520913
7.61617377351361
7.68556411909976
7.75509514949906
7.82465724208992
7.89421908069664
0.0347720531114332
0.1043161593343
0.173860536954816
0.243373614254079
0.312745701852022
0.381771234136216
0.450115675573297
0.517373148131873
0.583291868093168
0.647879215957438
0.711285420446515
0.77371882461319
0.835393635937679
0.896519937236656
0.957306970886877
1.01796422345138
1.07869619249197
1.13963962127334
1.20081926471236
1.26220968224799
1.32378347747023
1.38551319672519
1.44737170119825
1.50933190554847
1.57136678165117
1.63345593153232
1.69562028637689
1.75792941777563
1.82046501543443
1.88330684928645
1.94653313151555
2.0102193535726
2.07444110636539
2.13926373643497
2.20472282639
2.27081968456972
2.33752125093468
2.40478518738805
2.47256501661918
2.54080621414981
2.6094477519529
2.6784206798525
2.74765229163431
2.81706236228277
2.88656932466683
2.95611045976844
3.0256545659913
3.09519867221417
3.16474277843704
3.2342868846599
3.30383099088277
3.37337509710564
3.4429192033285
3.51246330955137
3.58200741577424
3.6515515219971
3.72109562821997
3.79063973444284
3.8601838406657
3.92972794688857
3.99927205311144
4.06881615933431
4.13836026555717
4.20790437178004
4.27744847800291
4.34699258422577
4.41653669044864
4.48608079667151
4.55562490289437
4.62516900911724
4.6947131153401
4.76425722156297
4.83380132778584
4.9033454340087
4.97288954023157
5.04243057904262
5.11193719149596
5.18134639928591
5.25057672545735
5.31954786261177
5.38818693522413
5.45642551157827
5.52420231052181
5.59146291630788
5.6581608160237
5.72425376595605
5.78970920511486
5.85452783982352
5.91874591511418
5.98242926532074
6.04565306966552
6.10849284731603
6.1710266928174
6.23333458486817
6.29549835800059
6.35758718666099
6.41962169457877
6.48158137353803
6.54343919430027
6.60516807014127
6.66674086064256
6.72812994240256
6.78930806287761
6.8502500356426
6.91098109052612
6.97163859736889
7.03242714620546
7.09355620471108
7.15523497431701
7.21767351979025
7.28108599761866
7.34568149809026
7.41160885520537
7.47887398245167
7.54722396044393
7.61625236295522
7.68562593524963
7.75513945909487
7.82468384066571
7.89422794688857
0.0347628621254524
0.104288586376357
0.173814604559261
0.243309536462581
0.312664244343786
0.381674257203674
0.45000680594177
0.517258146377738
0.583177796802905
0.64777309741135
0.711193487481868
0.773646211597741
0.835344347531399
0.896496868237039
0.957311909446016
1.01799784911614
1.07875810243379
1.13972869362337
1.20093425022074
1.26234946639407
1.32394709074553
1.38569981496207
1.44758064390445
1.50956263563177
1.57161890512337
1.63372916191385
1.6959142236402
1.75824329247338
1.820797625299
1.88365656935799
1.94689792233734
2.01059677554457
2.07482831921675
2.13965755331978
2.20511987302904
2.27121658140979
2.33791479351463
2.40517239564151
2.47294315663951
2.54117284096974
2.60980074392383
2.67875828071017
2.74797313036812
2.81736549301166
2.88685423644414
2.95637699836188
3.02590272261279
3.09542844686369
3.1649541711146
3.2344798953655
3.30400561961641
3.37353134386731
3.44305706811822
3.51258279236912
3.58210851662003
3.65163424087093
3.72115996512184
3.79068568937274
3.86021141362365
3.92973713787456
3.99926286212546
4.06878858637636
4.13831431062727
4.20784003487817
4.27736575912908
4.34689148337998
4.41641720763089
4.48594293188179
4.5554686561327
4.6249943803836
4.69452010463451
4.76404582888541
4.83357155313632
4.90309727738722
4.97262300163813
5.04214566763617
5.11163406290765
5.18102556726645
5.25023913812748
5.31919489365994
5.38782034448819
5.45604742153119
5.52381516830257
5.59106945740942
5.65776402229908
5.72385684313826
5.78931553139977
5.85414079133563
5.91836867700336
5.98206467359364
6.0453035618337
6.10816046060117
6.17071305057038
6.23304088663342
6.29522536974494
6.35733530701733
6.41939121026487
6.48137267937441
6.54325282821735
6.60500471347678
6.66660133841811
6.72801522588402
6.78921926756921
6.85018841044583
6.91094775448182
6.97163394713002
7.03245049555097
7.09360575891873
7.15530783224072
7.21776567053
7.28119230084287
7.34579571101764
7.41172395306984
7.47898290773092
7.5473209636099
7.6163338313542
7.68569001590261
7.75518539187835
7.82471141362365
7.89423713787455
0.0347533344473014
0.104260003341904
0.17376698952836
0.243243111317677
0.312579802812809
0.381573727726051
0.449893948099278
0.517138931772718
0.583059546745585
0.647663091429769
0.711098186741183
0.773570938553019
0.83529325354517
0.896472954151775
0.95731702891919
1.01803270658857
1.07882228032033
1.13982102895784
1.20105344798953
1.26249437124828
1.32411669766068
1.38589326957872
1.44779724080189
1.50980181804245
1.57188026462616
1.63401240153455
1.69621892869687
1.75856866533121
1.82114241964733
1.88401910070937
1.9472760765232
2.01098802359446
2.07522971681179
2.14006579686999
2.2055314646452
2.27162801773577
2.33832275270089
2.40557378845346
2.47333514902007
2.54155289838588
2.6101666670054
2.67910824885645
2.74830572234498
2.81767972828824
2.88714958535674
2.95665330102826
3.02615996992286
3.09566663881746
3.16517330771207
3.23467997660667
3.30418664550127
3.37369331439588
3.44319998329048
3.51270665218508
3.58221332107969
3.65171998997429
3.72122665886889
3.79073332776349
3.8602399966581
3.92974666555271
3.99925333444731
4.06876000334191
4.13826667223652
4.20777334113112
4.27728001002572
4.34678667892032
4.41629334781493
4.48580001670953
4.55530668560413
4.62481335449873
4.69432002339334
4.76382669228794
4.83333336118254
4.90284003007714
4.97234669897175
5.04185031910801
5.11131982985006
5.1806929822499
5.24988918400457
5.3188289944407
5.38744032447789
5.45565548095454
5.52341384394386
5.59066158497013
5.65735269286593
5.72344537987929
5.78890743626399
5.85373956412515
5.91797761954997
5.98168672579588
6.04494125049699
6.10781589757719
6.17038791867864
6.23273642936164
6.29494238111991
6.35707420027525
6.41915228262684
6.4811563401244
6.54305963499178
6.60483537257287
6.66645670508047
6.72789630695898
6.78912721942524
6.85012452773536
6.91091319723949
6.97162912653915
7.03247470025203
7.09365712844341
7.15538335916542
7.21786119702353
7.28130249826789
7.34591410790064
7.411843267306
7.47909582325969
7.54742152028193
7.61641828417489
7.68575644401379
7.7552330073114
7.8247399966581
7.8942466655527
0.0347434577430026
0.104230373229008
0.173717630222451
0.243174252829231
0.312492267945856
0.381469515563585
0.449776955946159
0.517015349987726
0.582936964840617
0.647549055604369
0.710999394852787
0.773492908034227
0.835240287835213
0.896448164022857
0.957322335933815
1.01806884099352
1.0788888092332
1.13991674680967
1.20117701232649
1.26264458439758
1.32429251778071
1.3860938110123
1.44802177228659
1.51004976241468
1.57215119850307
1.6343060170629
1.69653479600349
1.75890595756118
1.82149984483349
1.88439491265599
1.94766808361286
2.01139360421245
2.07564581877943
2.14048899557656
2.20595813406326
2.27205452617106
2.33874565661515
2.40598988544478
2.47374150121214
2.54194687839893
2.61054599490065
2.67947103733985
2.74865049811917
2.8180054749032
2.88745575374615
2.95693972545293
3.02642664093893
3.09591355642494
3.16540047191094
3.23488738739695
3.30437430288295
3.37386121836896
3.44334813385496
3.51283504934097
3.58232196482697
3.65180888031298
3.72129579579899
3.79078271128499
3.860269626771
3.92975654225701
3.99924345774301
4.06873037322901
4.13821728871502
4.20770420420102
4.27719111968703
4.34667803517304
4.41616495065904
4.48565186614505
4.55513878163105
4.62462569711705
4.69411261260306
4.76359952808907
4.83308644357507
4.90257335906108
4.97206027454708
5.04154415111713
5.11099408553537
5.180348213691
5.24952641005823
5.31844969128193
5.38704638324095
5.45524918246407
5.5229978179134
5.59023877098061
5.65692629523925
5.72301884352047
5.78848439140868
5.85332363878374
5.91757223651059
5.98129493265491
6.04456566662481
6.10745871218945
6.17005087624205
6.23242081891701
6.29464902578193
6.35680352841841
6.41890460236035
6.48093207572551
6.54285936452482
6.60465982820885
6.66630677339423
6.72777303168064
6.78903179928454
6.85005830481176
6.91087737406299
6.97162412935576
7.03249979164286
7.09371037978561
7.15546165286456
7.21796022293477
7.28141673254986
7.34603684200995
7.41196695237189
7.47921287521226
7.54752576063502
7.61650583074512
7.68582530557718
7.75528236703419
7.824769626771
7.894256542257
0.0347332192267516
0.104199657680255
0.173666462743851
0.243102871857043
0.312401526425399
0.38136148580901
0.449655678030691
0.516887241040211
0.5828098923996
0.647430842309984
0.710896983925535
0.773412019026865
0.83518538183471
0.896422465758191
0.957327837360098
1.01810629910881
1.07895777529757
1.14001597109065
1.20130510319216
1.26280030030078
1.32447477871403
1.38630169887426
1.44825452902635
1.51030678972543
1.57243205749221
1.63461038859959
1.69686223446679
1.75925560580565
1.82187036356288
1.8847844917057
1.94807445107939
2.01181404244293
2.07607716378413
2.14092769729063
2.20640043362695
2.27249665885053
2.33918405272568
2.40642122527149
2.4741627392564
2.54235529103294
2.6109392186656
2.67984711580531
2.74900790401728
2.81834315454908
2.88777313796007
2.9572366424242
3.02670308087771
3.09616951933121
3.16563595778471
3.23510239623822
3.30456883469172
3.37403527314523
3.44350171159873
3.51296815005223
3.58243458850574
3.65190102695924
3.72136746541274
3.79083390386625
3.86030034231975
3.92976678077326
3.99923321922676
4.06869965768026
4.13816609613376
4.20763253458727
4.27709897304077
4.34656541149427
4.41603184994778
4.48549828840128
4.55496472685478
4.62443116530828
4.69389760376179
4.76336404221529
4.8328304806688
4.9022969191223
4.9717633575758
5.04122676731633
5.11065640827404
5.17999081527248
5.24915034666237
5.31805649315962
5.3866380108035
5.45482800008865
5.522566551647
5.589800468089
5.6564842774276
5.72257668189035
5.78804584918186
5.85289247687557
5.91715200309657
5.98088878697461
6.04417632400457
6.10708844204299
6.16970148694163
6.2320936467253
6.29434492396715
6.35652294104792
6.4186478488303
6.48069959585569
6.54265175755582
6.6044778531333
6.66615134926489
6.72764524046266
6.78893288362075
6.84998965594595
6.91084023857734
6.97161894911076
7.03252580220555
7.09376558188191
7.15554281469335
7.21806287645782
7.28153515157086
7.34616407223097
7.41209516838377
7.47933421511779
7.5476338196129
7.61659658439758
7.68589668973694
7.75533353494495
7.82480034231975
7.89426678077325
0.0347226056443661
0.104167816933098
0.173613420854128
0.243028875995487
0.312307460782645
0.381249498613104
0.449529957353101
0.51675443908694
0.582678164920915
0.647308298513485
0.710790821383237
0.77332816681597
0.835128464465025
0.896395826090047
0.95733354031992
1.01814512942595
1.07902926779362
1.14011883025181
1.20143788640692
1.26296172054035
1.32466371640705
1.38651720228636
1.44849581233706
1.51057323271011
1.57272320518033
1.63492591016958
1.69720166797305
1.75961806270252
1.82225445549124
1.88518834218862
1.94849570498615
2.01224988256426
2.07652431022325
2.14138246993274
2.20685893591392
2.27295498813534
2.33963850855607
2.40686836632212
2.4745994084638
2.54277866499553
2.61134684734499
2.68023697110207
2.74937840271604
2.8186932043661
2.88810214886548
2.95754443631339
3.02698964760212
3.09643485889085
3.16588007017958
3.23532528146831
3.30477049275705
3.37421570404578
3.44366091533451
3.51310612662325
3.58255133791198
3.65199654920071
3.72144176048944
3.79088697177817
3.8603321830669
3.92977739435564
3.99922260564437
4.0686678169331
4.13811302822183
4.20755823951057
4.2770034507993
4.34644866208803
4.41589387337676
4.4853390846655
4.55478429595423
4.62422950724296
4.6936747185317
4.76311992982043
4.83256514110916
4.90201035239789
4.97145556368662
5.04089775683919
5.11030636092891
5.1796203243273
5.24876050698724
5.31764889106219
5.38621467850997
5.45439138858939
5.52211948685141
5.58934610889239
5.6560260672185
5.72211832258982
5.78759124186946
5.85244552024031
5.91671637529472
5.98046776297877
6.04377271861222
6.1067046078039
6.16933929847468
6.23175448924495
6.29402968199979
6.35623207492864
6.41838168965572
6.48045859955752
6.54243654532659
6.60428921176987
6.66599023148774
6.72751276787258
6.78883034438232
6.84991849226839
6.91080174270874
6.97161357909803
7.03255276561213
7.09382280619425
7.15562694971993
7.2181692904829
7.28165790863034
7.34629596326961
7.41222808132345
7.47946000005633
7.54774583710264
7.61669066261676
7.68597068890285
7.75538657728265
7.82483218306692
7.89427739435563
0.0347116032561282
0.104134809768385
0.173558435888405
0.242952169453861
0.312209949245685
0.381133409003602
0.449399631162166
0.516616772209424
0.582541611876734
0.647181265575683
0.710680769793034
0.773241242850548
0.835069462043701
0.896368210532008
0.957339452196057
1.0181853822128
1.07910337927215
1.1402254574498
1.20157553386567
1.26312905408334
1.32485957544959
1.38674060022919
1.44874593457269
1.51084943629321
1.57302501847344
1.63525299023215
1.69755353593677
1.75999379747123
1.82265261784553
1.88560698691
1.94893239066776
2.01270168879334
2.07698783694987
2.141853902228
2.20733423447702
2.27343010735387
2.34010961241986
2.40733188744047
2.47505207412152
2.54321754836231
2.61176940863126
2.68064110791399
2.74976247384129
2.81905607750812
2.88844321238048
2.95786350557229
3.02728671208454
3.0967099185968
3.16613312510906
3.23555633162131
3.30497953813357
3.37440274464582
3.44382595115808
3.51324915767034
3.58267236418259
3.65209557069485
3.7215187772071
3.79094198371936
3.86036519023162
3.92978839674388
3.99921160325614
4.06863480976839
4.13805801628065
4.2074812227929
4.27690442930516
4.34632763581741
4.41575084232967
4.48517404884193
4.55459725535419
4.62402046186644
4.6934436683787
4.76286687489095
4.83229008140321
4.90171328791546
4.97113649442772
5.04055669376815
5.10994349034934
5.17923626123967
5.24835638636921
5.31722635733166
5.38577583833869
5.4539387827538
5.5216560447815
5.58887510520233
5.65555107143775
5.72164317225115
5.7871199809604
5.8519821902706
5.91626478916298
5.98003131563036
6.04335432795979
6.10630671257878
6.16896384196927
6.23140290741878
6.29370289178252
6.35593055351907
6.41810578027953
6.48020877484853
6.54221344923354
6.60409365991235
6.66582321148727
6.72737544241761
6.7887240488268
6.84984472165394
6.91076183662227
6.97160801236583
7.03258071676809
7.09388212680246
7.1557141668614
7.21827960276845
7.28178516264358
7.34643268586542
7.41236586325316
7.47959039286222
7.5478619581157
7.61678818719085
7.68604739886989
7.75544156271277
7.82486519023161
7.89428839674387
0.0347001978189976
0.104100593456993
0.173501436666383
0.242872652932388
0.312108865581752
0.38101306669748
0.449264530744739
0.516474062191198
0.582400056492322
0.64704957904595
0.710566686687489
0.773151134603056
0.835008298189061
0.896339583334304
0.957345580641742
1.0182271095787
1.07918020567436
1.14033599071915
1.20171822376035
1.26330251755188
1.32506260939161
1.38697218190323
1.44900521952973
1.5111357580349
1.57333788808483
1.63559205220973
1.6979182938696
1.76038329652016
1.82306536606767
1.88604096782707
1.94938507343612
2.01317004601604
2.07746834402219
2.14234260446827
2.20782694461261
2.27392263156981
2.34059797418218
2.40781238867501
2.47552132222476
2.54367250928637
2.6122074495476
2.68106004941282
2.75016061458878
2.81943224372919