/*--------------------------------*- C++ -*----------------------------------*\
  =========                 |
  \\      /  F ield         | OpenFOAM: The Open Source CFD Toolbox
   \\    /   O peration     | Website:  https://openfoam.org
    \\  /    A nd           | Version:  7
     \\/     M anipulation  |
\*---------------------------------------------------------------------------*/
FoamFile
{
    version     2.0;
    format      ascii;
    class       volSymmTensorField;
    location    "0";
    object      tauij_LES;
}
// * * * * * * * * * * * * * * * * * * * * * * * * * * * * * * * * * * * * * //

dimensions      [0 2 -2 0 0 0 0];

internalField   nonuniform List<symmTensor>
15600
(
(0.00361643 -0.00002735 0.00000000 0.00000328 0.00000000 0.00208622)
(0.00401858 -0.00003341 0.00000000 0.00000444 0.00000000 0.00225722)
(0.00399294 -0.00002697 0.00000000 0.00000119 0.00000000 0.00213358)
(0.00276259 -0.00001501 0.00000000 -0.00000390 0.00000000 0.00121902)
(0.00152349 -0.00016645 0.00000000 0.00003873 0.00000000 0.00211142)
(0.00022564 -0.00014771 0.00000000 0.00010129 0.00000000 0.00108359)
(0.00080963 0.00001415 0.00000000 -0.00002235 0.00000000 0.00113598)
(0.00061112 0.00004156 0.00000000 -0.00001787 0.00000000 0.00128148)
(0.00035612 -0.00031505 0.00000000 0.00021325 0.00000000 0.00157252)
(0.00050073 -0.00039645 0.00000000 0.00025738 0.00000000 0.00147610)
(0.00144685 -0.00091960 0.00000000 0.00061467 0.00000000 0.00294093)
(0.00107464 -0.00087836 0.00000000 0.00064555 0.00000000 0.00222771)
(0.00092142 -0.00039657 0.00000000 0.00021689 0.00000000 0.00090028)
(0.00120131 -0.00092758 0.00000000 0.00067131 0.00000000 0.00185989)
(0.00119775 -0.00080222 0.00000000 0.00053955 0.00000000 0.00259292)
(0.00249326 -0.00154569 0.00000000 0.00098533 0.00000000 0.00405626)
(0.00154005 -0.00099042 0.00000000 0.00064854 0.00000000 0.00287764)
(0.00187444 -0.00118081 0.00000000 0.00076774 0.00000000 0.00294680)
(0.00153639 -0.00094799 0.00000000 0.00059854 0.00000000 0.00268000)
(0.00125005 -0.00073772 0.00000000 0.00044800 0.00000000 0.00244294)
(0.00137499 -0.00083187 0.00000000 0.00050886 0.00000000 0.00236683)
(0.00156776 -0.00095147 0.00000000 0.00058602 0.00000000 0.00230787)
(0.00216605 -0.00127265 0.00000000 0.00076437 0.00000000 0.00276275)
(0.00131141 -0.00079500 0.00000000 0.00048376 0.00000000 0.00163189)
(0.00095736 -0.00058920 0.00000000 0.00036006 0.00000000 0.00120760)
(0.00057083 -0.00033500 0.00000000 0.00019690 0.00000000 0.00066710)
(0.00133764 -0.00038837 0.00000000 0.00011605 0.00000000 0.00183168)
(0.00177338 -0.00088109 0.00000000 0.00045774 0.00000000 0.00274894)
(0.00170927 -0.00085937 0.00000000 0.00045188 0.00000000 0.00239692)
(0.00131866 -0.00070314 0.00000000 0.00038452 0.00000000 0.00181237)
(0.00124599 -0.00062866 0.00000000 0.00032332 0.00000000 0.00192735)
(0.00163218 -0.00070750 0.00000000 0.00033511 0.00000000 0.00263318)
(0.00150115 -0.00033306 0.00000000 0.00008529 0.00000000 0.00160365)
(0.00100444 -0.00016774 0.00000000 0.00001735 0.00000000 0.00117318)
(0.00131614 -0.00025805 0.00000000 0.00004915 0.00000000 0.00170515)
(0.00116166 -0.00033059 0.00000000 0.00011359 0.00000000 0.00155781)
(0.00188271 -0.00052467 0.00000000 0.00018104 0.00000000 0.00286364)
(0.00136504 -0.00041406 0.00000000 0.00012906 0.00000000 0.00158609)
(0.00160862 -0.00011896 0.00000000 0.00001986 0.00000000 0.00202305)
(0.00238031 -0.00059484 0.00000000 0.00016697 0.00000000 0.00313569)
(0.00241842 -0.00019309 0.00000000 0.00004176 0.00000000 0.00282089)
(0.00271938 -0.00083633 0.00000000 0.00025392 0.00000000 0.00386322)
(0.00306751 -0.00097204 0.00000000 0.00031032 0.00000000 0.00450641)
(0.00328888 -0.00000292 0.00000000 0.00001253 0.00000000 0.00418284)
(0.00249463 0.00000638 0.00000000 -0.00000571 0.00000000 0.00298545)
(0.00251291 0.00000573 0.00000000 -0.00000654 0.00000000 0.00298480)
(0.00270117 0.00000530 0.00000000 0.00000089 0.00000000 0.00326192)
(0.00261273 0.00000522 0.00000000 -0.00000614 0.00000000 0.00325348)
(0.00266108 0.00000324 0.00000000 -0.00000632 0.00000000 0.00334015)
(0.00271573 0.00000370 0.00000000 -0.00000749 0.00000000 0.00338242)
(0.00274832 0.00000298 0.00000000 -0.00000593 0.00000000 0.00346977)
(0.00287293 0.00000049 0.00000000 -0.00000001 0.00000000 0.00362995)
(0.00277237 0.00000364 0.00000000 -0.00000687 0.00000000 0.00351243)
(0.00272954 0.00000214 0.00000000 -0.00000843 0.00000000 0.00346434)
(0.00277695 0.00000056 0.00000000 -0.00000694 0.00000000 0.00345961)
(0.00277386 0.00000212 0.00000000 -0.00000808 0.00000000 0.00344194)
(0.00280798 -0.00000072 0.00000000 -0.00000567 0.00000000 0.00347695)
(0.00289741 -0.00000271 0.00000000 -0.00000060 0.00000000 0.00352299)
(0.00273049 0.00000095 0.00000000 -0.00000829 0.00000000 0.00333754)
(0.00265395 0.00000022 0.00000000 -0.00000687 0.00000000 0.00329848)
(0.00264359 -0.00000074 0.00000000 -0.00000687 0.00000000 0.00322850)
(0.00258909 -0.00000014 0.00000000 -0.00000768 0.00000000 0.00313648)
(0.00259501 -0.00000151 0.00000000 -0.00000481 0.00000000 0.00310963)
(0.00255525 -0.00000359 0.00000000 -0.00000228 0.00000000 0.00309440)
(0.00242347 -0.00000223 0.00000000 -0.00000461 0.00000000 0.00294444)
(0.00238080 -0.00000190 0.00000000 -0.00000561 0.00000000 0.00285289)
(0.00233475 -0.00000095 0.00000000 -0.00000605 0.00000000 0.00276888)
(0.00228054 -0.00000077 0.00000000 -0.00000542 0.00000000 0.00271276)
(0.00228133 -0.00000390 0.00000000 -0.00000095 0.00000000 0.00275558)
(0.00206788 -0.00000130 0.00000000 -0.00000559 0.00000000 0.00256869)
(0.00199920 -0.00000123 0.00000000 -0.00000500 0.00000000 0.00251687)
(0.00197481 -0.00000211 0.00000000 -0.00000393 0.00000000 0.00248283)
(0.00194419 -0.00000173 0.00000000 -0.00000330 0.00000000 0.00248195)
(0.00180988 -0.00000145 0.00000000 -0.00000361 0.00000000 0.00242394)
(0.00168024 -0.00000029 0.00000000 -0.00000484 0.00000000 0.00234071)
(0.00169388 -0.00000089 0.00000000 -0.00000320 0.00000000 0.00247023)
(0.00231118 -0.00000477 0.00000000 0.00000743 0.00000000 0.00377617)
(0.00169658 0.00009817 0.00000000 0.00000203 0.00000000 0.00205084)
(0.00141189 0.00005464 0.00000000 -0.00000170 0.00000000 0.00183561)
(0.00105364 0.00008133 0.00000000 0.00003692 0.00000000 0.00334421)
(0.00126157 0.00007258 0.00000000 0.00000272 0.00000000 0.00242368)
(0.00065826 0.00012597 0.00000000 0.00005132 0.00000000 0.00264300)
(0.00055315 -0.00001125 0.00000000 -0.00001844 0.00000000 0.00102237)
(0.00084654 0.00030222 0.00000000 0.00010841 0.00000000 0.00243329)
(0.00025404 -0.00002865 0.00000000 -0.00003314 0.00000000 0.00094541)
(0.00018513 0.00011526 0.00000000 0.00005695 0.00000000 0.00158770)
(-0.00013042 0.00000818 0.00000000 0.00001809 0.00000000 0.00092963)
(0.00012152 0.00006221 0.00000000 0.00002972 0.00000000 0.00166731)
(0.00019409 0.00011539 0.00000000 0.00006346 0.00000000 0.00088767)
(-0.00001273 0.00000380 0.00000000 0.00000585 0.00000000 0.00009080)
(0.00008620 0.00004874 0.00000000 0.00002646 0.00000000 0.00029369)
(-0.00002954 0.00001077 0.00000000 0.00001209 0.00000000 0.00010976)
(0.00006138 0.00005625 0.00000000 0.00003691 0.00000000 0.00056627)
(0.00012142 0.00004741 0.00000000 0.00002155 0.00000000 0.00172450)
(-0.00029339 -0.00013416 0.00000000 -0.00006626 0.00000000 -0.00055552)
(-0.00026012 -0.00007579 0.00000000 -0.00002982 0.00000000 -0.00054493)
(-0.00009826 -0.00005316 0.00000000 -0.00002939 0.00000000 -0.00026711)
(0.00003772 0.00006146 0.00000000 0.00004929 0.00000000 0.00026263)
(-0.00001762 -0.00000275 0.00000000 0.00000072 0.00000000 -0.00003416)
(0.00005738 0.00003557 0.00000000 0.00002134 0.00000000 0.00026839)
(0.00000174 0.00000588 0.00000000 0.00000507 0.00000000 0.00009448)
(0.00008215 0.00004503 0.00000000 0.00002525 0.00000000 0.00030926)
(0.00004812 0.00002695 0.00000000 0.00001511 0.00000000 0.00020743)
(0.00004097 0.00002239 0.00000000 0.00001330 0.00000000 0.00015496)
(0.00001315 0.00000873 0.00000000 0.00000521 0.00000000 0.00009597)
(-0.00003816 -0.00002387 0.00000000 -0.00001496 0.00000000 -0.00020089)
(-0.00009135 -0.00003650 0.00000000 -0.00001387 0.00000000 -0.00027138)
(0.00016323 -0.00004061 0.00000000 -0.00007879 0.00000000 0.00027726)
(-0.00025117 -0.00013672 0.00000000 -0.00007035 0.00000000 -0.00079819)
(-0.00050085 -0.00003967 0.00000000 0.00004853 0.00000000 -0.00045860)
(0.00027989 0.00000291 0.00000000 -0.00003256 0.00000000 0.00022634)
(0.00029202 0.00000764 0.00000000 -0.00002282 0.00000000 0.00026129)
(-0.00073580 0.00005671 0.00000000 0.00016239 0.00000000 0.00030275)
(0.00007292 -0.00005967 0.00000000 0.00000389 0.00000000 0.00129281)
(0.00011973 -0.00000391 0.00000000 -0.00000721 0.00000000 0.00002095)
(0.00115001 -0.00014237 0.00000000 0.00005150 0.00000000 0.00278121)
(0.00148335 0.00000664 0.00000000 0.00000005 0.00000000 0.00087784)
(0.00261445 -0.00001006 0.00000000 0.00000217 0.00000000 0.00156827)
(0.00327392 -0.00002689 0.00000000 0.00000421 0.00000000 0.00187177)
(0.00327879 -0.00002312 0.00000000 0.00000243 0.00000000 0.00192079)
(0.01007577 -0.00018410 0.00000000 0.00005445 0.00000000 0.00495877)
(0.01108691 -0.00022680 0.00000000 0.00006900 0.00000000 0.00542523)
(0.01081161 -0.00022408 0.00000000 0.00006387 0.00000000 0.00519732)
(0.00845403 -0.00014018 0.00000000 0.00002523 0.00000000 0.00357367)
(0.00635315 -0.00085817 0.00000000 0.00020901 0.00000000 0.00424129)
(0.00429963 -0.00099888 0.00000000 0.00030410 0.00000000 0.00263330)
(0.00310956 -0.00029474 0.00000000 0.00007333 0.00000000 0.00301743)
(0.00209656 -0.00021160 0.00000000 0.00008660 0.00000000 0.00342447)
(0.00261433 -0.00131656 0.00000000 0.00072416 0.00000000 0.00444020)
(0.00354116 -0.00167643 0.00000000 0.00081122 0.00000000 0.00457550)
(0.00406782 -0.00253827 0.00000000 0.00173018 0.00000000 0.00641128)
(0.00431371 -0.00290001 0.00000000 0.00205781 0.00000000 0.00686247)
(0.00488043 -0.00184598 0.00000000 0.00094582 0.00000000 0.00480974)
(0.00498371 -0.00342674 0.00000000 0.00246472 0.00000000 0.00697608)
(0.00522171 -0.00312057 0.00000000 0.00202379 0.00000000 0.00785622)
(0.00569053 -0.00349634 0.00000000 0.00236491 0.00000000 0.00850676)
(0.00583286 -0.00337787 0.00000000 0.00215161 0.00000000 0.00843363)
(0.00595401 -0.00357984 0.00000000 0.00237247 0.00000000 0.00816830)
(0.00580191 -0.00325888 0.00000000 0.00204804 0.00000000 0.00802072)
(0.00576029 -0.00308186 0.00000000 0.00182329 0.00000000 0.00798230)
(0.00588436 -0.00327565 0.00000000 0.00199290 0.00000000 0.00793898)
(0.00624543 -0.00353275 0.00000000 0.00218397 0.00000000 0.00780434)
(0.00619644 -0.00354313 0.00000000 0.00220792 0.00000000 0.00726457)
(0.00626555 -0.00360128 0.00000000 0.00222291 0.00000000 0.00682763)
(0.00510368 -0.00282721 0.00000000 0.00172933 0.00000000 0.00534093)
(0.00570882 -0.00330804 0.00000000 0.00199757 0.00000000 0.00488788)
(0.00607013 -0.00251442 0.00000000 0.00122299 0.00000000 0.00676945)
(0.00589691 -0.00282792 0.00000000 0.00154587 0.00000000 0.00727943)
(0.00584456 -0.00286085 0.00000000 0.00157797 0.00000000 0.00685339)
(0.00594272 -0.00295104 0.00000000 0.00162968 0.00000000 0.00684938)
(0.00584174 -0.00271923 0.00000000 0.00143122 0.00000000 0.00696307)
(0.00622651 -0.00267610 0.00000000 0.00135746 0.00000000 0.00770064)
(0.00665936 -0.00231422 0.00000000 0.00101092 0.00000000 0.00727381)
(0.00625212 -0.00204138 0.00000000 0.00082241 0.00000000 0.00677366)
(0.00655184 -0.00208924 0.00000000 0.00085662 0.00000000 0.00761139)
(0.00699082 -0.00195660 0.00000000 0.00074377 0.00000000 0.00736900)
(0.00719902 -0.00205117 0.00000000 0.00085175 0.00000000 0.00881870)
(0.00793310 -0.00195800 0.00000000 0.00067828 0.00000000 0.00796438)
(0.00827921 -0.00140301 0.00000000 0.00050273 0.00000000 0.00955066)
(0.00887200 -0.00170436 0.00000000 0.00064347 0.00000000 0.01058254)
(0.00914426 -0.00127914 0.00000000 0.00053510 0.00000000 0.01127602)
(0.00951774 -0.00146647 0.00000000 0.00059887 0.00000000 0.01205019)
(0.00987998 -0.00141561 0.00000000 0.00064312 0.00000000 0.01315241)
(0.00992866 -0.00008794 0.00000000 0.00038889 0.00000000 0.01314108)
(0.00953306 -0.00004981 0.00000000 0.00029231 0.00000000 0.01207575)
(0.00992394 -0.00004500 0.00000000 0.00028691 0.00000000 0.01249053)
(0.01038336 -0.00003420 0.00000000 0.00029130 0.00000000 0.01321861)
(0.01041558 -0.00004577 0.00000000 0.00029819 0.00000000 0.01355276)
(0.01070368 -0.00008055 0.00000000 0.00030472 0.00000000 0.01390892)
(0.01104410 -0.00007506 0.00000000 0.00030219 0.00000000 0.01422368)
(0.01119350 -0.00009031 0.00000000 0.00030739 0.00000000 0.01451745)
(0.01145595 -0.00009666 0.00000000 0.00030754 0.00000000 0.01478880)
(0.01147252 -0.00009442 0.00000000 0.00031390 0.00000000 0.01471126)
(0.01158408 -0.00011933 0.00000000 0.00030574 0.00000000 0.01472093)
(0.01186062 -0.00013111 0.00000000 0.00029617 0.00000000 0.01472110)
(0.01193009 -0.00012059 0.00000000 0.00030032 0.00000000 0.01470930)
(0.01205727 -0.00014261 0.00000000 0.00029063 0.00000000 0.01466329)
(0.01215838 -0.00014115 0.00000000 0.00029178 0.00000000 0.01456333)
(0.01208145 -0.00013859 0.00000000 0.00028501 0.00000000 0.01447649)
(0.01187445 -0.00014190 0.00000000 0.00027750 0.00000000 0.01430090)
(0.01184947 -0.00015772 0.00000000 0.00026738 0.00000000 0.01404330)
(0.01176894 -0.00015402 0.00000000 0.00026596 0.00000000 0.01370737)
(0.01168711 -0.00015141 0.00000000 0.00025755 0.00000000 0.01346282)
(0.01146681 -0.00015498 0.00000000 0.00024728 0.00000000 0.01323085)
(0.01124739 -0.00015654 0.00000000 0.00023487 0.00000000 0.01293275)
(0.01113136 -0.00016306 0.00000000 0.00023192 0.00000000 0.01260487)
(0.01099184 -0.00016130 0.00000000 0.00022760 0.00000000 0.01230119)
(0.01076686 -0.00014888 0.00000000 0.00021689 0.00000000 0.01205561)
(0.01043519 -0.00014374 0.00000000 0.00020794 0.00000000 0.01185648)
(0.01007729 -0.00015423 0.00000000 0.00020091 0.00000000 0.01154785)
(0.00980093 -0.00015018 0.00000000 0.00019454 0.00000000 0.01129584)
(0.00955861 -0.00015227 0.00000000 0.00019027 0.00000000 0.01112422)
(0.00924817 -0.00013632 0.00000000 0.00018646 0.00000000 0.01105069)
(0.00874020 -0.00013983 0.00000000 0.00018043 0.00000000 0.01089583)
(0.00826536 -0.00013274 0.00000000 0.00017310 0.00000000 0.01074785)
(0.00789927 -0.00012155 0.00000000 0.00017245 0.00000000 0.01086830)
(0.00817726 -0.00006689 0.00000000 0.00023589 0.00000000 0.01278219)
(0.00848856 0.00064435 0.00000000 0.00027387 0.00000000 0.01243722)
(0.00832619 0.00066799 0.00000000 0.00024907 0.00000000 0.01258250)
(0.00703095 0.00103593 0.00000000 0.00035910 0.00000000 0.01369205)
(0.00738080 0.00089390 0.00000000 0.00027732 0.00000000 0.01453400)
(0.00595589 0.00131691 0.00000000 0.00047164 0.00000000 0.01326978)
(0.00605803 0.00081044 0.00000000 0.00020870 0.00000000 0.01201820)
(0.00607297 0.00155041 0.00000000 0.00053659 0.00000000 0.01390834)
(0.00483517 0.00136511 0.00000000 0.00048150 0.00000000 0.01142309)
(0.00421487 0.00162165 0.00000000 0.00072033 0.00000000 0.01154667)
(0.00374975 0.00132660 0.00000000 0.00054277 0.00000000 0.01100363)
(0.00444235 0.00149504 0.00000000 0.00059728 0.00000000 0.01342508)
(0.00366760 0.00167511 0.00000000 0.00084749 0.00000000 0.01040987)
(0.00325562 0.00167012 0.00000000 0.00088858 0.00000000 0.00888105)
(0.00284269 0.00147861 0.00000000 0.00080570 0.00000000 0.00772564)
(0.00263917 0.00136466 0.00000000 0.00073440 0.00000000 0.00796939)
(0.00325774 0.00163423 0.00000000 0.00086810 0.00000000 0.01059591)
(0.00269543 0.00109223 0.00000000 0.00050170 0.00000000 0.01008848)
(0.00185183 0.00049437 0.00000000 0.00010189 0.00000000 0.00365590)
(0.00275325 0.00155322 0.00000000 0.00089215 0.00000000 0.00581500)
(0.00151793 0.00090253 0.00000000 0.00053485 0.00000000 0.00415058)
(0.00269662 0.00153108 0.00000000 0.00089027 0.00000000 0.00770205)
(0.00136127 0.00084049 0.00000000 0.00051109 0.00000000 0.00490885)
(0.00214626 0.00115411 0.00000000 0.00063629 0.00000000 0.00770617)
(0.00089237 0.00055456 0.00000000 0.00034003 0.00000000 0.00443945)
(0.00151123 0.00089711 0.00000000 0.00052759 0.00000000 0.00582535)
(0.00126564 0.00075414 0.00000000 0.00046285 0.00000000 0.00505601)
(0.00072689 0.00052126 0.00000000 0.00035032 0.00000000 0.00371383)
(0.00168491 0.00096020 0.00000000 0.00055420 0.00000000 0.00636041)
(0.00050946 0.00034932 0.00000000 0.00023738 0.00000000 0.00278987)
(0.00053672 0.00047935 0.00000000 0.00036426 0.00000000 0.00147701)
(0.00047475 0.00015003 0.00000000 0.00003721 0.00000000 0.00240150)
(0.00085222 0.00074390 0.00000000 0.00056730 0.00000000 0.00255796)
(0.00144319 0.00057654 0.00000000 0.00026265 0.00000000 0.00303286)
(0.00232623 0.00029153 0.00000000 -0.00001716 0.00000000 0.00382673)
(0.00344097 0.00055434 0.00000000 0.00006241 0.00000000 0.00462654)
(0.00180534 0.00084453 0.00000000 0.00043681 0.00000000 0.00326749)
(0.00415265 0.00043753 0.00000000 0.00010709 0.00000000 0.00513075)
(0.00659316 0.00078473 0.00000000 0.00009483 0.00000000 0.00277292)
(0.00731631 0.00014556 0.00000000 0.00008633 0.00000000 0.00617382)
(0.00618686 0.00007642 0.00000000 0.00001595 0.00000000 0.00300069)
(0.00865251 -0.00009240 0.00000000 0.00002903 0.00000000 0.00409335)
(0.00952718 -0.00014509 0.00000000 0.00003998 0.00000000 0.00450545)
(0.00969882 -0.00016555 0.00000000 0.00004697 0.00000000 0.00468029)
(0.02044388 -0.00051878 0.00000000 0.00017410 0.00000000 0.00905792)
(0.02131413 -0.00059941 0.00000000 0.00020670 0.00000000 0.00958653)
(0.02143847 -0.00065364 0.00000000 0.00022035 0.00000000 0.00956625)
(0.01898490 -0.00060511 0.00000000 0.00016103 0.00000000 0.00770280)
(0.01487246 -0.00195541 0.00000000 0.00048931 0.00000000 0.00703828)
(0.01185195 -0.00224034 0.00000000 0.00059975 0.00000000 0.00494883)
(0.00801624 -0.00119289 0.00000000 0.00038975 0.00000000 0.00591010)
(0.00494067 -0.00097038 0.00000000 0.00042646 0.00000000 0.00651593)
(0.00525531 -0.00229011 0.00000000 0.00135877 0.00000000 0.00775440)
(0.00665228 -0.00266108 0.00000000 0.00147602 0.00000000 0.00844278)
(0.00834863 -0.00496701 0.00000000 0.00345056 0.00000000 0.01150245)
(0.00856862 -0.00532273 0.00000000 0.00388175 0.00000000 0.01255520)
(0.00988016 -0.00451253 0.00000000 0.00283210 0.00000000 0.01077659)
(0.00888532 -0.00559736 0.00000000 0.00421297 0.00000000 0.01214268)
(0.01006825 -0.00569455 0.00000000 0.00385048 0.00000000 0.01394017)
(0.00995586 -0.00597800 0.00000000 0.00428282 0.00000000 0.01417881)
(0.00946222 -0.00534019 0.00000000 0.00368240 0.00000000 0.01286285)
(0.01043778 -0.00607321 0.00000000 0.00421183 0.00000000 0.01385654)
(0.01030753 -0.00566248 0.00000000 0.00377853 0.00000000 0.01323306)
(0.00994660 -0.00521405 0.00000000 0.00333740 0.00000000 0.01258866)
(0.01004137 -0.00543442 0.00000000 0.00354869 0.00000000 0.01251035)
(0.00997589 -0.00538193 0.00000000 0.00354592 0.00000000 0.01188435)
(0.01062956 -0.00577067 0.00000000 0.00379275 0.00000000 0.01180604)
(0.01069315 -0.00556623 0.00000000 0.00354502 0.00000000 0.01144553)
(0.01083788 -0.00582983 0.00000000 0.00370352 0.00000000 0.01042086)
(0.01119536 -0.00561139 0.00000000 0.00338447 0.00000000 0.00992649)
(0.01063985 -0.00485099 0.00000000 0.00283162 0.00000000 0.01056045)
(0.01007871 -0.00480122 0.00000000 0.00290156 0.00000000 0.01094362)
(0.01017171 -0.00483458 0.00000000 0.00288359 0.00000000 0.01080994)
(0.00986997 -0.00466688 0.00000000 0.00279283 0.00000000 0.01060043)
(0.01024474 -0.00465568 0.00000000 0.00271236 0.00000000 0.01094274)
(0.01035076 -0.00439703 0.00000000 0.00253368 0.00000000 0.01146216)
(0.01095948 -0.00404298 0.00000000 0.00219652 0.00000000 0.01153857)
(0.01077980 -0.00383791 0.00000000 0.00200866 0.00000000 0.01118003)
(0.01105056 -0.00366178 0.00000000 0.00191418 0.00000000 0.01219859)
(0.01163383 -0.00341502 0.00000000 0.00173739 0.00000000 0.01238631)
(0.01171891 -0.00306634 0.00000000 0.00168876 0.00000000 0.01380658)
(0.01250932 -0.00287738 0.00000000 0.00151897 0.00000000 0.01351807)
(0.01262675 -0.00258915 0.00000000 0.00146232 0.00000000 0.01480583)
(0.01291872 -0.00225280 0.00000000 0.00145779 0.00000000 0.01603555)
(0.01337507 -0.00204152 0.00000000 0.00144217 0.00000000 0.01694116)
(0.01383647 -0.00173744 0.00000000 0.00142795 0.00000000 0.01808495)
(0.01409396 -0.00157059 0.00000000 0.00146812 0.00000000 0.01940016)
(0.01460072 -0.00042680 0.00000000 0.00127835 0.00000000 0.01980899)
(0.01521698 -0.00029496 0.00000000 0.00114021 0.00000000 0.01991843)
(0.01598905 -0.00027828 0.00000000 0.00115236 0.00000000 0.02078833)
(0.01649974 -0.00026107 0.00000000 0.00119702 0.00000000 0.02174422)
(0.01676376 -0.00027683 0.00000000 0.00121186 0.00000000 0.02240562)
(0.01732554 -0.00035938 0.00000000 0.00122306 0.00000000 0.02300277)
(0.01793500 -0.00033938 0.00000000 0.00122027 0.00000000 0.02357440)
(0.01829612 -0.00038419 0.00000000 0.00125246 0.00000000 0.02400292)
(0.01872204 -0.00039825 0.00000000 0.00126155 0.00000000 0.02439890)
(0.01907346 -0.00039649 0.00000000 0.00125365 0.00000000 0.02448932)
(0.01942066 -0.00044222 0.00000000 0.00123293 0.00000000 0.02458278)
(0.01988436 -0.00046192 0.00000000 0.00121395 0.00000000 0.02462761)
(0.02015022 -0.00043827 0.00000000 0.00121226 0.00000000 0.02467323)
(0.02037371 -0.00048035 0.00000000 0.00120379 0.00000000 0.02446872)
(0.02058314 -0.00047705 0.00000000 0.00119963 0.00000000 0.02437330)
(0.02059343 -0.00046130 0.00000000 0.00117895 0.00000000 0.02431702)
(0.02051283 -0.00047128 0.00000000 0.00115182 0.00000000 0.02415731)
(0.02059871 -0.00050316 0.00000000 0.00111127 0.00000000 0.02390486)
(0.02063809 -0.00048724 0.00000000 0.00108807 0.00000000 0.02349127)
(0.02057703 -0.00047938 0.00000000 0.00106416 0.00000000 0.02310471)
(0.02030848 -0.00047855 0.00000000 0.00102895 0.00000000 0.02269939)
(0.02000799 -0.00047963 0.00000000 0.00099235 0.00000000 0.02224787)
(0.01986517 -0.00049656 0.00000000 0.00097850 0.00000000 0.02174687)
(0.01976129 -0.00048929 0.00000000 0.00094748 0.00000000 0.02138496)
(0.01936409 -0.00045881 0.00000000 0.00092311 0.00000000 0.02090381)
(0.01886229 -0.00044881 0.00000000 0.00090156 0.00000000 0.02047663)
(0.01847886 -0.00046570 0.00000000 0.00086034 0.00000000 0.02007653)
(0.01811467 -0.00045480 0.00000000 0.00083347 0.00000000 0.01969439)
(0.01769634 -0.00045655 0.00000000 0.00082009 0.00000000 0.01948044)
(0.01715970 -0.00042118 0.00000000 0.00080211 0.00000000 0.01941104)
(0.01639076 -0.00043191 0.00000000 0.00077801 0.00000000 0.01920903)
(0.01557971 -0.00041182 0.00000000 0.00074986 0.00000000 0.01903177)
(0.01473779 -0.00038302 0.00000000 0.00072568 0.00000000 0.01908707)
(0.01412600 -0.00023690 0.00000000 0.00083118 0.00000000 0.02058511)
(0.01424669 0.00061993 0.00000000 0.00087085 0.00000000 0.02149795)
(0.01396673 0.00090882 0.00000000 0.00086095 0.00000000 0.02197378)
(0.01361575 0.00154829 0.00000000 0.00093659 0.00000000 0.02296684)
(0.01317006 0.00173110 0.00000000 0.00098715 0.00000000 0.02380702)
(0.01293039 0.00229932 0.00000000 0.00108888 0.00000000 0.02379241)
(0.01280520 0.00224579 0.00000000 0.00100749 0.00000000 0.02349485)
(0.01219722 0.00297419 0.00000000 0.00139052 0.00000000 0.02529034)
(0.01210674 0.00313579 0.00000000 0.00135498 0.00000000 0.02421633)
(0.01099585 0.00369871 0.00000000 0.00177824 0.00000000 0.02466686)
(0.01094441 0.00353465 0.00000000 0.00159931 0.00000000 0.02463045)
(0.01085006 0.00370321 0.00000000 0.00175163 0.00000000 0.02591624)
(0.01062736 0.00435002 0.00000000 0.00225606 0.00000000 0.02669259)
(0.00998888 0.00430652 0.00000000 0.00228866 0.00000000 0.02425776)
(0.01020070 0.00480668 0.00000000 0.00261876 0.00000000 0.02541339)
(0.00960318 0.00450207 0.00000000 0.00243669 0.00000000 0.02528754)
(0.00940420 0.00433124 0.00000000 0.00234194 0.00000000 0.02637793)
(0.00920821 0.00388302 0.00000000 0.00193588 0.00000000 0.02512417)
(0.00951272 0.00406152 0.00000000 0.00196147 0.00000000 0.02019405)
(0.00883404 0.00396778 0.00000000 0.00205648 0.00000000 0.01903953)
(0.00895529 0.00497530 0.00000000 0.00292386 0.00000000 0.02063385)
(0.00795551 0.00431924 0.00000000 0.00253006 0.00000000 0.02094174)
(0.00763789 0.00404676 0.00000000 0.00231613 0.00000000 0.02199110)
(0.00651541 0.00337252 0.00000000 0.00189721 0.00000000 0.02038177)
(0.00605409 0.00312908 0.00000000 0.00173526 0.00000000 0.01896252)
(0.00615408 0.00319486 0.00000000 0.00179834 0.00000000 0.01948179)
(0.00531750 0.00293305 0.00000000 0.00173103 0.00000000 0.01709422)
(0.00591223 0.00319204 0.00000000 0.00181453 0.00000000 0.01865164)
(0.00495846 0.00274542 0.00000000 0.00162040 0.00000000 0.01673739)
(0.00417219 0.00250539 0.00000000 0.00153260 0.00000000 0.01214220)
(0.00529445 0.00340244 0.00000000 0.00215817 0.00000000 0.01212207)
(0.00470371 0.00185369 0.00000000 0.00077020 0.00000000 0.01192383)
(0.00471283 0.00307420 0.00000000 0.00195339 0.00000000 0.01027978)
(0.00641415 0.00222960 0.00000000 0.00087443 0.00000000 0.01181434)
(0.00640857 0.00180067 0.00000000 0.00061903 0.00000000 0.01062186)
(0.00943613 0.00218045 0.00000000 0.00060538 0.00000000 0.01287535)
(0.01050853 0.00293482 0.00000000 0.00090660 0.00000000 0.01160201)
(0.01444746 0.00181752 0.00000000 0.00037706 0.00000000 0.01276465)
(0.01743617 0.00213386 0.00000000 0.00030553 0.00000000 0.00836731)
(0.01713776 0.00072484 0.00000000 0.00016050 0.00000000 0.01097729)
(0.01709513 0.00021154 0.00000000 0.00007105 0.00000000 0.00733383)
(0.01924940 -0.00025627 0.00000000 0.00010214 0.00000000 0.00804253)
(0.01993022 -0.00039026 0.00000000 0.00012485 0.00000000 0.00837061)
(0.01986293 -0.00045218 0.00000000 0.00014589 0.00000000 0.00856721)
(0.03165766 -0.00100798 0.00000000 0.00036599 0.00000000 0.01297770)
(0.03249337 -0.00114357 0.00000000 0.00042749 0.00000000 0.01367527)
(0.03270806 -0.00127095 0.00000000 0.00047238 0.00000000 0.01384463)
(0.03133686 -0.00133351 0.00000000 0.00040707 0.00000000 0.01240588)
(0.02679576 -0.00322133 0.00000000 0.00084224 0.00000000 0.00987705)
(0.02318145 -0.00356979 0.00000000 0.00094083 0.00000000 0.00807004)
(0.01564481 -0.00263801 0.00000000 0.00092145 0.00000000 0.00881319)
(0.00939993 -0.00215971 0.00000000 0.00104461 0.00000000 0.00947546)
(0.00784902 -0.00304928 0.00000000 0.00214884 0.00000000 0.01109565)
(0.00959870 -0.00384231 0.00000000 0.00268133 0.00000000 0.01309387)
(0.01119804 -0.00601380 0.00000000 0.00467841 0.00000000 0.01556789)
(0.01162859 -0.00665851 0.00000000 0.00532601 0.00000000 0.01694199)
(0.01385115 -0.00684185 0.00000000 0.00497596 0.00000000 0.01669577)
(0.01305681 -0.00781114 0.00000000 0.00621526 0.00000000 0.01732232)
(0.01321730 -0.00701092 0.00000000 0.00524589 0.00000000 0.01796046)
(0.01301449 -0.00751860 0.00000000 0.00583367 0.00000000 0.01819921)
(0.01330126 -0.00736030 0.00000000 0.00550580 0.00000000 0.01731476)
(0.01312292 -0.00731067 0.00000000 0.00552931 0.00000000 0.01724862)
(0.01379373 -0.00721493 0.00000000 0.00522298 0.00000000 0.01700814)
(0.01357777 -0.00704035 0.00000000 0.00496606 0.00000000 0.01613231)
(0.01360809 -0.00713386 0.00000000 0.00506401 0.00000000 0.01601573)
(0.01369217 -0.00719568 0.00000000 0.00511421 0.00000000 0.01529338)
(0.01394904 -0.00710740 0.00000000 0.00503077 0.00000000 0.01506274)
(0.01405339 -0.00705797 0.00000000 0.00490410 0.00000000 0.01456952)
(0.01435396 -0.00701524 0.00000000 0.00476667 0.00000000 0.01405671)
(0.01437018 -0.00691722 0.00000000 0.00462264 0.00000000 0.01379068)
(0.01412889 -0.00658142 0.00000000 0.00440265 0.00000000 0.01396680)
(0.01370297 -0.00645973 0.00000000 0.00435596 0.00000000 0.01400550)
(0.01376682 -0.00642791 0.00000000 0.00428176 0.00000000 0.01378649)
(0.01370259 -0.00632063 0.00000000 0.00419745 0.00000000 0.01380092)
(0.01374920 -0.00598335 0.00000000 0.00395548 0.00000000 0.01411434)
(0.01385842 -0.00572478 0.00000000 0.00380216 0.00000000 0.01462822)
(0.01397635 -0.00510715 0.00000000 0.00335440 0.00000000 0.01487608)
(0.01422080 -0.00500320 0.00000000 0.00318963 0.00000000 0.01485722)
(0.01416340 -0.00472024 0.00000000 0.00307785 0.00000000 0.01537788)
(0.01469941 -0.00431978 0.00000000 0.00289486 0.00000000 0.01591099)
(0.01463465 -0.00386244 0.00000000 0.00280402 0.00000000 0.01690282)
(0.01551748 -0.00357723 0.00000000 0.00265876 0.00000000 0.01739887)
(0.01543954 -0.00326995 0.00000000 0.00264472 0.00000000 0.01851110)
(0.01577160 -0.00281640 0.00000000 0.00264450 0.00000000 0.01968092)
(0.01609052 -0.00252287 0.00000000 0.00264893 0.00000000 0.02074707)
(0.01655807 -0.00205398 0.00000000 0.00265227 0.00000000 0.02211830)
(0.01684852 -0.00172102 0.00000000 0.00271044 0.00000000 0.02344560)
(0.01757511 -0.00086909 0.00000000 0.00258482 0.00000000 0.02412126)
(0.01859890 -0.00070127 0.00000000 0.00247228 0.00000000 0.02483899)
(0.01956678 -0.00067875 0.00000000 0.00250894 0.00000000 0.02594836)
(0.02018430 -0.00064237 0.00000000 0.00258166 0.00000000 0.02713313)
(0.02057650 -0.00065997 0.00000000 0.00262465 0.00000000 0.02793768)
(0.02130658 -0.00078894 0.00000000 0.00265033 0.00000000 0.02865475)
(0.02208541 -0.00075378 0.00000000 0.00265115 0.00000000 0.02936671)
(0.02268183 -0.00081909 0.00000000 0.00271066 0.00000000 0.02992671)
(0.02324827 -0.00084230 0.00000000 0.00273596 0.00000000 0.03041766)
(0.02379351 -0.00085236 0.00000000 0.00272842 0.00000000 0.03057212)
(0.02433689 -0.00089904 0.00000000 0.00269572 0.00000000 0.03076495)
(0.02492749 -0.00090824 0.00000000 0.00265264 0.00000000 0.03094768)
(0.02533133 -0.00087780 0.00000000 0.00265430 0.00000000 0.03098571)
(0.02567569 -0.00091370 0.00000000 0.00262843 0.00000000 0.03081290)
(0.02596564 -0.00091147 0.00000000 0.00261813 0.00000000 0.03071382)
(0.02612677 -0.00087678 0.00000000 0.00257630 0.00000000 0.03071488)
(0.02619569 -0.00089430 0.00000000 0.00253652 0.00000000 0.03057643)
(0.02637171 -0.00092947 0.00000000 0.00246012 0.00000000 0.03038665)
(0.02651292 -0.00089862 0.00000000 0.00240455 0.00000000 0.02997798)
(0.02654413 -0.00087795 0.00000000 0.00235410 0.00000000 0.02956312)
(0.02633544 -0.00085795 0.00000000 0.00227963 0.00000000 0.02910472)
(0.02602572 -0.00085255 0.00000000 0.00220914 0.00000000 0.02857270)