/*--------------------------------*- C++ -*----------------------------------*\
  =========                 |
  \\      /  F ield         | OpenFOAM: The Open Source CFD Toolbox
   \\    /   O peration     | Website:  https://openfoam.org
    \\  /    A nd           | Version:  7
     \\/     M anipulation  |
\*---------------------------------------------------------------------------*/
FoamFile
{
    version     2.0;
    format      ascii;
    class       volScalarField;
    location    "20000";
    object      Cz;
}
// * * * * * * * * * * * * * * * * * * * * * * * * * * * * * * * * * * * * * //

dimensions      [0 1 0 0 0 0 0];

internalField   nonuniform List<scalar> 
15600
(
0
-1.81376046073723e-18
1.83785553110225e-18
5.46982936357774e-18
7.50076649880881e-18
9.34872490589978e-20
-1.10441748300937e-17
-3.43395146415465e-18
3.01430680241018e-18
0
5.48964190836746e-18
0
-9.44852679025284e-20
-4.71475917703872e-18
4.55284449639555e-18
-2.10020712569475e-18
-2.07149034961293e-18
-3.8365619978006e-18
0
1.737018041346e-18
-5.3364461516232e-18
9.63651854993048e-20
9.63735265387422e-20
-1.81410030030612e-18
8.87775444845391e-18
-9.63735265387396e-20
-2.26484806965533e-16
-2.33279741745172e-16
-1.81410030030614e-18
0
0
-2.36887541134703e-16
-2.42871046042364e-16
0
1.91047382684491e-18
9.6373526538742e-20
-9.63735265387416e-20
0
2.2829890726585e-16
2.36939442335817e-16
9.63735265387401e-20
0
1.05954812222201e-17
1.81410030030614e-18
-3.53182707407359e-18
9.63735265387412e-20
-2.38605267908458e-16
-2.49680862239797e-16
9.63735265387399e-20
0
0
-9.63735265387397e-20
-2.29920260513081e-16
-2.30049905546934e-16
0
-1.71772677376735e-18
1.71772677376744e-18
1.81410030030621e-18
9.63735265387393e-20
1.81410030030629e-18
7.16002767468585e-18
0
-1.81410030030613e-18
9.63735265387378e-20
1.81410030030614e-18
9.63735265387405e-20
5.249553847841e-18
0
9.63735265387419e-20
0
9.63735265387419e-20
7.06365414814728e-18
2.28202533739315e-16
4.70729865237796e-16
2.3183481744742e-16
0
-9.63735265387397e-20
0
0
2.3526618788746e-16
2.3369987203811e-16
0
0
0
1.0595481222221e-17
3.5318270740736e-18
-3.53182707407342e-18
0
-3.53182707407359e-18
-3.53182707407338e-18
1.71772677376745e-18
-1.81410030030615e-18
-9.63735265387441e-20
9.63735265387417e-20
3.5318270740738e-18
0
0
4.85895543212268e-16
4.77308090252525e-16
0
-3.57085470507707e-18
-1.8871201404784e-18
1.87056014913058e-18
5.92886785429825e-18
4.2981842454922e-18
-2.13107058662209e-18
1.96248070878056e-19
2.57980794407026e-18
0
0
0
4.76113623170852e-18
0
0
7.31502273750874e-18
-1.67720198300714e-18
9.83675376932396e-20
1.74251628873972e-18
-8.87835345731584e-18
-3.43546874133039e-18
0
0
-1.91716980965877e-19
7.03352825515824e-18
0
-5.1700344150962e-18
3.61789802718608e-18
-3.40959531251559e-18
0
0
-1.05852164151528e-17
-5.02226573844242e-18
7.36891563041557e-18
0
0
1.8341928844867e-18
1.91572634017335e-19
-5.41353666366916e-18
-1.92062535165968e-19
0
5.15590292951396e-18
-3.5066556561903e-18
0
0
0
0
2.23087482451343e-16
2.23026180963822e-16
-5.16478743701139e-18
5.35754288160162e-18
-1.92755444590284e-19
2.28252269888369e-16
2.30567474762754e-16
0
1.85009944206396e-18
2.04285488665422e-18
0
0
-2.26787681335472e-16
-2.2519973223119e-16
0
0
-5.16478743701114e-18
0
7.20764232366566e-18
-3.50744343953742e-18
2.35074401322839e-16
2.31468977268276e-16
0
1.92755444590283e-19
0
5.16478743701072e-18
2.27173192224661e-16
2.25471919003619e-16
1.92755444590281e-19
-1.65734399747363e-18
-3.50744343953761e-18
3.31468799494726e-18
1.85009944206394e-18
0
1.85009944206384e-18
0
5.35754288160151e-18
0
1.92755444590278e-19
-3.50744343953755e-18
-1.65734399747367e-18
-7.0148868790751e-18
-5.1647874370113e-18
-3.50744343953746e-18
0
0
-2.24744826448832e-16
-4.46491035843851e-16
-2.24862701199914e-16
0
1.92755444590281e-19
-3.50744343953754e-18
0
-2.28445025332952e-16
-2.26671738556613e-16
-7.01488687907511e-18
0
0
0
3.50744343953762e-18
0
-1.65734399747366e-18
0
0
1.85009944206397e-18
-5.16478743701133e-18
0
-3.50744343953757e-18
-5.16478743701151e-18
1.85009944206378e-18
-1.92755444590282e-19
-4.58547394663347e-16
-4.65111303097136e-16
0
0
-3.64748085609633e-18
-2.1918701505884e-18
-7.81900402801077e-18
1.83139486788198e-18
6.83724081277136e-18
-4.935154877251e-18
-7.3726799570545e-18
5.02226573843127e-18
5.29260820758418e-18
-1.9499111791052e-19
4.49428144669413e-18
1.41437990156269e-18
-1.39078048614305e-17
5.16429058822134e-18
5.42350752739711e-18
-7.22826315670013e-18
-1.87482602397096e-18
0
1.85010639441471e-18
-1.69548447793155e-18
0
0
5.27807993908515e-18
1.17258661915263e-18
0
1.37852455132025e-17
1.74158465650321e-18
-7.41058799947485e-18
5.40993398288663e-18
0
-4.65140723545006e-18
-4.61393284494054e-18
2.00081541803046e-18
0
-4.09832646210414e-18
7.35492146475832e-18
-1.93261612429079e-18
1.66620859051452e-18
0
1.92562166291173e-19
1.59872125885733e-18
0
3.39094610514602e-18
4.99004128084926e-18
-5.18279703458804e-18
-1.92755753738855e-19
-1.92755753738852e-19
-5.18279703458802e-18
0
0
-1.92755753738849e-19
0
1.98460668318121e-18
0
-1.79185092944229e-18
1.9275575373885e-19
-3.39094610514603e-18
0
0
0
-5.18279703458833e-18
0
0
0
1.9275575373885e-19
3.3909461051458e-18
0
-1.92755753738847e-19
0
3.39094610514591e-18
1.79185092944225e-18
-1.92755753738849e-19
0
-1.92755753738854e-19
0
-1.9275575373885e-19
1.79185092944238e-18
-1.79185092944229e-18
0
0
0
-3.39094610514591e-18
1.92755753738854e-19
0
-1.98460668318122e-18
0
6.97464796403058e-18
0
0
0
-1.92755753738854e-19
1.79185092944236e-18
-1.92755753738852e-19
5.18279703458809e-18
0
-1.98460668318123e-18
-1.92755753738849e-19
0
-1.98460668318122e-18
-1.79185092944233e-18
-3.58370185888472e-18
0
1.7918509294423e-18
-1.79185092944229e-18
-1.92755753738853e-19
0
0
1.59909517570345e-18
-1.79185092944228e-18
-1.92755753738852e-19
-1.59909517570346e-18
-1.98460668318124e-18
-1.79185092944229e-18
0
-1.79185092944235e-18
0
-9.98008256169859e-18
1.92764156171677e-19
4.78898213616734e-18
1.93201184956836e-19
0
-3.87358084599369e-19
-2.03264344549937e-18
0
0
0
-2.11236027189387e-18
0
-7.848644904151e-18
2.50997837897811e-18
-4.33220464982589e-18
1.35616528046193e-18
-1.65196482645216e-18
0
0
1.89051512297213e-18
-1.93782732180271e-19
-5.18309469086786e-18
1.92755374761298e-19
-9.63825478209242e-20
-4.8208507374539e-18
-5.0770484600215e-18
1.14477494170377e-17
-3.55046220015272e-18
-6.63906146136831e-18
5.15597858388068e-18
-1.68542715036234e-18
-5.56781381507512e-18
5.78652184716705e-18
-7.569400015043e-18
0
6.48197422529308e-18
4.0357423599588e-18
1.80771329719925e-18
-6.03468562059287e-18
1.91572561898751e-19
0
-1.799609849481e-18
1.92310295279618e-19
6.54617192209772e-18
-1.73529404836258e-18
0
0
1.73566097696123e-18
1.7356609769613e-18
0
0
1.7356609769613e-18
0
-1.92756074342708e-19
0
-3.27856587957978e-18
1.54290490261852e-18
0
1.73566097696122e-18
0
0
0
0
-1.92756074342707e-19
1.92756074342706e-19
0
-1.54290490261851e-18
-5.01422685654111e-18
-3.27856587957988e-18
1.73566097696123e-18
0
0
0
0
-2.90640108375925e-16
-2.92855280106149e-16
0
0
0
0
0
0
0
-1.92756074342707e-19
0
0
1.73566097696137e-18
1.54290490261852e-18
0
0
2.87361542496342e-16
2.83212338541743e-16
0
0
1.5429049026186e-18
3.47132195392262e-18
0
-5.01422685654116e-18
-6.55713175915936e-18
0
0
-1.9275607434271e-19
0
-1.73566097696121e-18
1.73566097696125e-18
0
0
0
1.73566097696137e-18
0
1.73566097696137e-18
0
0
0
5.01422685654102e-18
-3.47132195392258e-18
-1.73566097696122e-18
0
-5.01422685654121e-18
6.74988783350252e-18
0
4.8204032595598e-18
0
5.06706094099461e-18
0
-8.59035899841368e-18
-7.48212534134121e-18
6.04027898344122e-18
-6.19087983807634e-18
1.91887874484728e-18
0
0
-2.65442828409173e-18
-5.41016300617283e-18
1.58713205366678e-18
0
1.98323513771259e-18
3.12395424562016e-18
0
-1.44065983133601e-18
1.37075521622549e-18
0
0
-6.14759386712029e-18
0
-3.01870958490622e-18
7.88569329326806e-18
4.66908033028996e-18
6.39872575817271e-18
0
7.2062252229582e-18
-5.36672823170479e-18
0
0
0
0
3.88442484183777e-18
4.04610636096463e-18
0
5.51531110800898e-18
-1.91817841362834e-19
4.8449388126569e-18
3.20311417986471e-18
-4.8436581890574e-18
0
0
3.17015728138548e-18
-3.17015728138547e-18
1.68145684410849e-18
0
0
1.92756406831292e-19
0
-1.92756406831295e-19
-3.17015728138565e-18
0
-1.68145684410842e-18
0
0
0
0
0
0
3.17015728138553e-18
0
-6.34031456277063e-18
0
1.92756406831297e-19
0
0
0
0
1.92756406831295e-19
-6.14755815593934e-18
2.74187634545856e-16
2.90045734083642e-16
0
0
0
0
0
-1.92756406831301e-19
0
-3.17015728138535e-18
0
0
0
0
0
0
-2.75869091389957e-16
-2.75876404520811e-16
-1.68145684410846e-18
-1.68145684410837e-18
0
-1.68145684410841e-18
-6.34031456277114e-18
4.65885771866286e-18
1.92756406831296e-19
0
0
3.17015728138559e-18
0
-1.68145684410842e-18
0
0
-1.68145684410838e-18
3.1701572813853e-18
0
1.68145684410843e-18
-1.92756406831294e-19
0
-1.68145684410838e-18
-1.48870043727707e-18
-6.14755815593964e-18
0
0
-1.92756406831287e-19
-1.92756406831299e-19
-6.34031456277129e-18
0
3.16947787753338e-18
0
0
-1.74440221455859e-18
3.62744963287464e-18
9.13534768184087e-18
-5.45090407233847e-18
-2.12180577879421e-18
-6.3075767980292e-18
-1.9460251442634e-19
4.69548499489285e-18
0
0
-2.48818871696711e-18
1.44124504458907e-18
1.33878315061896e-18
-6.59429833859992e-18
-1.95342566783411e-19
7.88569329323966e-18
-1.50935479244901e-18
6.14732996645742e-18
-6.340340161909e-18
3.06560238780498e-18
1.82120252043641e-18
3.10396025665187e-18
9.12566054973642e-18
-6.24560851820605e-18
0
-5.91456958189005e-18
2.5879677650528e-18
-4.98250654971491e-18
5.03653133500743e-18
-7.04818989853512e-18
-4.72056872819669e-18
4.13510514288174e-18
8.24081097422831e-18
0
-1.5609640148348e-18
0
-1.9181786275264e-19
0
2.69146335887409e-16
2.70249303221941e-16
0
-1.9275675165054e-19
1.92756751650532e-19
-1.43641160946783e-18
3.06557997058618e-18
0
-1.92756751650537e-19
-2.87282321893566e-18
9.00398316010765e-18
0
2.87282321893565e-18
0
-1.24365485781726e-18
0
0
-6.13115994117248e-18
0
0
0
0
-1.92756751650535e-19
0
0
0
-1.82192511276884e-18
0
-1.92756751650533e-19
-1.43641160946783e-18
0
0
0
0
-2.68006646728478e-18
0
-1.82192511276885e-18
-3.0655799705862e-18
0
0
-5.93840318952196e-18
-3.25833672223651e-18
-9.38949666340923e-18
0
0
-1.92756751650541e-19
0
9.19673991175825e-18
0
0
-6.13115994117204e-18
0
-1.43641160946783e-18
-1.6291683611183e-18
0
0
-4.30923482840329e-18
-3.25833672223678e-18
-6.13115994117219e-18
-4.50199158005401e-18
-1.92756751650535e-19
-4.50199158005375e-18
0
0
0
0
0
0
0
2.87282321893563e-18
0
0
0
-1.92756751650534e-19
3.25833672223672e-18
0
0
0
4.69474833170449e-18
1.78777806561023e-16
1.78701052726554e-16
0
0
0
1.93912235852188e-19
0
0
-1.94476370154618e-19
-4.1351051428659e-18
-2.36425117833933e-18
1.94826601526136e-19
5.04106250712418e-18
-5.17275578418048e-18
2.7779804906705e-18
4.43592718643204e-18
-1.95568540134894e-19
-6.24560851819921e-18
-3.23661768969563e-18
-1.93783269768618e-19
0
0
0
-6.1206371203503e-18
-1.68659121774724e-15
-1.64011931971767e-15
-4.32533223973592e-18
1.10612380512393e-18
-7.31438986596588e-18
-1.3385846095836e-17
-1.26543634299338e-17
4.67126607928318e-18
0
0
1.90844536120457e-19
0
-1.91138979902354e-19
-5.26110265769998e-18
-3.18320235981579e-18
-3.01535305245811e-18
0
-2.67544694961688e-16
-2.65864920908064e-16
-1.92748825012569e-19
0
0
2.96469856700656e-18
3.15745567626998e-18
2.9646985670065e-18
1.92757109263483e-19
0
-2.96469856700651e-18
0
0
-5.92939713401303e-18
0
0
3.15745567626999e-18
3.15745567626998e-18
0
-2.77194145774306e-18
0
0
-1.92757109263484e-19
0
-2.96469856700655e-18
3.15745567626996e-18
5.73664002474951e-18
-8.5085814824922e-18
-1.9275710926349e-19
1.92757109263485e-19
5.92939713401274e-18
0
0
-2.57918434847954e-18
0
1.92757109263482e-19
0
0
0
-1.92757109263475e-19
1.92757109263484e-19
0
2.77194145774283e-18
5.92939713401293e-18
2.96469856700643e-18
0
0
2.57918434847953e-18
-5.92939713401297e-18
3.15745567627004e-18
-1.92757109263483e-19
0
0
0
5.73664002474949e-18
0
0
0
0
0
2.96469856700644e-18
0
1.92757109263486e-19
1.92757109263483e-19
1.92757109263484e-19
0
2.96469856700653e-18
0
6.31491135254004e-18
-5.92939713401302e-18
0
2.57918434847959e-18
-5.92939713401284e-18
5.73664002474948e-18
3.15745567626998e-18
5.73664002474951e-18
5.92939713401293e-18
0
5.54388291548557e-18
-1.77025858908142e-16
-1.75154902740152e-16
1.59471330905291e-18
4.52457577656813e-18
0
3.18320235982658e-18
-1.49578903582308e-18
-3.77877050512331e-18
1.94474689399754e-19
-1.94598615655114e-19
6.27469012637972e-18
4.40714321426099e-18
2.33563303964025e-18
1.95168657672925e-19
1.09040711063461e-17
-5.89518963569278e-18
-7.42908079246155e-18
-1.70047904399105e-18
-2.73873891883661e-18
5.61907813974472e-18
-8.70093393828577e-18
-2.57919700263174e-18
-9.63839535956022e-20
0
1.63199257027557e-15
1.56155321382163e-15
1.48801074031579e-15
1.40741132698558e-15
0
1.3089643889004e-17
-5.18565651338118e-18
4.50263344247937e-18
2.31480394178259e-18
4.22341195231158e-18
-1.17211554678595e-17
-1.90974718838733e-19
-7.1037814203315e-18
1.43840772092209e-18
-8.28766113407041e-16
-8.43055069408138e-16
-4.17873595684058e-18
0
-2.6702512406076e-18
2.86676871145271e-18
5.73476495003587e-18
0
0
-5.73476495003592e-18
0
0
-1.92757480151012e-19
-1.10840149397694e-17
1.70645686685522e-16
1.64869820858536e-16
-3.06013995516917e-18
2.86738247501787e-18
0
0
0
-5.54200746988484e-18
-3.06013995516877e-18
8.79490490520482e-18
-2.86738247501798e-18
-2.86738247501798e-18
0
0
0
1.92757480151013e-19
1.73127554200231e-16
1.79428314806023e-16
0
0
0
-1.92757480151013e-19
1.92757480151011e-19
0
-1.92757480151011e-19
8.40938994490273e-18
3.06013995516894e-18
0
0
-1.92757480151014e-19
1.92757480151008e-19
-5.34924998973363e-18
0
0
2.67462499486695e-18
0
-2.86738247501803e-18
1.9275748015101e-19
3.06013995516912e-18
-5.73476495003561e-18
0
0
-5.73476495003613e-18
0
-1.92757480151021e-19
3.06013995516894e-18
0
0
-2.867382475018e-18
2.867382475018e-18
0
1.92757480151001e-19
2.867382475018e-18
0
-3.06013995516902e-18
0
0
0
0
-1.10840149397691e-17
0
0
0
0
0
-1.92757480151014e-19
0
0
0
3.24911008280176e-18
1.93203375372344e-19
-5.95853713266849e-18
1.45445233987985e-18
-4.7994487506226e-18
-1.9413169073659e-19
0
0
5.95975191853354e-18
6.63310983190876e-18
-4.44320804827079e-18
4.89258284223622e-18
-2.40257733895079e-18
-2.97070566184095e-18
0
-5.72754953457415e-18
1.50391819052131e-15
1.55757379471254e-15
-3.87567323852116e-19
-1.93044410941757e-19
0
0
2.5803576706068e-18
2.61489096236739e-18
-2.91872986136149e-18
-1.45014623153257e-15
-1.3227798127283e-15
-2.64615883118709e-18
4.78223200471931e-18
-7.13682695498276e-18
0
0
-3.88754180657591e-18
1.8526454890434e-18
-7.42548014477807e-18
1.66636031298013e-18
1.57169663555074e-18
8.34159947019105e-16
7.96493687888643e-16
0
-1.60618446442933e-16
-1.6691096124216e-16
-2.77291748771191e-18
0
-2.58074784966447e-18
0
-2.77350571447691e-18
0
-8.12775927861808e-18
-5.54701142895397e-18
1.56312038291263e-16
-1.0477280212498e-17
-1.62131568389688e-16
1.92757864812532e-19
2.7735057144769e-18
0
2.58074784966452e-18
0
2.77350571447691e-18
1.92757864812542e-19
-1.5411680617123e-16
-2.28055438929643e-18
1.59584256586537e-16
0
0
5.54701142895399e-18
5.54701142895386e-18
-1.67406061149177e-16
-1.67392821715253e-16
0
2.77350571447701e-18
0
2.77350571447702e-18
0
5.54701142895416e-18
-5.54701142895413e-18
0
0
2.77350571447692e-18
0
0
0
-2.77350571447692e-18
2.77350571447707e-18
0
2.77350571447684e-18
0
8.12775927861822e-18
0
2.96626357928952e-18
-2.77350571447691e-18
-5.73976929376662e-18
0
-5.54701142895432e-18
0
3.21137351590795e-16
3.23998600968617e-16
-2.77350571447691e-18
5.54701142895406e-18
-1.5631203829126e-16
-1.51348853467964e-16
1.92757864812544e-19
-1.92757864812544e-19
0
0
2.77350571447699e-18
0
-2.77350571447701e-18
-3.85515729625081e-19
-5.35425356414131e-18
-5.16149569932856e-18
-5.73976929376686e-18
2.96626357928956e-18
1.92757864812545e-19
0
1.53924048306419e-16
1.53511261138481e-16
0
-5.5470114289538e-18
0
0
-5.41253399159743e-18
-1.11381592666185e-17
-1.93679571637921e-19
-1.67466211201539e-18
8.24674486029834e-18
-3.13840373896583e-18
1.56641146633384e-18
-3.70529097809307e-18
-3.89394346135333e-19
0
-1.97501124469445e-18
2.31552505048774e-18
2.48612419171299e-18
-2.64615883120509e-18
8.47475897851274e-18
-1.42088958115928e-15
-1.51436938788699e-15
-3.0024587001508e-18
-1.93044835361448e-19
5.54703353750565e-18
-2.4901995292588e-18
1.92469707533763e-19
-2.52269493969698e-18
8.08274368119484e-18
3.2663370645217e-18
8.16798055700994e-18
1.89852206656632e-19
-1.90017681238306e-19
6.69465931062591e-18
0
0
9.75033135662825e-18
-5.73973524195661e-18
3.77731981890238e-18
-3.21348919126376e-18
4.54709759597597e-18
-1.91572311843702e-19
-2.51534220933972e-18
0
1.58984580932507e-16
1.57894219324425e-16
5.17201635806459e-18
2.87570502140601e-18
1.61508073444383e-16
1.58753324887873e-16
0
2.87570502140613e-18
0
0
-1.48671614447471e-16
-1.45087879827877e-16
2.68294675763948e-18
-1.92758263766772e-19
-2.87570502140613e-18
-5.36589351527849e-18
0
0
0
-1.92758263766771e-19
1.51354561205116e-16
-2.5524925358991e-18
-1.53980432431418e-16
-2.68294675763923e-18
-2.49018849387259e-18
5.36589351527873e-18
-1.92758263766776e-19
-2.6829467576393e-18
0
2.6829467576395e-18
5.17313525151196e-18
0
0
2.87570502140599e-18
0
-1.92758263766766e-19
-1.92758263766772e-19
-1.92758263766772e-19
0
0
5.36589351527895e-18
0
0
-5.17313525151182e-18
-1.9275826376677e-19
-1.92758263766777e-19
0
-2.68294675763925e-18
0
1.92758263766776e-19
-1.92758263766765e-19
5.36589351527872e-18
-2.49018849387257e-18
1.92758263766768e-19
0
-3.09794171364321e-16
-3.12614093610861e-16
0
7.8560820091513e-18
1.48478856183708e-16
3.10315370624289e-16
1.58977373347673e-16
5.36589351527846e-18
0
0
-1.56142179929103e-16
-1.59330671624981e-16
-2.68294675763932e-18
0
1.92758263766768e-19
0
2.4901884938726e-18
0
-1.92758263766772e-19
1.92758263766774e-19
-1.45795909426071e-16
-1.55969731249618e-16
0
7.85608200915103e-18
1.92766696718743e-19
-1.92953905701012e-19
1.93204369575201e-19
1.93445341423148e-19
3.09451950886949e-18
0
-7.57849599329244e-18
5.01454926270734e-18
3.20090058099236e-18
0
1.94694733599418e-19
0
-4.37802076201564e-18
0
2.39564308390058e-18
0
2.65937672995326e-18
5.39209043985492e-18
3.02012107428594e-18
-1.93784083475032e-19
-2.48976792191529e-18
1.92757884186455e-19
-4.90206584171151e-18
0
-2.24203968470235e-18
2.72752242097439e-18
1.33130920104647e-15
1.28259851000024e-15
0
1.09572768933261e-15
1.06543215818784e-15
1.82539258334099e-18
5.51691441121167e-18
-9.60344853047761e-18
-1.90845459302225e-19
0
8.12845957255919e-18
-7.88241808707371e-18
-1.91572264702583e-19
-2.61160285650573e-18
-5.38827203297163e-18
7.86614095535923e-18
0
1.9275039537893e-19
-1.92758677552482e-19
-1.58021791340441e-16
-1.53365467073532e-16
-2.59558837183784e-18
-1.9275867755249e-19
4.80565938857101e-18
-2.78834704939058e-18
2.59558837183799e-18
-2.40282969428539e-18
2.40282969428562e-18
1.92758677552488e-19
5.19117674367599e-18
0
5.19117674367616e-18
-2.4028296942856e-18
0
2.40282969428549e-18
2.59558837183802e-18
1.9275867755248e-19
2.5955883718382e-18
5.38393542122823e-18
-4.99841806612324e-18
0
-2.78834704939056e-18
1.92758677552485e-19
0
0
1.92758677552482e-19
0
-5.19117674367595e-18
2.59558837183789e-18
-2.78834704939057e-18
0
4.80565938857106e-18
0
0
0
0
-1.92758677552473e-19
-2.78834704939036e-18
0
0
0
0
0
0
2.59558837183808e-18
0
-5.19117674367621e-18
7.59400643796175e-18
4.80565938857097e-18
1.9275867755248e-19
0
5.19117674367599e-18
-1.92758677552483e-19
-7.40124776040897e-18
-2.4028296942855e-18
-1.53216131951868e-16
-1.55977615625781e-16
0
2.59558837183801e-18
-5.19117674367616e-18
1.55811720323701e-16
1.53264397512265e-16
1.92758677552484e-19
1.92758677552477e-19
0
0
-2.40282969428553e-18
7.78676511551394e-18
0
-2.59558837183797e-18
-2.59558837183785e-18
-2.5955883718381e-18
0
-2.59558837183797e-18
0
0
-7.67561437603581e-18
1.93445735408722e-19
0
8.84731224938542e-18
-3.11749084946068e-18
1.93786430314322e-18
1.6367216817712e-18
8.99788258565377e-18
-2.00093865135834e-18
-3.80501764414883e-18
-2.01584505866617e-18
0
-3.9075244616872e-19
-4.91333322343424e-18
-1.27072843815668e-15
-1.32991592109404e-15
0
7.68883964406837e-18
0
5.3839555843664e-18
9.63855801278463e-20
0
0
1.35681711559391e-15
3.25441861773315e-18
-1.20393011210176e-15
4.73384633711799e-18
-1.0979249405271e-15
-9.95264758162144e-16
1.94284155794476e-18
0
0
0
1.76888920173098e-18
7.6599436406869e-18
1.91337819840936e-19
2.84904690675207e-18
5.03884479411272e-18
-5.02025076596419e-18
2.34451050371897e-18
0
5.21435200336229e-18
-2.5113174677208e-18
-5.02263493544182e-18
0
1.92759106729347e-19
0
2.5113174677208e-18
0
4.82987582871267e-18
0
2.51131746772071e-18
-2.51131746772081e-18
0
0
2.51131746772081e-18
-5.02263493544182e-18
0
-2.5113174677207e-18
4.82987582871205e-18
-2.51131746772071e-18
2.31855836099157e-18
0
0
-1.92759106729345e-19
-7.15421696290512e-16
-7.18322758260726e-16
0
0
2.51131746772081e-18
2.31855836099146e-18
-2.31855836099166e-18
2.70407657445024e-18
1.92759106729346e-19
-7.17933013758297e-16
-7.18046561731285e-16
0
-7.34119329643337e-18
0
-1.92759106729345e-19
0
0
-1.92759106729345e-19
2.31855836099158e-18
4.82987582871206e-18
-2.5113174677207e-18
-5.02263493544181e-18
0
1.92759106729344e-19
7.20058813012532e-16
7.13361474678778e-16
0
0
1.92759106729346e-19
0
0
0
-1.92759106729347e-19
2.51131746772081e-18
-7.3411932964334e-18
-2.5113174677208e-18
-7.34119329643274e-18
2.51131746772081e-18
2.31855836099156e-18
7.14843418970374e-18
0
-2.51131746772094e-18
0
0
0
-2.511317467721e-18
4.82987582871222e-18
1.9275910672935e-19
5.02263493544198e-18
0
0
2.31855836099154e-18
2.51131746772085e-18
1.92767549943169e-19
7.33083695489143e-18
0
0
0
2.65747469090438e-18
-2.81914361989188e-18
1.9431250063531e-19
4.92820718009677e-18
-6.83354389517028e-18
8.90024019613341e-18
-1.13922928920663e-17
5.82852467384073e-18
-4.33998806340675e-18
-2.61492042864414e-18
0
1.20002564935668e-15
1.30429008111336e-15
2.05677216263371e-18
-1.93784536628311e-19
3.86092411085556e-19
0
4.5709366727536e-18
1.92470683876567e-19
2.45691638398987e-18
-1.31586262440912e-15
-1.23808017792329e-15
-2.18926725665166e-18
2.09050125332739e-18
0
-1.90255664006516e-19
1.8724211489077e-18
3.72557278234023e-18
8.77286698711574e-18
3.58155251931393e-18
7.98787874084186e-18
5.95212580677748e-18
2.90994671681002e-18
-6.93281244285641e-16
-7.14099844090323e-16
2.71335185334049e-18
2.26229819028917e-18
0
0
0
1.92759551878768e-19
-2.6227845047319e-18
-2.43002495285333e-18
0
0
0
0
2.23726540097446e-18
2.43002495285333e-18
0
2.23726540097446e-18
1.92759551878769e-19
0
-2.43002495285323e-18
1.92759551878769e-19
-2.6227845047319e-18
0
0
4.66729035382771e-18
0
0
-5.05280945758545e-18
6.90648335032076e-16
6.86518914486667e-16
-1.92759551878766e-19
-4.66729035382768e-18
0
-2.23726540097447e-18
-2.43002495285323e-18
0
4.66729035382769e-18
6.92500081329325e-16
6.93268796563291e-16
0
2.23726540097446e-18
7.09731530668062e-18
0
0
0
0
0
4.4745308019491e-18
2.43002495285332e-18
-4.47453080194915e-18
-2.23726540097446e-18
-2.43002495285322e-18
-6.878327909755e-16
-6.90860029870588e-16
-2.62278450473189e-18
0
0
0
1.92759551878773e-19
0
0
-4.66729035382769e-18
-2.43002495285324e-18
-4.6672903538277e-18
9.52734025953367e-18
4.8600499057065e-18
0
0
0
0
2.43002495285333e-18
0
0
0
1.92759551878769e-19
0
-1.92759551878769e-19
-1.92759551878774e-19
0
1.92759551878768e-19
-6.71179620292374e-18
2.23677893465853e-18
7.08750146072515e-18
0
0
-4.86099891077014e-18
2.75711910865686e-18
0
0
0
-6.78889146369984e-18
-1.94686888967518e-19
-5.69205423336722e-18
3.74484229781202e-18
0
4.48130937464304e-18
2.47588377853276e-18
4.75824452307063e-18
0
-9.63014175056329e-18
2.26519896481715e-18
0
0
0
-2.35078438671637e-18
2.37707810970601e-18
-1.90738141658211e-19
0
1.89856657729598e-19
-2.00700143256379e-18
-3.80046705890261e-19
-1.92435125482715e-18
-5.22302337633136e-18
-1.90613561772923e-19
6.47067019066502e-18
1.90846240606791e-19
0
-6.3190538937296e-18
-3.00430307601112e-18
7.0107058677109e-16
6.56366435825282e-16
0
0
-1.92566215226598e-19
0
0
-6.66929674427331e-18
0
0
0
0
-4.7032111809884e-18
2.15884557688941e-18
2.35160559049413e-18
-2.35160559049422e-18
7.05481677148259e-18
1.92760013604805e-19
0
0
2.35160559049412e-18
0
2.3516055904941e-18
6.66158634372875e-16
6.68253502875658e-16
4.70321118098824e-18
-1.92760013604808e-19
0
2.35160559049419e-18
0
0
0
4.70321118098838e-18
2.3516055904943e-18
-4.5104511673836e-18
-4.51045116738324e-18
-1.92760013604809e-19
2.15884557688948e-18
-1.92760013604804e-19
0
-2.35160559049429e-18
-2.3516055904943e-18
2.35160559049431e-18
0
2.35160559049409e-18
2.35160559049431e-18
7.05481677148259e-18
0
6.63999788796006e-16
6.71523177029644e-16
-4.51045116738361e-18
4.70321118098828e-18
-1.92760013604805e-19
2.35160559049413e-18
4.70321118098823e-18
0
0
1.92760013604806e-19
-1.92760013604805e-19
-2.3516055904943e-18
2.35160559049429e-18
4.51045116738341e-18
0
0
6.70476325526674e-16
6.61752647154384e-16
6.66929674427335e-18
-2.15884557688938e-18
0
-6.70669085540262e-16
-6.61613442925959e-16
0
6.86205675787752e-18
-2.15884557688941e-18
2.35160559049431e-18
2.3516055904942e-18
2.3516055904943e-18
2.35160559049431e-18
1.92760013604805e-19
0
6.65773114345657e-16
6.6305609861164e-16
-2.35114893201849e-18
2.34857416561854e-18
2.56940467373105e-18
4.88160091870052e-18
-5.07679805128017e-18
-2.47227505971677e-18
-8.25313507313686e-18
-2.97155785412985e-18
-6.06031380490361e-18
0
-1.61766754766611e-18
5.30538369429823e-18
-3.41403079563201e-18
0
-1.95361032974221e-19
1.95519581599459e-19
0
-2.52185321281872e-18
0
0
-2.35136055887803e-18
0
-6.34600681350207e-18
1.92471396789712e-19
-2.10834371610558e-18
-4.19582392122731e-18
0
2.01857765705981e-18
-2.11632094333182e-18
-3.97817223055692e-18
0
-6.76541720945371e-18
-1.64183582458566e-18
-3.30914321976879e-18
-3.5457070797965e-18
0
0
-1.91337682793725e-19
7.53680749133551e-18
2.26196973319887e-18
2.16837645879149e-18
0
-2.27270493307996e-18
0
2.4687183558986e-18
-1.9276049253506e-19
1.92760492535066e-19
0
2.2759578633637e-18
-1.92760492535057e-19
-2.27595786336352e-18
0
0
0
-6.34167626585883e-16
-6.48760742899371e-16
2.2759578633637e-18
-4.35915523419212e-18
-4.16639474165745e-18
1.92760492535057e-19
0
-6.51025966045146e-16
-6.40808702127077e-16
1.92760492535056e-19
0
0
-2.27595786336343e-18
0
4.35915523419251e-18
0
2.27595786336353e-18
1.9276049253506e-19
0
4.35915523419211e-18
0
0
0
1.92760492535063e-19
0
0
0
2.27595786336353e-18
0
0
1.92760492535061e-19
0
-6.42885937054345e-16
-6.45289253378259e-16
-2.27595786336345e-18
4.35915523419216e-18
6.4705233179602e-16
6.43173812433228e-16
0
0
0
-1.9276049253506e-19
0
1.92760492535061e-19
0
-2.27595786336346e-18
2.2759578633636e-18
0
-6.42885937054337e-16
-6.49216540005475e-16
0
6.82787359009111e-18
0
6.42693176561829e-16
1.29100049898905e-15
6.33792840318498e-16
-2.08319737082834e-18
1.92760492535057e-19
-1.92760492535072e-19
-4.74467621926171e-18
4.5519157267271e-18
2.27595786336361e-18
0
8.71831046838444e-18
-6.40417218698357e-16
-6.49804594077856e-16
-2.27552181484822e-18
0
0
0
0
2.77237263471029e-18
6.88182943196166e-16
6.82041168075356e-16
5.84916229783823e-18
-1.29200374995663e-18
1.94681190770539e-19
0
1.94950740465131e-19
-5.75781207147598e-18
8.34705570320641e-18
1.92080727650702e-18
-6.62530807170952e-18
2.04687912030336e-18
-1.94719303796702e-19
0
0
-2.27596672829038e-18
0
-2.20211202543337e-18
-2.22576605905752e-18
1.92411888083336e-18
-2.35092394168063e-18
8.5104010262178e-18
2.03863568445697e-18
0
-1.90258922183277e-19
1.90456144939928e-19
-3.54588518676732e-18
-1.69354437495997e-18
3.24749217240996e-18
0
0
-2.4378272728374e-18
-2.49150586990194e-18
0
-6.66070081445715e-18
2.22500166611859e-18
-2.19989335899594e-18
0
-2.20298384222615e-18
6.18405122057365e-16
6.27405942143303e-16
0
2.20298384222598e-18
-2.20298384222598e-18
0
1.92760989321694e-19
4.40596768445242e-18
6.41619053735669e-18
6.24243029626757e-16
6.15928679573142e-16
0
0
2.20298384222607e-18
1.81746186358259e-18
-4.21320669513026e-18
-2.20298384222597e-18
0
0
6.18212361068094e-16
6.2487214252001e-16
4.21320669513029e-18
0
-4.40596768445194e-18
-4.40596768445196e-18
-1.92760989321696e-19
2.39574483154768e-18
0
0
0
0
1.92760989321695e-19
2.01022285290434e-18
0
-2.20298384222597e-18
0
4.59872867377398e-18
0
-4.02044570580857e-18
0
0
-2.20298384222597e-18
2.01022285290445e-18
1.92760989321689e-19
4.21320669513041e-18
-6.18212361068047e-16
-6.20774318397921e-16
4.21320669513027e-18
-2.20298384222607e-18
2.20298384222597e-18
0
0
1.92760989321691e-19
0
0
2.20298384222607e-18
-2.01022285290437e-18
0
1.92760989321701e-19
-4.21320669513024e-18
-2.20298384222606e-18
0
-2.20298384222606e-18
-6.16202138215152e-16
-6.30385761522109e-16
-2.20298384222596e-18
0
-6.60895152667845e-18
-6.22342954803474e-18
0
2.01022285290428e-18
-2.01022285290439e-18
-2.01022285290428e-18
-6.22342954803474e-18
-2.39574483154792e-18
1.92769455475722e-19
4.20760967168997e-18
0
2.28563850213892e-18
-1.93680352864014e-19
-4.79377640771838e-18
-6.37024907311319e-16
-6.86510935207469e-16
5.25656451807224e-18
0
1.94678191689431e-19
4.55218629725381e-18
6.89799787711768e-18
3.76829622856993e-18
-2.11155765577297e-18
-4.07727136890997e-18
-2.12760025655849e-18
0
0
1.93785547457217e-19
0
0
-2.03622414682109e-18
1.9247216378851e-19
-1.91717626958995e-19
0
-1.06702949280455e-15
-1.02553179441454e-15
3.92740812434415e-18
-2.0359397815968e-18
-1.90260083343422e-19
-1.90456956597328e-19
1.90615627031711e-18
-9.07188961858154e-18
2.76222759602274e-18
2.62727110929839e-18
5.36008530608073e-18
0
2.4098756868964e-18
0
0
0
0
2.13217533779403e-18
0
-5.94067816119293e-16
-5.89675804657105e-16
6.2050056727142e-18
0
0
1.93982755447654e-18
2.13258905911879e-18
0
0
2.13258905911887e-18
0
-2.13258905911896e-18
0
0
0
0
0
0
-1.92761504642423e-19
-6.00272821792009e-16
-5.9628599249575e-16
-1.92761504642416e-19
0
0
0
-1.92761504642419e-19
-2.13258905911879e-18
2.13258905911897e-18
2.13258905911878e-18
-2.13258905911897e-18