/*--------------------------------*- C++ -*----------------------------------*\
  =========                 |
  \\      /  F ield         | OpenFOAM: The Open Source CFD Toolbox
   \\    /   O peration     | Website:  https://openfoam.org
    \\  /    A nd           | Version:  7
     \\/     M anipulation  |
\*---------------------------------------------------------------------------*/
FoamFile
{
    version     2.0;
    format      ascii;
    class       volScalarField;
    location    "20000";
    object      Dk;
}
// * * * * * * * * * * * * * * * * * * * * * * * * * * * * * * * * * * * * * //

dimensions      [0 2 -3 0 0 0 0];

internalField   nonuniform List<scalar> 
15600
(
0.00111876398054161
0.000771815409002035
0.00032492880380654
7.58177593564028e-05
5.0619867761658e-05
4.46172698702086e-05
1.90838391860036e-05
9.58422524124837e-06
6.18677705639244e-06
5.341394270003e-06
5.92205499472816e-06
7.37598687002477e-06
9.81148194092424e-06
1.30379720618516e-05
1.68565185776122e-05
2.08476071812734e-05
2.4410651439637e-05
2.74974414313785e-05
3.00090854736175e-05
3.13663804960141e-05
3.30614644320634e-05
4.16881100966391e-05
6.29230264812453e-05
8.7284014747867e-05
0.000113294759534112
0.000139946903741437
0.000167052364614496
0.000194214800957063
0.000221430274147304
0.000248535957940401
0.000275489476551558
0.000302169850776167
0.000328492335969418
0.000354355077320402
0.000379698239088679
0.000404545703449668
0.000429002928434701
0.00045274979189908
0.000475255590493502
0.000496263067760805
0.000515655674912403
0.000533354805354229
0.000549309249371672
0.000563490129965875
0.000575885636851912
0.000586500828662194
0.000595357233916914
0.000602493355551047
0.000607963500171916
0.00061183609960607
0.000614191644390656
0.000615121785665164
0.000614723933033883
0.000613104037274429
0.000610361834398188
0.000606595865389911
0.000601879359142772
0.000596282412249569
0.000589901592897028
0.000582838390168452
0.000575205003117715
0.000567097697923092
0.000558610445866365
0.000549805101585002
0.000540707968951022
0.000531358997717163
0.000521798272576503
0.000512089865182995
0.000502292989768692
0.000492402690256611
0.000482464947571694
0.000472463833582833
0.000462415405799175
0.000452341612815295
0.00044224465055357
0.000432123040466638
0.000421972198832643
0.000411784876399585
0.000401555748619999
0.000391273940006445
0.000380918010872008
0.00037046925231056
0.00035989233214483
0.000349165531873102
0.000338232660890248
0.00032706943247974
0.000315569681903749
0.00030372687411724
0.000291326760788861
0.000278537024630567
0.00026569034385384
0.000252525303738211
0.000238233076442699
0.000223320938020312
0.00020616845072328
0.000188525604514468
0.000166621814513234
0.00014575457109137
0.000115901454733101
0.000130963303844829
0.000188303399930408
0.00025949458645967
0.000343360956305167
0.000444963563130742
0.000563489025740983
0.000668965527908982
0.000755553338683072
0.000816883790199006
0.000844480916751698
0.000885570085181777
0.000967395707451755
0.00110794415231153
0.00142087151766348
0.00189249187992237
0.00261357060236677
0.00353381687865414
0.00344879485724049
0.0021726119224611
0.00133918541630781
0.00103121272820987
0.00606655176714412
0.00423977616828526
0.00179802244831057
0.000426913737109577
0.000277149482388893
0.000245615188087056
0.000106978355434001
5.34930059689388e-05
3.42237787810904e-05
2.92838301352796e-05
3.22656384898263e-05
4.00659866365126e-05
5.32528661538132e-05
7.08353949464105e-05
9.17536397743961e-05
0.000113748118521932
0.000133493661858675
0.000150477652687638
0.000164260916139111
0.000171784318034126
0.000182151827638468
0.000230865442503506
0.000347686517782226
0.000481836638638382
0.000624922848520081
0.000771457629995161
0.000920380948258312
0.00106954895431055
0.00121890000801476
0.00136752657674495
0.00151515844048778
0.00166110945454744
0.00180488964382112
0.00194592699489602
0.00208388085612478
0.00221887723219911
0.00235149816703741
0.00247938656566553
0.00259948059963365
0.00271115991768207
0.00281385699109406
0.00290720771348694
0.00299099491841247
0.00306511932068974
0.00312957206471807
0.00318443218486004
0.00322986365057493
0.00326611634215393
0.00329351876836965
0.00331246856790417
0.00332342155922139
0.00332688551137891
0.00332339451412016
0.00331351892942313
0.00329779515539992
0.00327674392219152
0.0032507554767829
0.00322020570454196
0.00318560154465786
0.00314747553141468
0.00310640997659627
0.0030629054398727
0.00301744711213875
0.00297035401307637
0.00292176026806803
0.00287187292354056
0.0028208954517849
0.00276916085975054
0.00271697358609021
0.00266429746046326
0.00261137629406809
0.00255811609153729
0.0025045984355969
0.00245093341820389
0.0023971308217371
0.00234317213577771
0.00228903290998644
0.00223467138379404
0.00218005546421135
0.00212512382838952
0.00206976143017831
0.00201386280977345
0.00195724146432618
0.00189977154746665
0.00184116176468403
0.00178126228525205
0.00171953222319412
0.00165588596924703
0.00158925039996303
0.0015202195356731
0.00145057958794114
0.00137913523883301
0.00130163003159497
0.00122059158604772
0.0011275631044713
0.00103148432876306
0.000912668121937182
0.000798727255185258
0.000637693849709416
0.000719297050873567
0.00102879116153934
0.00141279558378726
0.00186487517568125
0.00241130040307712
0.00304503646240807
0.00361464337246174
0.00408820982513923
0.00443142761211292
0.00460295011387615
0.00484246920317304
0.00529813137964542
0.00607714703503703
0.00776524931036878
0.0103098793559207
0.0141516874352748
0.0189872176545217
0.0189369514735091
0.0122541739171911
0.00754082793362349
0.00570572843023604
0.0149611244432701
0.0106142327420845
0.00453046085443444
0.00107645843747331
0.000663604123204929
0.000591228242303173
0.000263089186320603
0.000131390313368191
8.3505316225864e-05
7.0973425109221e-05
7.77564158932953e-05
9.63307880752524e-05
0.000127964068877967
0.000170349073109778
0.000220870774888894
0.000274036260441075
0.000321884424534672
0.000362495245708501
0.000394821899615713
0.00041462586429617
0.000448571031310607
0.000578426583427633
0.000865165566647775
0.00119035089561448
0.00153267009184584
0.00187901193995781
0.00222695325173731
0.00257175889238398
0.00291326484229861
0.00324950369199864
0.00357988211273144
0.00390298562906167
0.00421785954418649
0.00452345183910459
0.00481921090135628
0.00510570514113311
0.00538260623718211
0.00564034130639268
0.00587948968909669
0.00609916864924682
0.00629880457961724
0.00647818822066747
0.00663735932191762
0.00677654212980984
0.00689609572471686
0.0069965053300923
0.00707837582326042
0.00714243021496408
0.00718949548001449
0.00722048645810529
0.00723638882586161
0.00723824594671941
0.0072271247101332
0.00720412030581257
0.00717025609671869
0.00712649052393872
0.0070735517809475
0.00701214652210798
0.00694319441586918
0.00686766550731322
0.00678660331713421
0.00670090984261814
0.00661145341307429
0.00651880801865916
0.00642320240702585
0.00632501326431198
0.00622458354399077
0.00612253112120716
0.00601940743450571
0.00591507472549678
0.00581003676804422
0.00570415341747863
0.00559739962540347
0.00548995645298506
0.00538187166896939
0.0052730890851858
0.00516353292091479
0.00505309571340061
0.00494168465218162
0.00482914924001336
0.00471523909550951
0.00459969742684952
0.00448213186432676
0.00436221705580661
0.00423936429989672
0.00411314426344452
0.00398251231055611
0.00384701970266146
0.00370468739496388
0.00355536368064008
0.0034016064179733
0.00324269724603865
0.00307010573247575
0.00288768202445607
0.00267876576510877
0.00245909437948643
0.00218940678582177
0.0019232432701246
0.00155557374136356
0.00172505227153698
0.00238371562976143
0.00321130564617786
0.00418832096508366
0.00536872438241998
0.00673837322739838
0.00802968629639539
0.0091624615141575
0.0100597855008379
0.010636002239296
0.0113223215213012
0.0124523778351808
0.0142929203670297
0.0180033904303398
0.0235494014374492
0.0315940674021448
0.0413226992109112
0.0431244791967289
0.0311665547493899
0.0204227389991299
0.0150598749112858
0.0283342166231104
0.0200080149250949
0.00868415290738609
0.0020217256396877
0.00112763700170441
0.00100530744325803
0.000459547034690239
0.000230014096404103
0.000145657703048417
0.000123319050270328
0.000134506347308798
0.00016643503515712
0.000220873200320435
0.000293666241465272
0.000379706068786904
0.000469168134800338
0.000549245233306053
0.000617681724835859
0.000671635552694651
0.000717940453460903
0.00080369993982097
0.00105095234944237
0.00151539762816012
0.00201166871415064
0.00250702678028052
0.00298609435164205
0.00344947224425759
0.00389414772141181
0.00432200794591846
0.00473267149626226
0.00512686093200401
0.00550440418075951
0.00586542095153843
0.00620993164084965
0.00653827686856549
0.00685168708382159
0.00714001860249996
0.00740650711765629
0.0076512170065605
0.00787407376371597
0.00807522596785112
0.00825504217368051
0.00841402759664681
0.00855277207125598
0.0086719225278389
0.00877218163967214
0.00885431063922625
0.00891913211912529
0.00896752309204357
0.00900040687026503
0.0090187435299499
0.00902351814412674
0.00901572432277398
0.00899635418303031
0.00896634194693623
0.00892654061836292
0.0088776271216607
0.00882026537071087
0.00875528024556034
0.00868355398563317
0.0086060198055573
0.0085234973406495
0.00843677671282256
0.00834640904481898
0.00825262218856694
0.00815579677328396
0.00805622633955727
0.00795451230415992
0.00785118971475109
0.00774649181998766
0.00764022876642131
0.00753242694735349
0.00742313173645202
0.00731248116667427
0.00720051301719268
0.00708715835106712
0.00697231105579576
0.00685583220313568
0.00673758557385902
0.00661737399260325
0.0064949066334089
0.0063698419517235
0.00624173333600351
0.00611011346972064
0.00597434140506377
0.00583373990465696
0.00568725269711472
0.00553391600953921
0.00537189975426266
0.00519973977867435
0.00501594877116495
0.00482320195843319
0.00461338258581036
0.00438596550716574
0.00412629425390757
0.00384094901867832
0.00349325973123806
0.00312363394339995
0.00262459103014053
0.00279769926438674
0.00356502847952509
0.00457417516866876
0.00578617490942932
0.00726264426464895
0.00899224882541498
0.0107518481017055
0.0124361292843549
0.0139509724385745
0.0152145099871564
0.0166084033364604
0.0185362031459468
0.0213841766013191
0.0263515373649333
0.0334245696374656
0.0427142411368233
0.0525919613679725
0.055291936157837
0.0473502045374923
0.0374399521040911
0.0303271670408461
0.042575116740626
0.031402058234864
0.0147283613991653
0.00345799158467879
0.00161675426235692
0.00142485143553972
0.000675726330310286
0.000340812009909434
0.000215983702625425
0.000182786083632494
0.000198794780273321
0.000245734514152059
0.000324765644209208
0.000428383394303617
0.000546878032067935
0.000665077302426805
0.000767846315719934
0.000856418662598128
0.000935292215747878
0.0010254850593966
0.00118739227817134
0.00152887778686321
0.00203676091357977
0.0025423163132006
0.00301858091901332
0.00346377116178391
0.00388402886720099
0.00428166384745637
0.00465958560719174
0.00501949025057468
0.00536250329442224
0.00568940201844755
0.00600066818874304
0.00629683994857415
0.00657848328965475
0.00683974335900071
0.00708168317116137
0.00730536830868258
0.0075108299360494
0.00769815175395674
0.00786755623657568
0.00801939303745446
0.00815410188350252
0.00827217577438027
0.00837414896888112
0.00846059530616994
0.00853213204484311
0.00858942094818294
0.00863316348850617
0.00866409540350063
0.00868297912571435
0.00869059217534995
0.00868771986271217
0.00867513767360542
0.00865358953476384
0.00862375314847528
0.00858620597337146
0.00854151492891215
0.00849033996317
0.00843338888805527
0.00837139297647845
0.00830500386034846
0.00823485031962244
0.0081614093815795
0.00808491109846866
0.00800570885355913
0.00792402980757519
0.0078407595606987
0.00775590923269076
0.00766958161405976
0.0075817862843461
0.00749257578495253
0.00740201774584397
0.00731021775578877
0.00721722659710383
0.0071230161036858
0.00702751670940317
0.00693063395948655
0.00683226716678063
0.00673227027536075
0.00663043782455458
0.00652649718392348
0.0064201293037359
0.00631093780111926
0.00619848609344836
0.00608216289151955
0.00596131585553315
0.00583493767039698
0.00570207323352826
0.00556086618836392
0.00540887725131277
0.00524784418168791
0.00507513977536831
0.00488469564354428
0.00467310201910791
0.00442992385617121
0.0041455607905353
0.00381186339924625
0.00339568398613391
0.00346135084456324
0.00401949290452554
0.00485743609252335
0.00591667804285992
0.00723078800235605
0.0087819552727574
0.0104517273981633
0.0121605033162671
0.0138419756123336
0.0154848033040589
0.0173186063658676
0.0196391381723764
0.0228350816729124
0.0275664451547309
0.0338097449989985
0.041025423711265
0.047594715775595
0.0490111905538336
0.0482302137269906
0.0474070345077626
0.0452709680417319
0.0498571098833906
0.0406283897586352
0.0221909473991283
0.00567774768397321
0.00209693762378314
0.00177429628205694
0.000887204637561577
0.000454805360404199
0.000290246690693592
0.00024646986899654
0.000267443884032271
0.00032933197325945
0.000429938112793139
0.000555445368280507
0.000689140727501423
0.000812401560766524
0.000915261524567021
0.0010083679706219
0.0011087371763585
0.00124703112097422
0.00147476170089617
0.00183784603789913
0.00225855407275629
0.00269054469987877
0.00308941838842803
0.00346709204325793
0.00382343910482348
0.00416337013760891
0.00448693908313076
0.0047963239287165
0.00509159332301772
0.00537355584606827
0.00564232600338687
0.00589840048265888
0.0061392738478642
0.00636316258046864
0.00657125781459067
0.00676393185984176
0.00694114710478633
0.00710297503814767
0.00724958588691257
0.00738124641717249
0.00749830248429442
0.00760114808975769
0.00769021764532393
0.00776598222602684
0.00782895209264886
0.00787967627100352
0.0079187381980707
0.00794675109329317
0.00796435072938271
0.00797218467496352
0.0079709076950323
0.00796116430752094
0.00794358134772452
0.00791873523775597
0.00788714222883657
0.00784930500566736
0.00780578278856015
0.00775717344268537
0.00770408557726286
0.00764706527473807
0.00758664198056111
0.00752324399574696
0.0074570999388663
0.00738853970615404
0.00731810321464453
0.0072461126347493
0.00717262150474985
0.00709777059714936
0.00702162939450149
0.00694426596981718
0.00686576244264371
0.00678621543460717
0.00670569087958103
0.00662419687112217
0.00654170254884527
0.00645815841910359
0.00637350655390299
0.00628765680550592
0.00620048287095438
0.00611179510577169
0.00602138993839971
0.00592897751771581
0.00583429428994727
0.00573687399790355
0.00563637298885051
0.00553195487866607
0.00542326791763398
0.00530861596873094
0.00518667047331514
0.00505711744515858
0.00492160803499305
0.00477202075567204
0.00461315985411472
0.00442606252068483
0.00422451773558739
0.0039656078382898
0.00370349497215515
0.00367542073084967
0.00401029065084783
0.00463051535485917
0.00546922594918529
0.00652881421802653
0.00777917961664513
0.00915744605461857
0.0106115918778413
0.0121010597973906
0.0136610592809932
0.0154358398352973
0.0175944627599844
0.0204824261444522
0.0243006243918829
0.0290483488144061
0.0340790313140952
0.0383155829404018
0.0391128049517188
0.0405547873108064
0.0465714302463614
0.0510903684809363
0.0492845715150152
0.0447527024611951
0.0295514888627401
0.00899169700104366
0.00258952663233967
0.00197562432532915
0.00106146238995214
0.000559496441235947
0.00036243297919086
0.00030989284000259
0.000335008015400081
0.000408327920075571
0.000520517996648797
0.000649810445722318
0.000774955218464584
0.000881966442313092
0.00097321129830968
0.00106731221262501
0.00118741980687329
0.00136356548405616
0.00162640425015579
0.00196717605917705
0.00229124262938081
0.00266812318702211
0.00300887309961176
0.00334127161957153
0.00365434908751857
0.00395612150632456
0.00424364091355651
0.00451962674840573
0.00478327489257738
0.00503543157303713
0.00527592330425411
0.00550463945858523
0.0057186446520391
0.00591833420496902
0.00610419700572572
0.00627637557741372
0.00643481369587105
0.00657957317901727
0.00671079002475687
0.00682868307752726
0.00693354460681349
0.00702571262188675
0.00710556414308807
0.00717351041726666
0.00722999843121808
0.00727551002975129
0.0073105577870012
0.00733568089649806
0.00735143815079308
0.007358398203054
0.00735713570170012
0.0073482162557551
0.0073321947607338
0.00730958787447176
0.00728087203389315
0.00724650605203921
0.00720698592654436
0.00716283907685844
0.00711459833840537
0.0070627423772654
0.00700773835480013
0.00694998091270867
0.00688969158502258
0.00682738556142823
0.00676338488725463
0.00669785836246668
0.00663092574168099
0.00656273784558471
0.00649338867712519
0.00642295530682414
0.00635152653837187
0.00627919555444113
0.00620603672020394
0.0061320797375602
0.00605731877076304
0.00598173292226498
0.00590529268916172
0.00582794460548513
0.00574961156272434
0.00567016092677473
0.00558945997869777
0.00550729622225175
0.00542350751072747
0.00533774097513287
0.00524982130618393
0.0051590786993462
0.00506545983536426
0.00496753757052739
0.00486498833600029
0.00475594474208069
0.00464445489443212
0.00452220003727178
0.00439782154198726
0.00424983556648391
0.00410498715969396
0.00390257037345551
0.00375804644851063
0.00369451769974314
0.00388959187639179
0.00434974660419411
0.00501527613830997
0.00587070895635291
0.00687791940266996
0.00799747439483792
0.00919458250728947
0.0104426103401002
0.0117893544684667
0.0133401481400607
0.0151793750075876
0.0176051666470004
0.0206041805992715
0.0242081167509679
0.0278919752151951
0.0309694906631123
0.0317446528230957
0.03297080798512
0.0404405390482325
0.0487608160944076
0.044305286282999
0.043760670042861
0.0354040480838679
0.0134215032749539
0.00317237201076146
0.00200820297878395
0.00116845726353933
0.000640575031282996
0.000424633397549251
0.000366568272302475
0.000393672882367598
0.000471647555345551
0.000582256582668342
0.000699242995877407
0.000803996637720774
0.00089276843973222
0.000977408524087125
0.00107743631062479
0.00121529876804121
0.00141480849954932
0.00168872289453389
0.00199760138451183
0.00225990087983709
0.00260589104683771
0.00290864360293179
0.00321270820643433
0.00349734497011539
0.00377394600433852
0.0040372919362739
0.00429067809771112
0.00453274791204178
0.00476441184052082
0.00498538211664991
0.00519453602772066
0.00539032669171907
0.00557328702650714
0.00574363900320325
0.00590143179072277
0.00604661233017079
0.00617923810917956
0.00629942531377849
0.00640736552052183
0.00650331987386557
0.00658759357719548
0.00666052906189408
0.00672250082067296
0.00677391620628676
0.0068152145882753
0.00684686332020732
0.0068693540312822
0.0068831957903442
0.00688890621152231
0.0068870077345622
0.00687801521689138
0.00686243670740898
0.00684075124169609
0.00681340806378443
0.00678083499785383
0.00674348590025762
0.0067018403619093
0.00665638118235802
0.00660754108248663
0.00655574532860161
0.00650136408576167
0.00644470330184739
0.00638628110436639
0.00632621456162568
0.00626468466605796
0.00620183509074338
0.00613781957450013
0.00607274393588662
0.00600669068668977
0.00593975143723035
0.00587201760451758
0.00580356802431378
0.00573444520651007
0.00566465926486307
0.00559420733842764
0.00552307839699088
0.0054512427647452
0.00537865391615317
0.00530521742983942
0.00523084419201979
0.00515537542680163
0.005078708686865
0.00500057343272006
0.00492088562821103
0.00483911015677617
0.00475533482727787
0.0046683842736823
0.00457851600747133
0.00448316590572852
0.00438730268969514
0.00428320202828113
0.00418093536187548
0.00405908311112831
0.00395059824901991
0.00378661823788146
0.00371790681700149
0.0036542708231372
0.00377049538753655
0.00412104187670857
0.00466061042119885
0.00536596355002893
0.00619545655595552
0.00712036911600033
0.00811669975387541
0.00916591225425714
0.0103144353013077
0.0116481839683013
0.0132027421149214
0.0152353035001634
0.0176538352119889
0.0205139419340542
0.023416570412974
0.0258841096173907
0.026736521894236
0.0275211591968281
0.0338090581091156
0.0431205024169352
0.0386051639268177
0.039276868782676
0.039010438385659
0.0185774662469588
0.00403848700937742
0.00194726312979556
0.00120157517169409
0.000689282990731773
0.000470054612554371
0.000410422822718769
0.00043701163525947
0.000512998206292383
0.000613168588763564
0.000712563984284567
0.000799249216290796
0.000877734348247953
0.00096298633193623
0.00107179160244465
0.00122356183389071
0.00143534665524083
0.00170786813059678
0.00198855963538597
0.00221835284602415
0.00254528327405649
0.00282264888311346
0.00310778311035948
0.00337283191030803
0.00363191052127312
0.00387826588780172
0.00411562123486616
0.00434230007978955
0.00455924765531759
0.0047660498677818
0.00496101745735388
0.00514377221434237
0.00531463799556332
0.00547370844447187
0.00562098981204745
0.00575643739361848
0.00588010522519764
0.00599209648000979
0.00609258548022603
0.0061818136496319
0.00626006546582237
0.0063276610420587
0.00638495089147697
0.00643231616854452
0.00647016808647723
0.00649894385442187
0.00651910329364507
0.00653112214721498
0.00653548379558972
0.0065326754882936
0.00652317826794534
0.00650746879399801
0.00648600185576289
0.00645920803913539
0.00642749312159714
0.0063912820719183
0.00635102098837663
0.00630715841555849
0.006260094502478
0.00621022514728866
0.00615792368020951
0.00610362181334797
0.00604762582879108
0.00599005086958212
0.0059310795816301
0.00587086637938288
0.00580956601058536
0.00574729073428984
0.00568412675331528
0.00562016688807179
0.00555550175377183
0.00549021286908942
0.00542435082362813
0.00535793646340399
0.00529097898223338
0.00522348006149773
0.00515542638842043
0.00508679158579572
0.00501750801605173
0.00494751502568715
0.00487669257498145
0.00480497559744551
0.00473215492667405
0.00465819835555429
0.00458267839285298
0.00450574818558288
0.00442644716578143
0.00434527762354053
0.00425966985017636
0.00417456015490468
0.00408315449697832
0.00399577344207137
0.0038921549998181
0.00380764291196201
0.00367080500175175
0.00364900618419488
0.00360017630923204
0.00367354835220206
0.00394871401503093
0.00439591039400578
0.004989895739999
0.005688515070732
0.0064688648219389
0.00731418984333295
0.00821133701071102
0.00920132150649161
0.0103586992249982
0.0116922493022059
0.0134260255904657
0.0154465400255768
0.017825798759693
0.0202503108664543
0.0223531780145128
0.0232457256614963
0.0237663490384257
0.0284271983434129
0.0371109295469973
0.0338856220459763
0.0333096306878436
0.0402567700441685
0.0237723691119889
0.00538177016228288
0.00190671178045654
0.00118379395951775
0.000708925981804825
0.000497355275200072
0.000439515169825762
0.000464038156432081
0.000534401096192871
0.000621919483524597
0.00070632068389815
0.000781762091276609
0.000856993604132754
0.000946565053968306
0.00106414721776498
0.00122587385168287
0.00144307165776961
0.00170894279798685
0.0019678749528402
0.00218269679978601
0.00249559910630904
0.00275569598646229
0.00302738629050633
0.00327855281499503
0.00352501343072887
0.00375912309245597
0.00398482589288607
0.00420029056152337
0.00440645689654152
0.00460264283067395
0.00478732119024622
0.00496053048624671
0.00512248219279878
0.00527320008068601
0.00541266849914888
0.00554085052268235
0.00565779616187778
0.00576359882884713
0.00585842085692034
0.00594249039215386
0.00601607825633141
0.00607948968542835
0.00613305917376291
0.00617715024007516
0.00621215522084353
0.00623849105820167
0.00625659619091271
0.00626692396078369
0.00626993472351415
0.00626609195986946
0.00625585415129625
0.00623967702158457
0.00621800009943955
0.00619124162343419
0.00615979193980191
0.00612405624800176
0.00608445702415561
0.00604141918084092
0.0059953193194484
0.00594653217133977
0.00589551809983315
0.00584264880995256
0.00578812871137895
0.00573209410869928
0.00567472689507124
0.00561618753059567
0.00555663153787911
0.00549617515032357
0.0054349074097602
0.00537292180136141
0.00531030889168
0.00524715216967611
0.00518350769269984
0.00511940394222959
0.00505485865875943
0.0049898828200585
0.00492447505861985
0.00485862304378329
0.00479227876633287
0.00472540121616195
0.0046578994326996
0.00458973322592422
0.00452074071969568
0.00445092047512292
0.00437993203142519
0.00430795630760481
0.00423421313474753
0.00415930369192729
0.00408088491592419
0.00400351303481436
0.00392138632514694
0.00384448781324828
0.00375418876731864
0.00368600535285166
0.00356946192017301
0.00357601636212706
0.00354642990855903
0.00359788602963692
0.00382058835533136
0.00419862618423796
0.00470778757458147
0.00530730370859192
0.00597816591615383
0.00670879133460116
0.00748985921881645
0.00835632097628109
0.00937492168001764
0.0105402339268932
0.0120500346441514
0.0137921179993567
0.0158506753171353
0.0179616459063292
0.0198217889550456
0.0207093791393165
0.021088792106014
0.0244536647711081
0.031735935435614
0.0303006536172713
0.0274438187030011
0.0394755461115819
0.0282554447348216
0.00728527182336332
0.0019718606688525
0.00114931121399881
0.000711512807495338
0.000511102317075131
0.000456652879703219
0.00047862048892657
0.000542497137235954
0.000618966990388773
0.000692975300815779
0.00076274480182048
0.000838595036685518
0.000933559032565443
0.00105872949169023
0.0012272370231538
0.00144590099244442
0.00170344859514066
0.00194666103003828
0.00215607687824655
0.00245743939358224
0.00270588547815466
0.00296769981699786
0.00320900228613737
0.00344629442513775
0.00367156677287101
0.00388878625621632
0.00409608553689677
0.00429437797258399
0.00448266116438882
0.00465983958527032
0.00482605298002691
0.00498143828598524
0.00512597772234213
0.00525964286110326
0.00538240230837371
0.00549430122057815
0.00559542489705806
0.00568592677717719
0.00576602582518738
0.00583598386001336
0.00589609628671428
0.00594668709572126
0.00598810819133408
0.00602073964029627
0.0060449851929778
0.00606126942155397
0.00607003116972771
0.00607171587403841
0.00606677152161528
0.00605564212218901
0.00603877007452899
0.00601658620085439
0.00598950137230696
0.00595789565534367
0.00592216121263676
0.00588270414044709
0.00583993340952116
0.00579420852101157
0.00574592092452054
0.00569559170463807
0.00564346424637978
0.00558973210509887
0.00553454456288232
0.00547808270893705
0.00542051139752525
0.00536198729604896
0.00530262946735069
0.00524252939434561
0.00518178116640027
0.00512047594577486
0.0050586989929024
0.00499651033247672
0.00493394414317084
0.00487102454254754
0.00480776967877573
0.00474418735598223
0.00468027551093981
0.00461600103370764
0.00455133710386743
0.00448621530158907
0.00442061288758394
0.0043544054022469
0.00428761035966191
0.00421995855278583
0.00415163958418065
0.00408202479143616
0.00401174381368066
0.00393876031092772
0.00386711708245233
0.00379198076081601
0.00372270378784249
0.00364248409632773
0.00358567650311125
0.00348506224147407
0.00350811112917214
0.00349745237553334
0.00353926763669012
0.00372519822028962
0.00405047691097025
0.00449337332420851
0.00501571389302385
0.00560166011557109
0.00624348557339906
0.00693462975155338
0.0077043583784075
0.00861334333043516
0.0096491774114238
0.0109890526112068
0.0125307024317738
0.0143679828904702
0.0162599374156601
0.0179445512676569
0.0187956421674776
0.0190886825219358
0.0215750626314081
0.0272145791648447
0.0275206268537683
0.0225362311121845
0.037272188327993
0.0316542948151215
0.00977066242957567
0.00220013959781155
0.00112623587393793
0.000709195244272032
0.000517912483660505
0.000466573143785357
0.000485924977841653
0.000543718589276513
0.000611658356228224
0.000679080326590592
0.000746582019862522
0.000824740299696401
0.000924958565183418
0.00105630042390698
0.00122925478364989
0.00144719836314747
0.00169646101503973
0.00192893095124351
0.00213797880882508
0.00242951163054132
0.00267039830954209
0.00292491605088198
0.00315938141848412
0.00339011904360411
0.00360916563385303
0.00382034719725802
0.004021843164299
0.00421454445389959
0.00439706428357793
0.00456888149062025
0.00473007417455611
0.0048807234693359
0.00502078489634429
0.00515022103182085
0.00526900346902114
0.00537717174607836
0.00547480391418026
0.00556204654217058
0.00563911230030528
0.00570625739066963
0.00576377114236617
0.00581197121044877
0.00585120247248877
0.00588183780760195
0.0059042732263352
0.00591892524806829
0.00592622433826791
0.00592660727970952
0.00592051295443387
0.00590837710467149
0.00589063469249262
0.00586771294970805
0.00584001952005064
0.00580792839076217
0.00577182396489881
0.00573210155609325
0.00568916010729408
0.00564334649961192
0.00559513967699554
0.00554497119469817
0.00549304943408692
0.00543956659947887
0.00538468109665865
0.00532857395958542
0.00527141404121511
0.00521335975006615
0.00515453249458047
0.00509502604556305
0.0050349352688444
0.00497435249536137
0.00491336481129335
0.00485203532250461
0.0047904026319037
0.00472849582841695
0.00466633884887094
0.00460394684111596
0.00454132554562168
0.00447845346570091
0.0044153144106984
0.00435185786311118
0.00428807389763943
0.00422386824462345
0.00415927048737443
0.00409407030183614
0.00402845632475452
0.00396192750581204
0.00389510622388001
0.00382628598138059
0.00375894545900091
0.00368917204591496
0.00362554725790339
0.00355314379980161
0.00350435089949272
0.00341667592725559
0.00344859699698961
0.00345457499430503
0.00349391057440098
0.00365404898799673
0.00393848308128164
0.00432850075804583
0.00478930900555134
0.00530801361285268
0.0058798329938457
0.00650013339711774
0.00719312271344526
0.008014405682904
0.00894884405821452
0.0101577651081043
0.0115516007684897
0.0132316872731497
0.0149615204803429
0.0165102444646677
0.0173052820781401
0.0175342107170103
0.0194502836558151
0.0235421615944358
0.0251940208290576
0.0188617801577832
0.0343151163186549
0.0340488059460019
0.0128360663092371
0.00265097573662908
0.0011346412080213
0.000710291600866551
0.000523140758632918
0.000473352012613769
0.000490021050655208
0.000542403354257317
0.000603984786992013
0.000667369426971092
0.000734444772046633
0.000815461750337565
0.00092035778334933
0.0010565739541546
0.00123231918172686
0.00144841229761944
0.00169023293353638
0.00191586664477791
0.00212714875932454
0.00241039076190595
0.00264680091758529
0.00289606034082239
0.00312608660973288
0.00335237141365589