/*--------------------------------*- C++ -*----------------------------------*\
  =========                 |
  \\      /  F ield         | OpenFOAM: The Open Source CFD Toolbox
   \\    /   O peration     | Website:  https://openfoam.org
    \\  /    A nd           | Version:  7
     \\/     M anipulation  |
\*---------------------------------------------------------------------------*/
FoamFile
{
    version     2.0;
    format      ascii;
    class       volTensorField;
    location    "20000";
    object      gradU;
}
// * * * * * * * * * * * * * * * * * * * * * * * * * * * * * * * * * * * * * //

dimensions      [0 0 -1 0 0 0 0];

internalField   nonuniform List<tensor> 
15600
(
(0.0519165012020543 -0.00841605270609805 -2.91169085780498e-21 12.8933146637762 -0.0969040169392457 2.53904641813813e-22 -8.96749646930136e-22 3.69322483635143e-23 -4.90194410128296e-43)
(0.826352102395844 -0.0528932077510003 6.78896389778403e-23 13.8735739003982 -0.801263729462236 2.90307219032259e-21 -1.65622071429556e-23 2.97353561162978e-23 5.80907170837193e-43)
(0.0770573794848308 0.0228231090612888 -3.17626509558725e-21 1.24000269534744 -0.13911479128106 -1.33968025171612e-20 9.26488879126072e-22 -6.76304792913992e-23 -9.20420909004653e-44)
(-4.374176703466 2.14522455623338 3.56720908805883e-21 -8.78623095033936 4.27186170122799 7.4956715018221e-21 7.93093452148109e-22 -4.27528717182034e-22 2.80682484049571e-44)
(-4.66926621567312 3.10568963309588 -1.84366623781945e-17 -6.96061819037285 4.58634246648186 1.20463952036694e-19 -8.15675645556994e-22 4.39701981446299e-22 -2.88674513392552e-44)
(-3.2551185501545 2.51601162881274 1.24229512006304e-16 -4.17424757067055 3.20880648031345 1.58385648319799e-16 0 0 0)
(-2.41360353200294 1.99305508576484 1.81921524495822e-17 -2.88478979240255 2.37704489528032 -3.60596415960279e-19 -2.1609769809506e-21 1.76050704318564e-21 3.21012616925345e-42)
(-1.6561713730033 1.38089026329132 3.99820258166141e-20 -1.9675927143162 1.63996945486698 4.36796294532205e-20 2.02947178408041e-21 -1.6533722484394e-21 -3.01477551184842e-42)
(-1.22864603160621 0.998815078117892 -5.15537609107641e-16 -1.50011518314402 1.22034584360779 -5.5742541658687e-16 0 0 0)
(-1.01088482163638 0.806931766392637 -6.52104239450832e-16 -1.26438687775849 1.00991208718325 -7.72516449803243e-16 -1.67281578163597e-17 1.33609915888718e-17 -1.02532705184123e-32)
(-0.968335588707025 0.762038576902616 1.97430914834113e-16 -1.23074402026461 0.969046331180888 1.86275969646619e-16 0 0 0)
(-1.03045047821813 0.804961138912807 2.67774121334983e-17 -1.32241415523461 1.03368883498383 -2.38937636639877e-18 0 0 0)
(-1.16810478283401 0.902202863036702 3.20176631835512e-17 -1.51245038635929 1.16981166823752 -3.68331845695715e-18 -1.05230169355522e-20 7.96964331754144e-21 5.2868221052924e-36)
(-1.27506482799792 0.952795005667772 3.08069049788161e-16 -1.70256358288238 1.27599157777324 4.12680967288398e-16 9.99644588812938e-21 -7.57084291125055e-21 -5.02226988889174e-36)
(-1.31844118310921 0.921797858775747 4.72197876656318e-16 -1.87590135082773 1.31819261250703 6.15408154133801e-16 0 0 0)
(-1.24555914517355 0.781562285989818 5.63627289686906e-16 -1.96860732671692 1.24550962565581 8.87030223196961e-16 2.40333304871783e-17 -1.51978178487605e-17 -1.08331326689058e-32)
(-1.06752614497352 0.568424266313436 -3.01347453255551e-17 -1.98258550186354 1.0698808085026 1.93692470651488e-18 -1.11593593555526e-20 5.50625636313279e-21 5.49026811352257e-36)
(-0.835770818047529 0.355279596076233 2.15435233666725e-16 -1.93417855044103 0.840300118731996 4.91749164783796e-16 2.17767882514156e-17 -9.45256913525273e-18 -5.54236833859074e-33)
(-0.583263811474693 0.18129322884694 -3.68686474488815e-17 -1.82217617611008 0.589493015220744 3.90773572429907e-18 0 0 0)
(-0.335133579351314 0.0628134573244865 1.55338957122822e-19 -1.64403812397991 0.341552069783817 7.41669544473909e-19 0 0 0)
(-0.155872517871128 0.00857026541401358 -3.68415666129654e-19 -1.55916911195031 0.155676618285781 -7.19910005201468e-19 0 0 0)
(-0.0590835500660595 -0.00159780383515641 6.69385579838458e-21 -2.53564394463981 0.0696391690053349 1.60815571970297e-18 -2.04818417261416e-19 5.59993337870209e-21 1.2973098541938e-37)
(-0.0528910995171365 -5.2257210117096e-05 3.00320338867974e-19 -4.02741890450501 0.0556040691563279 -2.89644465843814e-20 0 0 0)
(-0.0425711971769593 0.000142934163017209 0 -5.10663707640213 0.0497032150084013 0 0 0 0)
(-0.0369678839822183 0.000101292836522092 0 -6.07492391507814 0.0430711052368305 0 0 0 0)
(-0.0305958411907715 9.08175719072673e-05 -2.11730966431783e-15 -6.84816328989671 0.0379303727336924 1.82709104867556e-16 0 0 0)
(-0.0258401207089979 7.06107917738858e-05 -2.20361345037722e-15 -7.50010332789316 0.0333738872559931 9.65643693341942e-15 -4.11770504925758e-15 1.83302876699448e-17 5.41950202580889e-30)
(-0.0217022383867289 5.97487819536281e-05 2.11730966431774e-15 -8.03718512514859 0.0298575428298946 8.4155676030853e-15 -4.44119426463545e-15 1.64988091530657e-17 4.53615985623183e-30)
(-0.0183508338598336 4.6650072724591e-05 2.20361345037738e-15 -8.48751574188326 0.0268464335998429 -1.78224928325553e-16 0 0 0)
(-0.0154308901863709 3.58433655451029e-05 4.54395721084902e-20 -8.86097638735012 0.024313678081752 -7.44421227742881e-19 0 0 0)
(-0.0128749575313469 2.45105232981202e-05 -2.61702714227588e-15 -9.16927670562549 0.0220243487455083 1.93242116589272e-16 5.01656008398676e-20 -1.77693259196593e-22 3.54224659348678e-34)
(-0.0105447179561707 1.3896622777275e-05 -2.75638052185861e-15 -9.4182971668236 0.0199224120128384 1.06398705978582e-14 -5.37603512647825e-15 1.13496727605614e-17 6.20059720749574e-30)
(-0.00839394476429447 3.50991498971795e-06 2.61702714227561e-15 -9.6134456315067 0.0179186510998825 9.64272347480597e-15 -5.51856865820615e-15 1.03098206162913e-17 5.41213481371999e-30)
(-0.00637521845061491 -6.15389993968884e-06 2.75633508228666e-15 -9.75827674240729 0.0159932841590318 -1.90634868193238e-16 0 0 0)
(-0.00446732743772943 -1.52865588613939e-05 2.80355616071529e-20 -9.85598116466763 0.014115547307731 8.91078466378575e-19 0 0 0)
(-0.0026513520680699 -2.39372270188121e-05 -2.80313468922984e-20 -9.90904460448205 0.0122740680855645 3.85068479081059e-19 2.72777742605435e-20 -8.69535956538148e-23 -2.85243861611911e-43)
(-0.000920056070774973 -3.22118900143128e-05 -2.80355616067183e-20 -9.9197797610053 0.0104538933930084 -3.81595657643958e-19 -2.7277774260544e-20 8.69535956538166e-23 2.85243861611916e-43)
(0.000731568507070622 -3.98132371963527e-05 3.39175040936553e-15 -9.89034462230342 0.00865834308274761 -1.89384147397865e-16 7.25175896710417e-31 -6.34515874301527e-34 1.1558160909851e-61)
(0.00230260068400171 -4.6553941800154e-05 3.56232618688359e-15 -9.8228268416627 0.00689266621303631 -1.29257784002633e-14 5.39778729953914e-15 -3.75907801193737e-18 7.22308645134729e-30)
(0.003785694855279 -5.23351221122468e-05 -3.391756846699e-15 -9.71941971439818 0.00516905065699254 -1.21963122855305e-14 5.36429017546115e-15 -2.87805514764651e-18 6.61823934358887e-30)
(0.00517180033246141 -5.71740355876807e-05 -3.56232753076531e-15 -9.58250243660547 0.00350253715570243 1.79758506268639e-16 -2.65284689296537e-20 7.15170195546034e-23 -2.42372590451145e-39)
(0.00645618584721463 -6.11323210528478e-05 1.07530729002e-19 -9.41457852688537 0.00190234259903045 5.73562805520935e-19 4.36942342786928e-22 -4.13731887727197e-24 7.27747462102908e-39)
(0.00763764195198594 -6.42657126803592e-05 -3.58932244665869e-20 -9.21816551739917 0.000375027328917114 1.00060285794701e-18 5.16661521354312e-20 -1.30410020509062e-22 -7.27831246844943e-39)
(0.00871636855097461 -6.66283491875026e-05 -7.30620484957793e-20 -8.99576518127832 -0.001075191003479 -5.06031461845014e-19 -2.55746255485679e-20 6.30303198317392e-23 2.42456375193252e-39)
(0.0096930437226286 -6.82583071918817e-05 3.72371062824789e-20 -8.74984187122471 -0.00244426206703354 -1.51214277948147e-21 0 0 0)
(0.0105683247940886 -6.91962741397047e-05 -4.77037761922485e-15 -8.48282960285723 -0.0037285525646161 1.69503116472349e-16 0 0 0)
(0.0113431025748974 -6.9486161079967e-05 -4.95207188288161e-15 -8.19712777746454 -0.00492462785118793 1.8788909598317e-14 -4.68540994626491e-15 -2.83395938664915e-18 1.08532102573085e-29)
(0.0120188165018022 -6.91844392392325e-05 4.77037761922476e-15 -7.89509586485991 -0.00602991982493605 1.85827638395236e-14 -4.52530305111439e-15 -3.4415982218037e-18 1.05512251871621e-29)
(0.0125977510254095 -6.83549719687972e-05 4.95207188288226e-15 -7.57903559844821 -0.00704294528942605 -1.51199697128735e-16 0 0 0)
(0.0130828785293212 -6.70573732380777e-05 -1.71321371257873e-33 -7.25117463724218 -0.00796336886900549 -8.16957168909946e-19 0 0 0)
(0.0134781031810805 -6.53692794738874e-05 -1.73978431252115e-33 -6.91365394407786 -0.00879165641116965 4.16453346781313e-19 0 0 0)
(0.0137880110377049 -6.33451653586743e-05 -5.48463958886026e-15 -6.56850297074125 -0.00953031356712335 1.11802863705023e-16 0 0 0)
(0.0140180781848061 -6.10704203743174e-05 -5.64126414208378e-15 -6.21763561515421 -0.0101813165798987 2.3513110982528e-14 -3.42146427199337e-15 -5.61124361705168e-18 1.30119183639291e-29)
(0.0141745678620972 -5.85987820025267e-05 5.48463958886044e-15 -5.86281801280529 -0.0107504746158547 2.38997301179496e-14 -3.23114540872421e-15 -5.91936824882871e-18 1.31158952549599e-29)
(0.014264117648166 -5.60053564869854e-05 5.64125048153955e-15 -5.50567005900384 -0.0112409414915159 -8.5906040476701e-17 0 0 0)
(0.0142939328291683 -5.33643878823626e-05 6.70057705315889e-21 -5.14765080331203 -0.0116605569002804 -4.34774990656008e-19 -3.65206598789646e-21 1.61422458449279e-24 -1.1775932957089e-40)
(0.0142670605781995 -5.06028824309441e-05 2.06536470000106e-20 -4.79007046525359 -0.0120115918770071 3.40970080928454e-19 1.94672892458861e-21 -1.23520061181284e-24 2.33604593730491e-40)
(0.0141841369378919 -4.77663470893478e-05 -1.03382156002144e-20 -4.43425707434832 -0.0122922960084615 -3.49997120963906e-20 1.70533706330807e-21 -3.79023972680048e-25 -1.15845264159596e-40)
(0.0140489196275111 -4.49210154232192e-05 -3.34968053014467e-21 -4.08147164384337 -0.0125073243756585 1.4839703045679e-20 -7.33246068340686e-22 -2.02544506857256e-25 2.44633257978211e-44)
(0.0138674046108029 -4.21342731502035e-05 3.63763854705542e-21 -3.73285451865487 -0.0126605016619141 1.17279393689154e-19 7.33246068340725e-22 2.02544506857266e-25 -2.44633257978224e-44)
(0.0136470436510594 -3.94550559664042e-05 -3.6434220022095e-21 -3.38938449424556 -0.0127609398996717 0 0 0 0)
(0.0133952331781733 -3.69026730526022e-05 7.82149377374501e-21 -3.05186261418977 -0.0128145588570293 3.97023846480675e-23 0 0 0)
(0.0131192350308035 -3.45129863414421e-05 -7.83321297889618e-21 -2.7209332501019 -0.0128300308261245 1.0689222845512e-19 1.00942038604372e-21 1.69947473386086e-24 9.91416812451184e-44)
(0.0128231060262578 -3.22301179898607e-05 -7.82149377374445e-21 -2.39707987544987 -0.0128119107313569 -1.07171674398231e-19 -1.00942038604375e-21 -1.69947473386092e-24 -9.91416812451217e-44)
(0.0125062993587617 -3.00193122829631e-05 7.83321297889641e-21 -2.08078273655326 -0.0127600592105903 7.95237441110904e-23 0 0 0)
(0.0121687285971128 -2.79065971896186e-05 0 -1.77255184726413 -0.0126744043587971 0 0 0 0)
(0.0118123582015743 -2.59035589222137e-05 0 -1.47286214479999 -0.0125578122637803 0 0 0 0)
(0.0114406309632224 -2.40474551918319e-05 0 -1.18212574207269 -0.0124139352304724 0 0 0 0)
(0.0110585209091473 -2.24717358654874e-05 -1.0014912189449e-30 -0.900655265691927 -0.0122498714732159 -2.28763402952818e-32 0 0 0)
(0.0106677096030829 -2.11368818199965e-05 2.81523735765432e-33 -0.628642641581622 -0.0120748841641739 6.73885269065657e-19 -4.61090654221656e-32 -8.8533829543862e-34 4.94156732679955e-50)
(0.0102675301487407 -1.99342145831355e-05 1.00291277091069e-30 -0.36633401958836 -0.0118885576366905 -6.77876356525922e-19 0 0 0)
(0.00985826154353038 -1.88444020022578e-05 7.81698953365053e-15 -0.11395336771147 -0.0116864033929378 2.38077125093758e-16 0 0 0)
(0.00944051950552945 -1.77912918326611e-05 1.57682341948989e-14 0.128267360466244 -0.0114668527732118 -4.44515714256872e-14 -7.03656296582282e-17 6.32277671721457e-18 2.43504878396174e-29)
(0.00901634085816299 -1.66913602188068e-05 1.21043409307891e-16 0.360136273923257 -0.0112328536891693 -9.0792608421384e-14 -3.96541914963602e-16 1.23725596616703e-17 1.00050005892795e-28)
(0.00858592451764828 -1.56278375482341e-05 -1.57683079658421e-14 0.581512198329527 -0.0109823247136541 -4.66398716379778e-14 -3.20065764869253e-16 6.03887640313074e-18 2.58535692993157e-29)
(0.00814797286361491 -1.47732073599227e-05 -7.93803360289009e-15 0.792205955935029 -0.0107153421563671 -3.04626358364757e-16 1.25026542754936e-21 -3.30449908890715e-23 -5.0373395572194e-39)
(0.00770176954777801 -1.41092174906799e-05 2.23032165068822e-19 0.992013496656659 -0.0104341976383799 4.11860188092155e-22 5.21241071656142e-22 -9.54884926048374e-25 1.5094391491862e-38)
(0.00724593870791015 -1.35740444187025e-05 -7.42371435660036e-20 1.1807074960609 -0.0101383181704906 5.94437546721821e-19 -4.03340430833452e-21 6.8918417063629e-23 -1.50898756021328e-38)
(0.00678006943948149 -1.31887354120836e-05 8.31475733297117e-15 1.35801908228918 -0.0098279799449968 4.01374950402194e-16 2.26189780912925e-21 -3.49185412485134e-23 5.03282366749078e-39)
(0.00630148861204351 -1.29082964743565e-05 8.31401385559784e-15 1.52369494237545 -0.00950294734601983 -4.4235458200576e-14 -8.40278645631427e-16 5.24801669399262e-18 2.41435489502319e-29)
(0.00580805395057162 -1.27915780568627e-05 -8.31490659419369e-15 1.67733785381097 -0.00915907573580015 -4.73114449104342e-14 -9.22301367766348e-16 5.02831975453873e-18 2.63013895981746e-29)
(0.00529487844983442 -1.27652578928101e-05 -8.31393895852258e-15 1.81858379038851 -0.00879804871142504 -4.43121701073027e-16 0 0 0)
(0.0047601151346932 -1.29500910068478e-05 7.83103711856739e-20 1.94680229385282 -0.00841034381169104 4.5713451344092e-21 0 0 0)
(0.00419426298038445 -1.31645920141114e-05 -2.35996692023325e-19 2.06152262376031 -0.0080021664351031 1.05644847382614e-18 -4.50467322043999e-21 4.0181768424867e-23 1.06719094032942e-38)
(0.0035978109625618 -1.3725072740077e-05 7.93568444787451e-20 2.16167444087008 -0.00755164080772075 -2.09240182652239e-19 1.40010056273661e-20 -1.22403078758796e-22 -2.12742884919727e-38)
(0.00294843199629916 -1.41030716039163e-05 7.60761875747992e-20 2.24676095698149 -0.00707754135071979 -8.50443342193984e-19 -9.49633240692566e-21 8.22213103339249e-23 1.06023790886777e-38)
(0.00225597869174087 -1.52367617518887e-05 2.23013924625067e-21 2.31469977590263 -0.00652425323690244 8.6767621921889e-19 1.02007815825449e-20 -8.61926382438827e-23 -3.13343312938243e-42)
(0.00146702426065563 -1.55731535366331e-05 3.22094841101589e-19 2.36532804469651 -0.00595448392651 -8.45461839219401e-19 -1.02007815825461e-20 8.6192638243893e-23 3.13343312938281e-42)
(0.000625896366359805 -1.78713716243398e-05 -1.58748863216129e-19 2.39418175629249 -0.00521969688005954 5.30631093008448e-18 -1.04840713340111e-20 9.07195615769699e-23 -2.21067549595441e-38)
(-0.000400024767788439 -1.74982754599656e-05 -1.61012741945232e-19 2.40283448505527 -0.00452602885473452 -6.22390728986138e-18 5.41458264517106e-23 2.36849980937779e-24 2.17940704772277e-38)
(-0.00145673017352967 -2.21349879504975e-05 -3.31390687073277e-19 2.38101448936914 -0.00345902855029744 3.11711861291283e-18 1.97177438782766e-22 2.99610752277974e-24 4.48557791285176e-38)
(-0.00292293611740696 -1.86821965685536e-05 1.64602762311097e-19 2.3366069823352 -0.00261173101924324 -4.50239260818132e-18 2.0069858655863e-20 -1.94697088672165e-22 -6.68061873545755e-38)
(-0.0043070018023675 -2.98339058372159e-05 3.30242195378774e-19 2.24280488860735 -0.000812832442927261 -9.1208756161248e-19 -9.83711058708652e-21 9.86129197630394e-23 2.2263092708374e-38)
(-0.00664810695984152 -1.72681266824391e-05 -3.3545923826237e-19 2.12787802077183 0.000122526847004187 3.18637018068913e-18 0 0 0)
(-0.00840013373174019 -4.59554111136657e-05 -1.308769864805e-21 1.91965666646689 0.00351811403829689 9.54003007049504e-19 7.21725880442143e-21 -1.11208820313987e-22 -2.31464018256667e-38)
(-0.0124442116353487 -6.30362167527547e-06 3.41101598325503e-19 1.71165566304915 0.00396910534453732 3.81974699059012e-20 -1.68440101160822e-21 -8.53234181301518e-25 4.61702110279612e-38)
(-0.0141302223720823 -8.11611619915585e-05 1.95255632557171e-14 1.3052530309924 0.0108874354255271 1.8292330802069e-15 -5.53285779281302e-21 1.12062054495285e-22 -2.30238092022943e-38)
(-0.0210679946779163 6.16427920592577e-05 1.93745452803675e-14 0.994160112037451 0.00845099123764395 -1.08559954012742e-13 -1.11949492897195e-15 -9.39656735941244e-18 1.19879489276484e-28)
(-0.0278092054873129 -0.00133142680094971 -1.90126620995335e-14 0.236051290003683 0.027902390643566 -1.26040300139699e-13 -2.67511282174247e-16 -3.1572497227894e-17 1.43735101313695e-28)
(0.0231743095950712 0.00142405701481542 -1.91865999200267e-14 -0.30308151201138 -0.0302155985832877 -1.89298332451266e-15 3.47128770400603e-21 4.5952009726281e-22 -2.45776451992267e-35)
(0.0115778661798807 0.00399335513742646 2.29129749272532e-16 0.0319467128676368 -0.00501984255839214 -1.11692677303643e-15 -1.62545548483274e-19 2.75553146607839e-20 5.91684516560103e-33)
(-0.148927157173676 -0.0419586482920228 1.98895181058913e-16 0.544549814831442 0.16128307668158 -1.7594089162564e-15 0 0 0)
(-0.519673940287479 -0.212001817085405 -2.3748498298646e-16 1.2849566031675 0.535838829975297 9.83942634095729e-16 1.44274822130733e-17 6.01189981554019e-18 1.08585585827677e-32)
(-1.14276881739243 -0.588932371192315 8.17899194757293e-16 2.21452023637493 1.15596643639481 -8.60534102711459e-16 -8.28857839455755e-21 -4.40894364182959e-21 3.42275788982233e-37)
(-2.10014077533577 -1.27556903600918 4.94096924366886e-16 3.42773546465501 2.09652440853434 -8.39663669198577e-16 -4.17652882028726e-17 -2.55345853222248e-17 1.01940850929746e-32)
(-3.33498042688578 -2.25409149074917 -3.48279125702923e-15 4.87222218542892 3.30543429432556 4.94692507396119e-15 0 0 0)
(-4.72903799739042 -3.41015630032006 2.3722113447665e-16 6.46021890227747 4.66682019967451 -7.86012604978503e-16 -8.30389354182401e-17 -5.9979351119374e-17 9.69732144718029e-33)
(-6.19599032805632 -4.61760342189001 -8.46065711530576e-16 8.17879371390896 6.09937434793476 7.0848819237199e-16 1.06296299994326e-16 7.92656025852052e-17 9.52467841574738e-33)
(-7.57654839799587 -5.72321658641822 1.76131167972754e-15 9.86718548260757 7.45748491218853 -1.88920385513114e-15 0 0 0)
(-8.95614998017591 -6.86925772170897 -1.19637473090941e-15 11.4835568726182 8.81449520658886 1.86601587305465e-15 0 0 0)
(-10.6872944534238 -8.36927773652643 -3.50792830660435e-15 13.4011816826227 10.5044806767395 4.19842968702404e-15 0 0 0)
(-12.9563895415186 -10.4246792531821 3.65169330463406e-15 15.7958094268266 12.7197053487233 -4.59007868394735e-15 -2.11423369485064e-16 -1.70241967359361e-16 6.13252334520587e-32)
(-16.5899113374089 -13.6950902646216 1.77403734931337e-15 19.644781309913 16.2105775205095 -2.08745339742347e-15 -2.6634916348798e-16 -2.1978502719703e-16 2.82953167381856e-32)
(-21.7984235426992 -17.8306418493583 5.50231595219161e-17 26.0040372158274 21.21784650017 1.21927894654655e-18 -1.40341910437199e-20 -1.04458552038644e-20 -7.72407225295816e-37)
(-28.2782751014803 -21.5999866082166 -8.36516114317238e-16 36.1045916021278 27.4339129196006 1.02060690865755e-15 1.46276097948979e-20 1.08875455250774e-20 8.05067528237971e-37)
(-34.3975548180877 -22.6111976394156 -1.67174921225274e-16 51.1950634889741 33.3208482272331 1.73142284785735e-16 6.39193444807763e-16 4.16012604062796e-16 2.16184729201435e-33)
(-34.2681872885344 -16.4814596469408 -2.03786926945095e-17 70.2065209340554 33.1883478401274 1.32008717570237e-16 1.34544080937843e-20 4.69641366012733e-21 1.93157282006852e-37)
(-17.294039404726 -4.4975711775623 3.14572661101512e-17 68.6606435490085 16.9580553450444 -1.20281554765165e-16 -1.28584588479061e-20 -4.48839082035796e-21 -1.8460157775398e-37)
(-3.16590931709028 -0.371353298755095 -1.31501675721621e-17 37.5513012991834 3.07915541354741 -5.88697712036612e-17 4.85758681979341e-17 3.98179088279571e-18 -7.64292607252215e-35)
(-0.216479826680416 -0.0229875547809445 -7.13522500557483e-18 12.8290618655164 0.221688236355233 1.58796291369884e-20 3.23190651038368e-20 5.58271493374673e-22 -5.12858738128211e-41)
(-0.0153302201238131 -0.0301643250499574 3.90106440813627e-21 18.5448579980291 -0.0403427732052094 -8.79833215546721e-23 0 0 0)
(0.767318677248587 -0.0503846012012411 -3.72822458973841e-19 16.5790948044455 -0.721285930729141 -5.57954018076423e-18 0 0 0)
(0.633420574733468 0.0122398073135372 7.71378392185917e-22 5.38804554776061 -0.590193572519665 2.60779942734759e-21 -1.66261270120468e-21 1.01318753266782e-21 -2.26768846404475e-42)
(-3.2304613846775 1.77630246141155 -4.80978105682021e-21 -6.05312634078845 3.3215744251844 -1.13684399385215e-20 -2.41633158034327e-22 8.69662649478433e-23 4.03511515947413e-42)
(-3.8718232626184 2.63985573015064 2.80329405857615e-17 -5.92222714842509 3.93814339557949 -1.84134793248939e-19 2.03644394097496e-21 -1.1790191658645e-21 -1.70987269189807e-42)
(-2.79355682433931 2.17067928713935 -1.13630457612914e-16 -3.71836684952289 2.84361079588013 -1.45562380959124e-16 1.01893295793104e-16 -7.81384913012806e-17 -9.46848503814058e-35)
(-2.11546911130834 1.74955064639372 -2.75951393418447e-17 -2.60585699752112 2.14302444882311 6.1941756873224e-19 8.02648898995517e-21 -6.40459313816012e-21 -7.50106222079061e-37)
(-1.50815105467844 1.247011426704 -4.91981520252591e-16 -1.84189776315889 1.5245329956022 -5.33881666255624e-16 0 0 0)
(-1.15856479250413 0.932118565668119 -1.73766789526324e-17 -1.44185608136479 1.16428314518104 -1.97016311116444e-17 -3.8621605104814e-17 3.13001889849033e-17 -7.49634851438049e-33)
(-0.988348792511967 0.783265147779103 1.13286995125473e-15 -1.24656324944768 0.990570170526203 1.31382830078763e-15 -1.64754433544301e-17 1.309038649576e-17 1.74390441118684e-32)
(-0.969004856057596 0.7617467197906 -1.36236372261436e-16 -1.22793890076337 0.966868202102336 -1.78214032051622e-16 3.16746291239702e-17 -2.49384758588128e-17 -6.54813096950607e-35)
(-1.03872956978503 0.815467990762917 -4.1480664029973e-17 -1.31888389599837 1.03690562967401 3.21641360634479e-18 -1.35230580707084e-20 1.0513968044045e-20 -3.72922529010767e-39)
(-1.16334323179506 0.905432292478159 -8.27304774461594e-20 -1.48695421793099 1.16163807469276 -2.07449629951567e-19 -1.75313303760068e-20 1.31479439134501e-20 7.36276793393228e-39)
(-1.25597065519641 0.943494546558646 -2.42210537720564e-16 -1.65768618897653 1.25608057360034 -4.01591723164266e-16 2.88962137769278e-20 -2.20080764778081e-20 -3.61902814398766e-39)
(-1.28561901928451 0.897973899829624 -8.21049559621497e-16 -1.81389997235217 1.28725539244263 -1.18636802416247e-15 4.5641592968759e-17 -3.22090403847033e-17 7.39963009513266e-33)
(-1.21941914293132 0.754457660167193 -9.78982985268656e-16 -1.91982142492444 1.22040414863766 -1.47489278790407e-15 2.34380066788024e-17 -1.48745579641519e-17 1.8055743256032e-32)
(-1.06734277214707 0.549480607371029 -5.3462912783679e-20 -1.98292837265696 1.06706474074472 -2.21244612342237e-19 -3.32074665087389e-20 1.61424866410673e-20 4.93131186534751e-40)
(-0.86603961435587 0.345569531877424 -4.99058649290367e-16 -2.01449656854026 0.863999375220831 -1.15423947282927e-15 2.26971378143532e-17 -9.70683969762723e-18 1.29899724890133e-32)
(-0.637185754073853 0.175985556647291 -1.13289984851337e-16 -2.01342635483865 0.635029257111585 -3.51172392746843e-16 0 0 0)
(-0.408568883857862 0.0602052938640739 -5.10473333336195e-20 -2.00610129266171 0.407172454567033 3.19157565170577e-20 2.54588110412607e-20 -3.88998397444747e-21 -1.26749344633709e-41)
(-0.254187922881195 0.00704702697843516 3.11508853463916e-19 -2.21775768353976 0.244990375277076 -7.53772241451846e-19 -2.51321295246181e-20 3.8400686087052e-21 1.2512292664933e-41)
(-0.147630568185934 -0.00507816939209357 7.50363493390002e-20 -3.12110982340203 0.154333780679606 4.80698892737649e-18 1.97618746147387e-19 -5.40308741569638e-21 -1.25170748889838e-37)
(-0.139977362719303 -0.00144392200154946 -4.33391568712906e-19 -4.2713832519067 0.132255895359593 4.17985241672032e-20 0 0 0)
(-0.110987659731654 -0.0010975741409918 0 -5.10815385979835 0.108123672677987 0 0 0 0)
(-0.0936293945538154 -0.000998239053143663 0 -5.79713629095126 0.0873708038832363 0 0 0 0)
(-0.0762580909045343 -0.000829804008110074 2.91384989648709e-15 -6.32961143397483 0.0701902874178727 -2.51444989497074e-16 0 0 0)
(-0.0633004368520201 -0.000685657373513634 2.93668769721858e-15 -6.75739461619912 0.0561747905344144 2.90388669389957e-14 4.02626591146757e-15 -1.79031271043268e-17 -5.30573006254385e-30)
(-0.0523152827141734 -0.000557142156002426 -2.91379333089745e-15 -7.09581773941263 0.0449312350557649 3.0677928342866e-14 4.2317647715792e-15 -1.57016320684275e-17 -4.29996317869796e-30)
(-0.0433934040576942 -0.000468958881306696 -2.93674388711648e-15 -7.36492688285246 0.0355592361962982 2.3853965930017e-16 1.25450946051734e-19 -3.37034917527539e-22 -4.90551897493571e-41)
(-0.0356581532794648 -0.000402995464190675 -5.6565589844784e-20 -7.5743168603044 0.0276191981195375 -2.16879363230257e-20 -1.25450946051733e-19 3.37034917527535e-22 4.90551897493567e-41)
(-0.0288776986585049 -0.000358561625344698 3.50581149935127e-15 -7.73263497236831 0.0206465608766296 -2.58637406805115e-16 0 0 0)
(-0.0227178501853756 -0.000325884037412135 3.60355235040757e-15 -7.84514942911778 0.0144093394675849 3.5895171117988e-14 5.2444805481564e-15 -1.10631720646298e-17 -6.0607451305176e-30)
(-0.0170508080561753 -0.000301708575631723 -3.5058881668853e-15 -7.91631649847581 0.00871752575061881 3.82848390104624e-14 5.2672388977138e-15 -9.83491530832515e-18 -5.14458000126886e-30)
(-0.011757807165565 -0.000282114831286929 -3.60348464166856e-15 -7.94944237004071 0.00347808891806039 2.46873757139953e-16 -2.79675831502726e-19 2.74462622094224e-22 4.7050048639866e-34)
(-0.00677998020477926 -0.000266269244298611 1.32857431962166e-19 -7.94736503071333 -0.00139489192777196 2.27296979920775e-20 1.40605541338778e-19 -1.18813032873694e-22 8.50665487798889e-39)
(-0.00207046388565686 -0.000252921211655393 -6.77087388236461e-20 -7.91241035519622 -0.00595006926554326 -3.65520003325551e-19 0 0 0)
(0.00238800524785827 -0.000240845072140926 -5.67265296422082e-31 -7.84670494511179 -0.0102006102036871 -4.28234005092831e-19 0 0 0)
(0.00660725601534932 -0.000228815982492942 -4.48288716800979e-15 -7.75261869579601 -0.0141503291896943 2.51101990230753e-16 -6.99683988094023e-31 6.122109124892e-34 -1.11518600619822e-61)
(0.0105855131494668 -0.000216356912675232 -4.6325853205071e-15 -7.63228368873667 -0.0178130965890642 -4.65785410123898e-14 -5.25061237960716e-15 3.65124932329601e-18 -7.03971040156007e-30)
(0.0143082605218158 -0.000202828880248717 4.4828419631877e-15 -7.48775016703064 -0.0211817676105473 -4.93844470234591e-14 -5.13314874930518e-15 2.75257052189613e-18 -6.31505507898353e-30)
(0.0177613806841101 -0.000188439951150338 4.63263058865366e-15 -7.32107961464342 -0.024246321485963 -2.34261210603464e-16 -6.75085121122472e-20 -4.48218293036782e-23 4.1342245110837e-42)
(0.0209393280594491 -0.000173769379497848 4.52048222753517e-20 -7.13429893279839 -0.0270078680702973 -4.22592068848509e-19 6.75085121122482e-20 4.48218293036788e-23 -4.13422451108376e-42)
(0.0238435105076438 -0.000159138355934087 -4.52681466555902e-20 -6.9293620351699 -0.0294728800322708 -4.67198579621139e-19 0 0 0)
(0.0264777602658624 -0.000144680937844817 3.44561897916704e-35 -6.70814669936168 -0.0316507541685317 5.09178664815216e-19 0 0 0)
(0.0288465131127753 -0.000130401834379947 9.82572748388264e-34 -6.47245590575254 -0.0335506002512891 -5.12876861922989e-19 0 0 0)
(0.0309540123077886 -0.000116305491281932 6.3591264564103e-15 -6.22402620465383 -0.0351814053764651 -2.25955225858848e-16 0 0 0)
(0.0328049877407964 -0.000102427116510837 6.55622948050397e-15 -5.96452946766855 -0.036552125035267 6.56677191823554e-14 4.54332222978266e-15 2.75094799578726e-18 -1.0538454101749e-29)
(0.0344053543904576 -8.88560963847891e-05 -6.35915508850273e-15 -5.69557195135441 -0.0376727106534916 6.85822660947401e-14 4.34366367388464e-15 3.30411126081428e-18 -1.01139851484909e-29)
(0.0357627390555164 -7.56954272696718e-05 -6.55629143344631e-15 -5.41868897253193 -0.0385544113408077 1.99667361029026e-16 -2.84494464296588e-20 -4.98274334978846e-23 4.28034090395689e-34)
(0.0368862497876212 -6.30310109951794e-05 6.02133196777034e-20 -5.13534080487218 -0.039209707303244 -3.04202168333364e-20 -5.10251614094002e-20 -1.11596175446224e-22 -3.94841889006275e-39)
(0.0377868657266259 -5.09976660106592e-05 9.54251202590483e-20 -4.84690791570172 -0.0396520744368467 1.23540129671291e-20 2.49105375523956e-20 5.68268555911221e-23 9.91430848715017e-40)
(0.0384770454718626 -3.96533326619914e-05 7.46279899635124e-15 -4.55468415917889 -0.0398970779140632 -1.51510860603585e-16 2.24210372226168e-20 5.97859969142337e-23 -2.4361198135489e-34)
(0.0389710722970058 -2.91598705544959e-05 7.66951873566773e-15 -4.25987423395042 -0.0399597912406784 7.56826614036178e-14 3.30995504091116e-15 5.4296572968855e-18 -1.25972094074386e-29)
(0.0392847379870729 -1.95507164599676e-05 -7.46283057757913e-15 -3.96358335371803 -0.0398592449144501 7.81143939054056e-14 3.1087748624916e-15 5.69556235908716e-18 -1.26118967617457e-29)
(0.0394344367926833 -1.09018812140126e-05 -7.66957100789764e-15 -3.66682162586933 -0.039610799934444 1.16793598248756e-16 0 0 0)
(0.0394361671156074 -3.0692170424248e-06 1.89233819291156e-20 -3.37050279585474 -0.0392331455340062 3.61101589443538e-19 -8.64596183864242e-21 -3.09160647652881e-23 2.01294502275567e-42)
(0.0392966922990063 4.59889316191542e-06 8.8890661786771e-21 -3.07548052869547 -0.0387335040870108 -7.57628506356248e-20 8.6459618386426e-21 3.09160647652888e-23 -2.01294502275571e-42)