/*--------------------------------*- C++ -*----------------------------------*\
  =========                 |
  \\      /  F ield         | OpenFOAM: The Open Source CFD Toolbox
   \\    /   O peration     | Website:  https://openfoam.org
    \\  /    A nd           | Version:  7
     \\/     M anipulation  |
\*---------------------------------------------------------------------------*/
FoamFile
{
    version     2.0;
    format      ascii;
    class       volScalarField;
    location    "20000";
    object      k;
}
// * * * * * * * * * * * * * * * * * * * * * * * * * * * * * * * * * * * * * //

dimensions      [0 2 -2 0 0 0 0];

internalField   nonuniform List<scalar> 
15600
(
3.32688481699165e-06
2.29865597669761e-06
9.42635215956063e-07
2.00747435967376e-07
1.26417874769046e-07
1.13975269643952e-07
5.29451574296482e-08
3.01462494276681e-08
2.24756934535178e-08
2.21286019494974e-08
2.75857604953081e-08
3.81588436033461e-08
5.59106435330854e-08
8.23349846822032e-08
1.19064292182948e-07
1.65906188215e-07
2.19467607995988e-07
2.75984782389295e-07
3.28982823670975e-07
3.65260274499e-07
3.95139048051163e-07
4.96146877163306e-07
7.48467123559981e-07
1.03824019765763e-06
1.34763706587119e-06
1.66466335699386e-06
1.98708183345538e-06
2.31017803106531e-06
2.63390510005969e-06
2.95632622814685e-06
3.27693735690002e-06
3.59429944305689e-06
3.90740445213341e-06
4.21504082483928e-06
4.51649681720588e-06
4.81205650684618e-06
5.10297431322744e-06
5.38544239502073e-06
5.65314805508458e-06
5.90303123716866e-06
6.13370559764967e-06
6.34423611393506e-06
6.53401364832148e-06
6.70269470995225e-06
6.8501388159158e-06
6.97640613846196e-06
7.08175275855866e-06
7.16663666722542e-06
7.23170383959171e-06
7.27776826975767e-06
7.30578738975119e-06
7.3168513865611e-06
7.31211894390508e-06
7.29285034245132e-06
7.26023193844631e-06
7.21543587333836e-06
7.15933320216238e-06
7.09275772135434e-06
7.01685810600187e-06
6.93284156507859e-06
6.8420427022713e-06
6.74560660028797e-06
6.64465104412586e-06
6.53991179245946e-06
6.43170172889546e-06
6.32049605429673e-06
6.206771574637e-06
6.09129041992295e-06
5.97475694130191e-06
5.85711218641759e-06
5.73890309670864e-06
5.61994020763241e-06
5.50041452267866e-06
5.38058711958608e-06
5.26048411877144e-06
5.14008793296781e-06
5.01934403896969e-06
4.89816620718641e-06
4.77649110231824e-06
4.65418936083599e-06
4.53100595843988e-06
4.40671835336704e-06
4.28090627064842e-06
4.15331136949127e-06
4.02326526468052e-06
3.89047906660175e-06
3.75368994953939e-06
3.61282017936888e-06
3.46532127994011e-06
3.31318783104542e-06
3.16037702797446e-06
3.00377935208497e-06
2.83377382547013e-06
2.65639447842852e-06
2.45236626257435e-06
2.24250524520468e-06
1.98196045557717e-06
1.73374535001103e-06
1.37938958353384e-06
1.56522755721281e-06
2.19278572981586e-06
2.84478052007576e-06
3.44622604410558e-06
4.00051137871644e-06
4.48427081097454e-06
4.72516947721914e-06
4.7713304087518e-06
4.65500509272998e-06
4.36882762894808e-06
4.12510932325208e-06
4.00777651974543e-06
4.0250057347152e-06
4.46921332689119e-06
5.25042574188111e-06
6.67639268386153e-06
8.82534149878501e-06
9.13159041695746e-06
6.30285922559588e-06
3.98842330070609e-06
3.06653237701792e-06
0.000106735690106164
7.43145203421218e-05
3.07201430259572e-05
6.69648200006279e-06
4.11531209300356e-06
3.72600264514494e-06
1.75982337035849e-06
9.96414474376426e-07
7.35802193883705e-07
7.17840622870789e-07
8.89237648785198e-07
1.22606017251257e-06
1.79442062406896e-06
2.64368630571084e-06
3.82863937380486e-06
5.34705829636446e-06
7.09037124906624e-06
8.92629767725816e-06
1.06478792437248e-05
1.18282011290805e-05
1.28370575587504e-05
1.6109159096814e-05
2.42605476824497e-05
3.36236068825708e-05
4.36146585310636e-05
5.3846191495341e-05
6.42471018981048e-05
7.46653079258833e-05
8.51000592871325e-05
9.54890120350298e-05
0.000105816428886013
0.000116036227316372
0.000126116400861561
0.000136018326919523
0.000145719506759853
0.000155229513374444
0.0001645894106493
0.000173633747960738
0.000182147427069184
0.000190085339121595
0.000197405581607802
0.000204080320164926
0.000210091866361115
0.000215430726050913
0.000220093705435997
0.000224083815561173
0.000227410132579209
0.000230087949541054
0.000232138324625809
0.000233587454924468
0.00023446592751512
0.000234808325562514
0.000234651360517389
0.000234034677503482
0.000232995701577691
0.000231571087521844
0.000229788270942916
0.000227673740939308
0.000225263614191993
0.00022259594773541
0.000219712574420077
0.000216649531781292
0.000213441884139215
0.000210112824231879
0.000206672328458283
0.000203135569171907
0.000199517556981774
0.000195842479801406
0.000192132550913617
0.000188385735271273
0.000184619701653859
0.000180828273313419
0.000177017612141398
0.000173195980245568
0.00016936441536315
0.000165521911867492
0.000161667042676245
0.000157797113938225
0.000153910115555779
0.000150001937891943
0.000146064596563919
0.00014209086805079
0.000138067628231242
0.000133986266865057
0.000129826092903833
0.000125576964754373
0.000121200171226672
0.000116690668314211
0.000111971177864801
0.000107086210168268
0.000102157171345682
9.71065681292495e-05
9.16228515009226e-05
8.59021984969229e-05
7.93198373618712e-05
7.25517121779982e-05
6.4142200787519e-05
5.61418323362781e-05
4.47133608942057e-05
5.08211577985575e-05
7.09927100202798e-05
9.19093238541545e-05
0.000111166519166295
0.000128849580747359
0.000144118200882051
0.000151790637516338
0.000153347246343005
0.000149778957075626
0.000140959764992361
0.000133368837120972
0.000129712981217206
0.000130459122592249
0.000144516027137034
0.000169307548172509
0.000213897478023077
0.000279639889597679
0.000291216783906434
0.000201230428903722
0.000128208012245631
9.91000110749271e-05
0.000763246237968156
0.000539235543635135
0.000226177205907484
5.05916859703871e-05
3.00271072679813e-05
2.73533404299334e-05
1.31715403268203e-05
7.43745000630286e-06
5.4489517475717e-06
5.27376683305845e-06
6.48831937537207e-06
8.91171062040181e-06
1.30211447806649e-05
1.91847579510464e-05
2.78122767161263e-05
3.89115504075158e-05
5.16937473644219e-05
6.50707631838016e-05
7.74485572565401e-05
8.6093016320562e-05
9.39591005021442e-05
0.000117578543953714
0.000175813120991908
0.000242351844799341
0.000312765487715434
0.000384326678452098
0.00045655932399558
0.000528434692094312
0.000599987621712381
0.00067081941276335
0.000740859956234154
0.000809829462288867
0.000877548311646646
0.000943791128400668
0.00100843362776092
0.00107156636879529
0.00113306536316878
0.00119089315571552
0.00124510653933505
0.00129544844441462
0.00134172283786676
0.00138381394054623
0.00142166150198368
0.00145524823650268
0.00148458920781355
0.00150973120819152
0.00153075221752771
0.00154776223394282
0.00156090079940482
0.00157033377179678
0.00157624958695306
0.00157885681683084
0.00157837514478722
0.001575038203862
0.00156906724018309
0.00156067560335002
0.00155002472007223
0.00153727280120895
0.00152263300488249
0.0015063320988581
0.00148861815003422
0.00146970720413672
0.00144980984503445
0.00142906832144557
0.0014075454809306
0.00138533797204357
0.00136253745045096
0.0013392964021505
0.0013157532316967
0.00129189284001556
0.00126783451355985
0.00124356105046215
0.00121907843407453
0.00119443965562766
0.00116966514727576
0.00114475140826215
0.00111969083648789
0.00109446803233023
0.0010690709369142
0.00104347400192405
0.00101762813275123
0.000991484765696357
0.000964962081386975
0.000937997952488755
0.000910464444324081
0.000882280435861254
0.000853210517155094
0.000823182105784089
0.000791735891361798
0.000758900979475721
0.000725117242454771
0.000690393312351879
0.000652642888653949
0.000613095191368753
0.000567550182255756
0.000520395802984498
0.000461773718315407
0.000405430600250589
0.000325253499914655
0.000368706915313913
0.000503377474179967
0.000643184490038902
0.000771608586116799
0.000889052954997451
0.000989851503804957
0.00104438825640162
0.00106002493693076
0.00104256151290364
0.000991344985366385
0.000944274904691394
0.00092076352556069
0.000925848092014488
0.00101400031638525
0.00117132644131009
0.00144572459238866
0.0018350996375773
0.00194344541858319
0.00137762561251431
0.000906565243347135
0.000717642546682749
0.00265057375438208
0.0019260187482413
0.000847836545273239
0.000199773180840869
0.00011190671243627
0.000102554573299499
5.05341361258562e-05
2.85275582367641e-05
2.07647594293208e-05
1.9952165812717e-05
2.43562573031455e-05
3.32846501850726e-05
4.8459732512956e-05
7.12176398439666e-05
0.000102999513055478
0.000143756180439491
0.000190455976779874
0.000239065428243167
0.000282473087378664
0.000314519160534183
0.000343800015201261
0.000425850616325545
0.000620300855141675
0.000834688255626389
0.00105404429973599
0.00127007104008108
0.00148241068806512
0.00168865217680732
0.00188968780563298
0.00208491695257788
0.00227468809969815
0.0024586752466827
0.0026368119787594
0.0028088621940167
0.00297476174040862
0.00313470572768279
0.00328398849756102
0.00342384518923087
0.00355404160247114
0.00367428144441092
0.0037843870231305
0.00388432163903318
0.00397413674392356
0.00405394603932397
0.00412390655515536
0.00418421950715574
0.00423513162468821
0.0042769385662708
0.00430998155833563
0.00433464294408545
0.00435134069656392
0.00436052407809235
0.00436265953477563
0.00435823406620929
0.00434770976091203
0.00433152620549872
0.00431002037401334
0.00428352432970785
0.00425247932255332
0.00421736023853996
0.00417868577146214
0.00413691320569774
0.00409249254637986
0.00404573973106398
0.00399679902263458
0.00394589543283867
0.00389322768340352
0.00383914501999952
0.00378395995907502
0.00372783496674122
0.00367071330820006
0.0036126597023802
0.00355373911560347
0.00349407268463473
0.0034337185003054
0.00337267821737345
0.00331093891124486
0.00324846929820038
0.00318524199517366
0.00312119698844933
0.00305622036040114
0.00299018572960348
0.00292289658763688
0.00285417602637341
0.00278371565920617
0.00271126012583265
0.00263624997212877
0.00255837030669277
0.00247655536614092
0.00239048904245381
0.0022987957452204
0.0022036900573486
0.00209978374134256
0.00198940356523679
0.00186162267863412
0.00172618581948081
0.00155648528349543
0.00138711102043345
0.00114419578052651
0.00127365620575584
0.00164180913690181
0.00202618990816513
0.00238152738343941
0.00271002835005518
0.0029979151521064
0.00317958078956403
0.00326396864586367
0.00326136889951458
0.00316750109941115
0.00306804569441049
0.00302153300819297
0.00304726257131989
0.00328696125552396
0.00370769817136721
0.00439844080200097
0.00531147515835394
0.00564442248275871
0.00419904996926007
0.00292462562359124
0.00247709016255627
0.00556795682790356
0.00435426592822255
0.00213146676925667
0.000572596277932553
0.000293588931735603
0.000269366012805445
0.000136556427533983
7.73239940546916e-05
5.60128274715917e-05
5.34475075339095e-05
6.46353575819805e-05
8.76526854193586e-05
0.000126601516272084
0.000184395697100561
0.000263728131759448
0.000363103754769043
0.000473645610286952
0.000585220804121789
0.000682749778159321
0.000755480953060348
0.000823769678095631
0.0010002879322182
0.00138886451288877
0.00179189965687251
0.0021876289137527
0.00256291271434896
0.00292213372139059
0.00326312737282228
0.00358950486298446
0.00390144445447339
0.00420053292516474
0.00448698955631472
0.00476132802087571
0.00502369620390418
0.00527434330466832
0.00550854742235936
0.00572737529862625
0.00593135343199028
0.00612033464150645
0.0062941719302094
0.00645285561552252
0.00659653207181602
0.00672543987421514
0.00683987728383163
0.00694018110929146
0.00702672930786545
0.00709994455704599
0.00716029969170026
0.00720831425086214
0.00724455010240679
0.00726960537816922
0.00728410845497287
0.00728870343079214
0.00728405122487704
0.00727078116989248
0.00724948708906093
0.00722063717758908
0.00718468973335395
0.00714223178872736
0.00709389540253608
0.00704036364972769
0.0069822420232066
0.00692012867351194
0.00685446176523637
0.00678545136898124
0.0067134214513091
0.00663863416044004
0.00656184232487421
0.00648313671699654
0.00640266295832884
0.00632047060605122
0.00623666831090908
0.0061513623917051
0.00606471569271642
0.00597681875217987
0.00588768662456909
0.00579730915599755
0.0057056519053973
0.00561268186906118
0.00551832213324646
0.00542242588088093
0.00532481595400727
0.00522523149928823
0.00512341115980517
0.00501894594809353
0.00491143846025732
0.004800156185042
0.0046845416185476
0.00456323167372184
0.00443551092059957
0.00429769244392236
0.00415324059041614
0.00399566595504569
0.00382660918315286
0.00363148613303525
0.00342017785156782
0.00315530442744214
0.00287988043956717
0.00248230252657517
0.00267613756114461
0.00322148348890504
0.00381326862841707
0.00437871230615944
0.00491709876213525
0.00540675974286843
0.00576371063443877
0.00598838485922882
0.00608844350609023
0.00605397443880785
0.00599087904973219
0.00599377950946202
0.00609837644992882
0.00651635692058587
0.00720624419239158
0.00825520338622389
0.00955476346992832
0.0101340154153549
0.0080521969389203
0.00583278204227558
0.00516380197579823
0.00840161256599733
0.00714416405585596
0.00399856843796133
0.00131334073530982
0.000622075833453385
0.000564144307860494
0.000296683335928406
0.000169349270728912
0.00012235254628249
0.00011588326713718
0.000138420208750778
0.000185341248103876
0.000263483794675834
0.000376165113205664
0.000524590639939164
0.000701002374754102
0.000886292115959276
0.00106458198441008
0.00121776674103819
0.00133656524533244
0.0014600542852992
0.00174581576299981
0.00231447534102384
0.00287622787770275
0.0034153402760949
0.00391467182464247
0.00438597519510906
0.00482785840146053
0.00524673598258452
0.00564369377102643
0.00602144908690192
0.00638081685582082
0.00672285749556723
0.00704814345846462
0.00735409969413995
0.00763930161660214
0.0079053766572156
0.00815259571844422
0.00838094565941905
0.00859043074970977
0.00878119374247445
0.00895353326289686
0.00910783909513299
0.00924455593214121
0.00936416184663876
0.00946717168890739
0.00955414224446339
0.00962567903870117
0.00968243285653593
0.00972509573326275
0.00975439444598783
0.00977108295342145
0.00977592860772002
0.00976971068205739
0.00975317489511721
0.00972702362978321
0.00969182562214532
0.00964813261989524
0.00959662852294187
0.00953804817247758
0.00947317820945307
0.00940271737789541
0.00932735811995303
0.00924762694274724
0.00916378705851034
0.00907623810649451
0.00898565603340771
0.00889238853019439
0.00879660845778714
0.00869853738730009
0.00859828227683135
0.00849597855494479
0.00839176139333222
0.00828581780854807
0.00817826288833606
0.00806912686958111
0.00795840659754177
0.00784607224962129
0.00773209285736788
0.00761638907346025
0.00749880618683682
0.00737914592140206
0.00725712694312467
0.00713244868117808
0.00700467347411156
0.006873333279952
0.00673765606620267
0.00659694584346716
0.00644980361830476
0.00629523454713864
0.00612908462095335
0.00595364886936149
0.00576367865137907
0.00555946409107168
0.00532649389661606
0.00507186558327981
0.00475707180319305
0.00442237161790613
0.00394721532977183
0.00413743383521491
0.00474745102527059
0.00545529083023353
0.0061613791526734
0.00685223051994929
0.00749716210675871
0.008008388086861
0.00837866969991125
0.00861258469589605
0.00869925922208734
0.00874194684832518
0.00885230326469701
0.00907883643467869
0.0096594782695321
0.0105632689194883
0.0118565252135876
0.0133999725597202
0.0142090440433475
0.0120724532816209
0.00900077376149585
0.00791717292259558
0.0107773482307355
0.00970200726070202
0.0061034263240679
0.00250256011661052
0.00114056954235155
0.000998240604262836
0.000550364571058405
0.00031894373615708
0.000230482695581081
0.000216394273635717
0.000254177107931045
0.000333704152864787
0.000462459550073761
0.00063977881819869
0.000860009861052805
0.00110550456602363
0.00134979965097615
0.00157837962176645
0.0017776446611624
0.00194691434750337
0.00214305264027931
0.00254539370909031
0.00325963834348644
0.00394219124518258
0.00458878506968402
0.0051799785185142
0.00573426545033412
0.00625106452901741
0.00673875473441749
0.00719912951161366
0.00763562281948285
0.00804948939294999
0.00844213190112961
0.00881358953936745
0.00916046105003462
0.00948419424660035
0.00978577247401032
0.010065432272373
0.0103232612756213
0.0105593741162596
0.0107740218215404
0.0109676115844259
0.0111406437751347
0.0112936722193978
0.011427281858253
0.0115420920690994
0.0116387626721976
0.0117180017415218
0.0117805618353777
0.0118272362971802
0.0118588521650516
0.0118762611530354
0.0118803265068738
0.011871919592832
0.0118518783228605
0.0118209932411068
0.0117799181997751
0.0117292816737967
0.0116698431807636
0.0116024166531948
0.0115278677123269
0.0114469651891641
0.0113604740866758
0.0112689945637541
0.0111728357749617
0.0110727587336799
0.0109692262342482
0.0108624604375949
0.0107527647248471
0.0106404116109947
0.0105255483789209
0.0104083317254856
0.0102889203017037
0.0101675192892974
0.0100442643714322
0.00991920087543199
0.00979233419610809
0.00966364182558993
0.00953309782176619
0.00940062587189578
0.00926607228710806
0.00912923036097874
0.00898981429119647
0.00884750505976178
0.00870186184411888
0.00855238109018801
0.00839829672790268
0.00823883439460053
0.00807264247083015
0.0078985532716018
0.00771292365107255
0.00751580641723712
0.00730415949147864
0.00707693304617831
0.0068210292363651
0.00654051996551881
0.00619989114982201
0.00583347192871274
0.00532783589064453
0.00548082979895161
0.00609943810485664
0.00686961343889238
0.00766833820495218
0.0084656419113265
0.00922142502306709
0.00984924571131026
0.0103376803690924
0.0106897110134564
0.0108968368994274
0.0110543536518114
0.01127819752232
0.0116273936379148
0.0123417078283954
0.0134091745708427
0.0148763463084993
0.0165868144390934
0.0175775359915259
0.0157280663273002
0.0121880287062197
0.0104484650583624
0.0127541349520821
0.0119109633370515
0.0081648553359232
0.00407166335430349
0.00185607339597911
0.00154080842840392
0.000898092854469251
0.00053270158087987
0.000386375696667223
0.000359052297652194
0.000412881671156107
0.000528311937189039
0.000709104528695685
0.000945789851208997
0.0012236680161184
0.00151834413719537
0.00180367247641451
0.00207123800853526
0.00231428497250433
0.00254195840072067
0.00282459467241903
0.00334355892665992
0.00417087197893489
0.00494577355916381
0.00567414596510123
0.00633682917974672
0.00695651231798057
0.0075333101497516
0.00807657673243926
0.00858859065378132
0.00907313983782886
0.00953177732690734
0.00996619237808897
0.0103746559999014
0.0107559448697862
0.0111117647866964
0.0114428483572845
0.011749453655244
0.0120317460959007
0.0122899251017518
0.012524323853109
0.0127354340882462
0.0129238450992036
0.0130902003827365
0.0132351738214602
0.0133594724999969
0.0134638430959928
0.0135490806565955
0.013616024310478
0.0136655538872903
0.0136985821732937
0.0137160445151373
0.013718886103608
0.0137080573160253
0.0136844759457184
0.0136490107828821
0.0136023924606374
0.0135453168557897
0.0134786084860008
0.0134031481541304
0.0133198686217783
0.0132295967803469
0.0131331595080899
0.0130312228204644
0.0129243074637992
0.012813284067275
0.0126983076177241
0.012579692880995
0.0124578221856753
0.0123330085387983
0.0122054322505262
0.0120752692524448
0.0119426990201684
0.0118079427335323
0.0116711546069043
0.0115323946888696
0.0113916777059376
0.0112489896920172
0.0111043113336248
0.0109575719215326
0.0108086224348023
0.0106572539673657
0.0105031827231376
0.010346081816121
0.0101855167175483
0.0100209667148911
0.00985168635781961
0.00967685732898175
0.00949519663681282
0.00930543265820304
0.00910456023644829
0.00889078578595089
0.00866286649353961
0.00841879108231454
0.00814716296661989
0.00784945272267363
0.00749437281851903
0.00710978101679194
0.00659611152376705
0.00670543186746455
0.00730965258738674
0.00811289991589019
0.00897425439933838
0.00984722041634635
0.010682592955358
0.0113967599705565
0.0119765394499667
0.0124241472964001
0.0127341595628603
0.0129943450221463
0.0133189724205245
0.0137759855877368
0.0145979312580956
0.0157911872632806
0.01738706330708
0.0192150496673648
0.0203406375972378
0.0188232747930026
0.0152529850631574
0.0128763308572054
0.0145398510462071
0.0138388107475593
0.0100616459407549
0.00585192158447136
0.00277315599074878
0.00213685999347677
0.00131596693453875
0.000803875781003348
0.000587233159445709
0.000539840530873948
0.000606418645815919
0.000754726999385552
0.000980579377423733
0.00126385106254102
0.00158292360656764
0.0019119045507573
0.0022293904315327
0.00253324761846817
0.00282300652456571
0.00311645663516016
0.0034918519341481
0.00411921999000967
0.00503353776885926
0.00588242857448969
0.00667664520328073
0.00739919277716708
0.00807429901952786
0.00870276716072085
0.00929421300562556
0.00985128261032244
0.0103779013513788
0.0108758317411756
0.0113467868608111
0.0117876580781002
0.012199541633015
0.0125837418012727
0.0129408904505013
0.0132712841086393
0.0135751543622125
0.0138527714766032
0.0141045366004976
0.0143310133897349
0.0145328687619312
0.0147108257919812
0.0148656378391686
0.0149980907049799
0.015109009104761
0.0151992665435425
0.0152697802914054
0.0153215083997701
0.0153554412761109
0.0153725899535504
0.0153739736240902
0.0153606142922042
0.0153335025415574
0.0152935799380371
0.015241648899804
0.0151784669225094
0.0151049175001115
0.0150219409755275
0.0149305306220395
0.0148315638436658
0.0147259231169961
0.0146143822635797
0.0144978013451626
0.0143766800266264
0.0142512119469855
0.0141217775907196
0.0139888149629447
0.0138526722135946
0.0137135588367053
0.0135716690925488
0.013427201772295
0.0132803932324065
0.0131314150376557
0.0129803415827123
0.0128271974067617
0.0126719778269449
0.0125146712845336
0.0123552142585521
0.0121934642936603
0.0120292140193659
0.0118621849594938
0.0116920488847508
0.0115183819371532
0.0113406576663254
0.0111581564485889
0.0109700386134059
0.0107750930904639
0.0105719911375846
0.0103581450278791
0.0101309081059488
0.0098898567519476
0.00963252393610693
0.00934916287771447
0.00903915355211799
0.00867561890772798
0.00828021411356877
0.00776963926432832
0.0078389725872976
0.00841964522534067
0.00923875645356273
0.0101429644817008
0.0110705428212459
0.0119639173654575
0.0127427992128222
0.0133937402993411
0.0139185176656482
0.0143143410381426
0.0146626676484392
0.0150735467550316
0.0156223843896167
0.0165320838725288
0.0178240150474725
0.0195177163719593
0.021429307878795
0.0226560987293501
0.0214194590369356
0.0180484119722903
0.0152859380656937
0.0163156195249819
0.0155832914462618
0.0117835048183079
0.00766691704738215
0.00390275187150866
0.00275090741818526
0.00176924564078884
0.00111510668902006
0.000822402878993254
0.000748688674682857
0.000822328102783718
0.000997243250947613
0.00125863158404147
0.00157639739384534
0.0019251798582991
0.00228095312249161
0.00262801932128115
0.00296929027531106
0.00330953584242195
0.00367317598059243
0.00414097171990408
0.00486474644054603
0.00584808864115083
0.00675977171924887
0.00761033487417268
0.00838603782680959
0.00911073455006508
0.00978597597369776
0.0104212073815458
0.0110193855107353
0.0115844582428564
0.0121183543305877
0.012622237294733
0.0130932045337351
0.013533262571715
0.0139435201577126
0.0143245761675468
0.0146767718898675
0.0150003991044925
0.0152957908687423
0.0155634081126711
0.0158038793797431
0.0160179430068864
0.0162063961674206
0.0163700664377355
0.0165098132854899
0.0166265343763594
0.0167211767850593
0.0167947309836087
0.016848228382608
0.0168827322130438
0.0168993244575024
0.0168990934960011
0.0168831284911132
0.0168524884428897
0.0168081844956082
0.0167510877322764
0.0166820134739004
0.0166019006214269
0.0165117442891415
0.0164125943318507
0.0163053733073748
0.0161910147440399
0.0160706078397618
0.0159449259287631
0.0158142808818666
0.0156789567998454
0.0155393860477497
0.0153960504213969
0.0152493301026407
0.0150994614194087
0.0149466565104562
0.0147911325836318
0.0146331409483252
0.0144728698407208
0.0143104076807386
0.0141457891533227
0.0139790194054004
0.0138100955547505
0.0136389624404004
0.0134654853700834
0.0132894610506132
0.0131106183838583
0.0129286323449041
0.0127430922778716
0.0125534739421271
0.012359085595232
0.012159082365219
0.01195232328415
0.0117374568721984
0.0115122030736881
0.0112735535156929
0.011021400959122
0.0107531538981935
0.0104605504022494
0.0101413486807976
0.00977286961183181
0.00937116205817205
0.00886939739691456
0.00890516005924467
0.00945918546532174
0.0102833777543497
0.0112165908919356
0.0121835911568264
0.0131194390716201
0.0139474792759214
0.0146549188086948
0.0152431363767406
0.0157111981618642
0.0161351974919863
0.0166199353503958
0.0172469651667636
0.0182293908721045
0.0196002283593274
0.0213692100015647
0.0233401344848655
0.024644566003827
0.0236352666080732
0.0205174354323089
0.0176381085709075
0.0181040454847245
0.0172341083023065
0.0133677472997013
0.00940475911214678
0.00521131668528958
0.00338483096486504
0.00223230593940041
0.00144846157813924
0.00107949070610914
0.000975147103474354
0.00105006313418796
0.00124505211345148
0.00153347386215849
0.00187695111444675
0.00224884117586602
0.00262839117906362
0.00300511937056014
0.00338578980652823
0.00377934929835178
0.00421458028386313
0.00477052103449532
0.00557892780954296
0.00662002315251435
0.00758755359205512
0.00848877898216943
0.00931359556922733
0.0100843400089865
0.0108033390589031
0.0114796297455454
0.0121164403395525
0.0127176845096502
0.013285480005214
0.0138200455677492
0.0143195476979993
0.0147861900491485
0.0152209850740054
0.015624532331199
0.0159972207533903
0.0163393991366953
0.0166514584920095
0.0169339145994542
0.0171874569303259
0.0174128918606657
0.017611087780923
0.0177829436240067
0.0179293897631498
0.0180513939122539
0.018149973994899
0.018226190832574
0.0182811463864308
0.0183159739354786
0.0183318236191798
0.0183298500889285
0.0183112069358258
0.0182770188384031
0.018228364683471
0.0181661823108557
0.0180913423319511
0.0180048370319955
0.0179077130726134
0.0178010746331058
0.0176858852381306
0.0175632189957089
0.0174344292760584
0.0172999759318278
0.0171601980780561
0.0170154494140041
0.0168662060832473
0.0167129871030169
0.0165562027357615
0.0163961145535043
0.0162329523430073
0.0160669512103488
0.0158983775185362
0.0157274358190074
0.0155542282965446
0.015378800028816
0.0152011664493142
0.0150213341730958
0.014839257365073
0.0146548099622965
0.0144677946155125
0.0142779490738829
0.0140849549317513
0.0138884165035856
0.0136878176655566
0.0134824955089189
0.0132716120603308
0.013054093504227
0.0128285915780657
0.0125930724788476
0.0123444491673975
0.0120826037016417
0.0118050925328315
0.0115049376373437
0.0111786809355201
0.0108074710653597
0.0104025008575712
0.00991243578866301
0.00992113148709423
0.0104482361530818
0.0112704477543204
0.0122224437998342
0.0132172956947521
0.0141838891455563
0.0150495491821461
0.0158026933367242
0.0164441473403178
0.0169740060572471
0.0174635802310483
0.0180120696963987
0.0187060581244241
0.0197492691844259
0.0211836887152999
0.0230101500059493
0.0250224657093434
0.0263885228768318
0.0255674359649513
0.0226861095555122
0.0198543217670891
0.019878785494363
0.0187996554408151
0.0148574346334195
0.0110176503829445
0.0066588821465431
0.0040670155571694
0.00269627490634449
0.00179263127068072
0.00134954860875546
0.00121209713190085
0.00128333596984142
0.00149263300289432
0.00180138374022729
0.00216473991182715
0.00255623887890011
0.00295867614371031
0.00336594555620715
0.00378774078104043
0.00423614333004692
0.00474217513124757
0.00538042609300195
0.00626362314871692
0.00735570548812503
0.00837459839644718
0.0093230723383205
0.010194494346619
0.0110091125316986
0.0117699884784224
0.0124856374112484
0.0131595191209966
0.0137954854629101
0.0143959389197115
0.0149597152535302
0.015486716014309
0.0159788981504829
0.0164372302913966
0.0168623313832213
0.0172546396818434
0.017614559403764
0.0179425366767289
0.0182391391944533
0.0185051153436368
0.0187413379692701
0.0189487454894921
0.0191283069034545
0.0192810222572508
0.0194079278649339
0.0195101112564965
0.0195887021626401
0.0196448716876035
0.0196798217680717
0.0196947692324867
0.0196909333717821
0.0196695306369979
0.0196317497380225
0.0195787363782816
0.0195114941073446
0.0194309471512557
0.0193381402596363
0.0192341694306718
0.0191201920981417
0.018997208198577
0.0188666550215994
0.0187296785656864
0.0185866726452522
0.0184380220314144
0.0182841374933592
0.0181255339471148
0.0179627638366966
0.0177962662305398
0.0176263267904044
0.0174531928409463
0.0172771171310068
0.0170983813819987
0.0169172063281155
0.0167337077105215
0.0165479411894534
0.0163599328981143
0.0161696997178309
0.0159772059905544
0.0157823349710833
0.0155848966940776
0.0153846389133227
0.0151812525383523
0.01497435828023
0.0147634527095238
0.0145479023498548
0.0143268854493877
0.0140993925752887
0.0138640986348637
0.0136191781864971
0.0133616574785552
0.0130911371275866
0.0128055859979129
0.0124990971737397
0.0121673409349239
0.0117948665231436
0.0113888215276294
0.0109117810179711
0.0108991481129551
0.0114003854771642
0.0122158315373025
0.0131787098332365
0.0141921680521664
0.0151802531382339
0.0160746939936657
0.0168654091757118
0.0175523634909871
0.0181358894270264
0.018682810363797
0.0192866601239033
0.0200381472810071
0.0211319797768605
0.0226170938764246
0.0244858722130807
0.0265262955224704
0.0279443589840192
0.0272846469639011
0.024607450926724
0.0218841727551776
0.0216076260916901
0.0202654229491419
0.0162950751774476
0.0125089468109632
0.00823236667075995
0.0048402479197231
0.00316610638336232
0.00214353551451261
0.00162812818740422
0.00145597102033646
0.00151931142648403
0.00173790092510238
0.0020618095777651
0.0024412274044466
0.0028505288813468
0.00327581265420873
0.00371453550720112
0.00417860279480671
0.00468224337820118
0.00525697516862168
0.00597151749470476
0.0069218596783029
0.00806092590445962
0.00912820000301928
0.0101219163968625
0.0110383962841303
0.0118956027956074
0.0126972260841694
0.0134512223662952
0.0141612374366918
0.0148310395881473
0.0154631289549355
0.0160555046546368
0.016609356891595
0.0171264213308327
0.0176076547203625
0.0180537069404584
0.018465066839826
0.0188421934915015