/*--------------------------------*- C++ -*----------------------------------*\
  =========                 |
  \\      /  F ield         | OpenFOAM: The Open Source CFD Toolbox
   \\    /   O peration     | Website:  https://openfoam.org
    \\  /    A nd           | Version:  7
     \\/     M anipulation  |
\*---------------------------------------------------------------------------*/
FoamFile
{
    version     2.0;
    format      ascii;
    class       volScalarField;
    location    "20000";
    object      k_conv;
}
// * * * * * * * * * * * * * * * * * * * * * * * * * * * * * * * * * * * * * //

dimensions      [0 2 -3 0 0 0 0];

internalField   nonuniform List<scalar> 
15600
(
-9.56476122630333e-06
-2.46059705440534e-07
-5.15280484940676e-08
1.49985793632085e-08
-2.0989671126408e-07
-1.37306978910047e-07
-4.18008258920563e-08
-1.39618951860685e-08
-5.3501560029907e-09
-2.60342707859229e-10
-5.28907183383087e-10
-1.03943382877081e-09
-1.82646856460666e-09
-2.91386648556293e-09
-4.02980475937809e-09
-4.63924495446245e-09
-4.65168283121049e-09
-3.49022076308e-08
-7.82351339521689e-08
-1.07139965895019e-07
-6.06152793549889e-09
-2.90995457830973e-08
-4.79601210021185e-08
-6.47672985701572e-08
-7.79443689616392e-08
-8.92060780038128e-08
-9.77067913571734e-08
-1.04935452620228e-07
-1.10417977994222e-07
-1.14746889811362e-07
-1.17666293880866e-07
-1.19389062535604e-07
-1.19884006459463e-07
-1.19396215861348e-07
-1.18379563593221e-07
-1.17290332651346e-07
-1.14141927294915e-07
-2.32009361493867e-07
-5.07702205962329e-07
-7.90212165535668e-07
-1.07317780293182e-06
-1.35130544363417e-06
-1.61998389822875e-06
-1.87534063963049e-06
-2.11391731685178e-06
-2.33275076871736e-06
-2.52935707242541e-06
-2.70187367028404e-06
-2.84909860779726e-06
-2.97047786881687e-06
-3.06602023579463e-06
-3.136473867386e-06
-3.1827871969234e-06
-3.20687882953907e-06
-3.21025068530834e-06
-3.19536260031666e-06
-3.16341299923671e-06
-3.11494222533488e-06
-3.05197466952737e-06
-2.97641691759705e-06
-2.89117607948567e-06
-2.7983689123111e-06
-2.70047334349158e-06
-2.5988458225302e-06
-2.49375477080154e-06
-2.38556342402232e-06
-2.27525162057588e-06
-2.16384079266739e-06
-2.0527926523566e-06
-1.94259948523195e-06
-1.83322798605595e-06
-1.72503281018207e-06
-1.61805066892315e-06
-1.51282579112992e-06
-1.40892977267782e-06
-1.30774141307173e-06
-1.20841582832976e-06
-1.11079969853543e-06
-1.01489115938594e-06
-9.20621888520992e-07
-8.27394524570439e-07
-7.35438596674489e-07
-6.43579888569932e-07
-5.52707500636908e-07
-4.60363517910385e-07
-3.69053482652722e-07
-2.72903018417134e-07
-1.79471125438722e-07
-7.40381452051873e-08
-1.17740858812268e-08
-1.17775564933707e-08
-1.18197609049628e-08
-1.23750502900316e-08
-1.2076199589936e-08
-1.26749621151749e-08
-1.10263931100448e-08
-1.0964126561414e-08
-6.09730508011971e-09
-7.67838696098293e-09
-1.56954697396217e-08
-1.15630899689889e-06
-2.48104705749577e-06
-4.02233718447372e-06
-5.96054652792308e-06
-8.23763703573237e-06
-8.95781542913035e-06
-8.58470955828747e-06
-7.07924900825205e-06
-4.34344354941565e-06
-3.46133189095117e-06
-4.17457974560354e-06
-6.1656759909798e-06
-1.5081082820601e-05
-2.74811274877292e-05
-5.28112540636944e-05
-8.63988258546387e-05
-2.30497924465084e-05
-4.59018404327835e-06
-2.2604438754282e-06
-3.22800058866433e-07
-8.4220234941473e-05
-1.76204297952587e-05
-8.35556374642656e-06
1.83178126521804e-06
-3.96456844238909e-06
-2.85813311458869e-06
-8.53091157550505e-07
-3.00030282343775e-07
-1.16884866696359e-07
-2.45205604212914e-08
-4.72013217568667e-08
-8.78353442222551e-08
-1.53741934128613e-07
-2.46210815594786e-07
-3.4935125360221e-07
-4.27139971624151e-07
-4.60129777980499e-07
-7.65447407997427e-07
-1.52689459949319e-06
-1.59645915929741e-06
-6.88349870776741e-07
-2.3024071205845e-06
-3.73417886547461e-06
-4.94679067275845e-06
-5.9374593105316e-06
-6.79391248695687e-06
-7.47076735503056e-06
-8.05882963984705e-06
-8.52689971487854e-06
-8.91506318455811e-06
-9.20791249193479e-06
-9.42222477264347e-06
-9.55880252314582e-06
-9.63751908974999e-06
-9.69829962326351e-06
-9.77857470963936e-06
-1.11311119203374e-05
-1.6625845119577e-05
-2.20959712636025e-05
-2.75735180091579e-05
-3.2956782923253e-05
-3.816132206568e-05
-4.31157368003572e-05
-4.77604977265506e-05
-5.20439631882802e-05
-5.59230029226383e-05
-5.93631147477936e-05
-6.23400427050326e-05
-6.4840170947822e-05
-6.68601149721e-05
-6.84057064932559e-05
-6.9493430734044e-05
-7.01444636867229e-05
-7.03919599219382e-05
-7.02647429191251e-05
-6.98002434424471e-05
-6.9018146343044e-05
-6.79327974922652e-05
-6.65803023334941e-05
-6.49978406956566e-05
-6.32350131367503e-05
-6.13313128555748e-05
-5.93279449028116e-05
-5.72458980505911e-05
-5.50902926319729e-05
-5.28683238635764e-05
-5.05991907996681e-05
-4.83028478075353e-05
-4.60052176357957e-05
-4.37158357064193e-05
-4.14352044738727e-05
-3.90992377453502e-05
-3.68179095223294e-05
-3.46016373104435e-05
-3.24173462918869e-05
-3.02623631834882e-05
-2.81368162967846e-05
-2.60383406141903e-05
-2.39670807910776e-05
-2.19207947126044e-05
-1.98897465285259e-05
-1.78743637487534e-05
-1.5856902501356e-05
-1.38447926307364e-05
-1.18032444881586e-05
-9.75628542374341e-06
-7.62500297071098e-06
-5.49093286922088e-06
-3.16550817307958e-06
-1.35241794911448e-06
-1.24255595084594e-06
-1.16670971666143e-06
-1.08936743195771e-06
-1.01073883343153e-06
-8.94329564037458e-07
-7.74450773193907e-07
-5.36446328391518e-07
-3.2811072846286e-07
3.25154905864457e-07
1.08798200058509e-07
-2.6375280535072e-05
-5.32285359421428e-05
-8.31489931357789e-05
-0.000119815727365357
-0.000161109485182113
-0.000177865186831393
-0.000175379925358325
-0.000151829573271373
-0.000106337745274676
-8.58564928857648e-05
-9.24132166769569e-05
-0.000128999785142214
-0.000277361091234281
-0.000505134650881315
-0.000936307657501745
-0.00150019902516313
-0.000643874069860188
-0.000254188458441881
-0.000142707168195805
-2.44036364296334e-05
8.12967394851413e-05
-0.000127796478699363
-0.000106599497272997
3.15881461613824e-05
-2.00798121551667e-05
-1.59571167658419e-05
-4.78096712929127e-06
-1.77077510046672e-06
-7.28582001433121e-07
-2.84732620428892e-07
-5.09020332953446e-07
-9.06990162871393e-07
-1.5815112187902e-06
-2.56123364407071e-06
-3.73751026321488e-06
-4.79956949276413e-06
-5.42906688953445e-06
-5.16038606105243e-06
-8.10609130331371e-06
-5.49640066968128e-06
-7.21937761476518e-06
-2.09422231324118e-05
-3.25164731371926e-05
-4.303017960248e-05
-5.14657820126245e-05
-5.91925197162224e-05
-6.53812628170823e-05
-7.09950596487524e-05
-7.56309571398956e-05
-7.97345475850336e-05
-8.3164222157563e-05
-8.61203222635607e-05
-8.86243688485307e-05
-9.08629193469206e-05
-9.32301126460155e-05
-9.72168967499915e-05
-0.000120965412639633
-0.000140852174967348
-0.000160211346651233
-0.000178824398757169
-0.000196492075107104
-0.000213062398447879
-0.000228417516465676
-0.000242464473885418
-0.000255128070610663
-0.000266350874167151
-0.000276094080675438
-0.000284339478215322
-0.000291090132343917
-0.00029636910632029
-0.000300218128688953
-0.000302699212398277
-0.000303885331816771
-0.000303867855971508
-0.000302725417117123
-0.000300538560642253
-0.00029734865816081
-0.000293202439846413
-0.000288202508363269
-0.000282460598569149
-0.000276114124544543
-0.00026928024970659
-0.00026206994810027
-0.000254526753418959
-0.000246658586093836
-0.000238479277298356
-0.000230051869784907
-0.000221439346686524
-0.000212735057665498
-0.000203106943226283
-0.000194077990024087
-0.000185217310284865
-0.000176326628632037
-0.000167456438267582
-0.000158612177137083
-0.000149785672184153
-0.000140976744844749
-0.000132177536128301
-0.000123387532941373
-0.000114595879167226
-0.000105768556934628
-9.68943063198199e-05
-8.79124538367713e-05
-7.88202946508965e-05
-6.95046796744912e-05
-5.99861391985725e-05
-5.00230131855714e-05
-3.97496689906879e-05
-2.86218433600819e-05
-1.72216921027851e-05
-1.50755734399168e-05
-1.305035377103e-05
-1.09086843309924e-05
-8.78996159657595e-06
-6.11458184439132e-06
-3.58375285734046e-06
1.62766011145573e-07
3.27582700279567e-06
1.03004151275042e-05
7.88378438580006e-06
-0.00012374355832142
-0.000243079570937409
-0.000368122990652378
-0.000519941382786128
-0.000691965856342212
-0.000791689000580981
-0.000820984041126716
-0.000761884699292729
-0.000606730475444455
-0.000512784110971407
-0.000517993538448508
-0.000675440902378702
-0.00125641110994912
-0.00219110319821434
-0.00372778072329466
-0.00548147376371924
-0.00307254303220508
-0.00146785702406146
-0.000719158220424813
-2.29896933498701e-05
0.000587448900677401
-0.000302406888488358
-0.000572358255279608
0.000200633100525888
-4.98636651008089e-05
-4.85194780866516e-05
-1.48815089821713e-05
-5.76367662186482e-06
-2.51907993518741e-06
-1.40761534186241e-06
-2.40276657523144e-06
-4.17962838288449e-06
-7.23413381615963e-06
-1.17580307536786e-05
-1.7363780285159e-05
-2.27351915251646e-05
-2.62967799691684e-05
-2.65468871840934e-05
-2.20008217040862e-05
-1.82119358804783e-05
-2.7802786275147e-05
-7.6102475639148e-05
-0.000104886727550962
-0.000135421292247658
-0.00015697721171165
-0.000178552932478086
-0.000194970884225266
-0.000210703015709619
-0.000223759782305406
-0.000236046883868421
-0.000246999501710419
-0.000257386882038848
-0.000267223258334627
-0.000276932302492307
-0.000287148638247482
-0.000330644244578921
-0.00035520401521229
-0.000378238491410312
-0.000399493410433496
-0.000418946306116779
-0.000436593383885783
-0.000452444922239875
-0.00046652032812839
-0.000478839839307243
-0.000489429248424637
-0.000498320711523676
-0.000505555674096394
-0.0005111835497772
-0.000515263111743985
-0.000517861136014047
-0.000519052482430342
-0.000518920573937263
-0.000517554218373625
-0.000515041653280363
-0.000511450442525419
-0.000506821392757852
-0.000501169960358882
-0.000494546151983506
-0.00048705157319554
-0.000478799722721778
-0.000469916950385296
-0.000460518722243029
-0.000450700338017867
-0.000440469057843049
-0.000429806465452296
-0.000418697732919516
-0.000407201376092881
-0.000393536880178903
-0.000380166113613596
-0.000367943453513186
-0.00035553536284664
-0.000342967995375994
-0.000330245092459751
-0.000317418244629436
-0.000304493174512055
-0.000291456583386321
-0.000278301056461242
-0.00026500991631681
-0.000251572120967807
-0.000237965140467192
-0.000224140527195734
-0.000210061411497208
-0.00019564240507998
-0.0001808313482973
-0.000165478408730322
-0.000149511162853821
-0.00013263952790226
-0.000114799464768922
-9.54028945247643e-05
-7.4077219595074e-05
-5.85336774584641e-05
-4.75542288642699e-05
-3.59334756445501e-05
-2.37265740157629e-05
-9.49901281324194e-06
5.50040055151572e-06
2.29482417451207e-05
4.21398321133416e-05
6.12828438117405e-05
5.80072915610545e-05
-0.000177340307160023
-0.00037895057919563
-0.00057817947034767
-0.000818690713824321
-0.00110139873474782
-0.00133007170917327
-0.00147660340617792
-0.00149147571015636
-0.00134919481543322
-0.00122359263756583
-0.00120730408553102
-0.00148684983520655
-0.00238887880499925
-0.0039300444013279
-0.00607847500402663
-0.00819607593735998
-0.00569074855484506
-0.00300980616581669
-0.000465282350153427
0.00142873961501182
0.00309938791918064
0.000504714315309072
-0.00100441546683955
0.000346452295044066
-5.71495477568668e-05
-9.9120241912153e-05
-3.21392253181374e-05
-1.30608450136749e-05
-6.10828744885139e-06
-4.42301864349491e-06
-7.3938779261288e-06
-1.26331004894966e-05
-2.14427888873953e-05
-3.42017243780539e-05
-4.94642293234231e-05
-6.32548647229159e-05
-7.1465374547744e-05
-7.07983038209693e-05
-5.91993487855523e-05
-4.68100748414112e-05
-5.45164662563348e-05
-0.000141421813460677
-0.000168448862463099
-0.000225677492122251
-0.000260585248370159
-0.000301093845351215
-0.000330237897861071
-0.000359013780450511
-0.000382366137019013
-0.000404366660053082
-0.00042377324217147
-0.000442014788367428
-0.000459058744458143
-0.000475428202905782
-0.000520526928886913
-0.000540885956704547
-0.000558049454251967
-0.00057311939307835
-0.000586102379820385
-0.00059716192936014
-0.00060646043854317
-0.000614136226766091
-0.000620305088382676
-0.000625059665580249
-0.000628485144564
-0.000630662067757801
-0.00063167063994133
-0.000631586681953743
-0.000630484247258375
-0.000628434180579498
-0.000625505043626249
-0.000621764799094623
-0.000617280658876284
-0.000612109043242787
-0.00060628165447395
-0.000599791232085419
-0.000592616467251599
-0.00058478565261217
-0.00057636977918975
-0.000567449550432911
-0.000558107410311237
-0.000548425304092268
-0.000538462460196364
-0.00052819163054488
-0.000517563648321336
-0.00050653557215716
-0.000491020529352348
-0.000478330779790941
-0.000466295423870445
-0.000454090069222255
-0.000441689708993908
-0.000429098585828991
-0.000416309087438396
-0.000403353102445427
-0.000390232623992912
-0.000376933013597009
-0.000363440323823074
-0.000349731269762044
-0.000335784224484403
-0.000321570950562866
-0.000307044592105283
-0.00029215660900823
-0.000276823876942604
-0.000260964420690063
-0.000244439212951272
-0.000227115896548981
-0.000208753162960995
-0.000189124139419122
-0.000167798875760305
-0.000144416922776906
-0.000114144258361846
-9.17702673094629e-05
-6.67121721344909e-05
-3.86031883876068e-05
-5.42760491067486e-06
3.33144591024426e-05
7.75691884760183e-05
0.000135866952186729
0.00017132762743837
0.000152934112949317
-7.58200327139691e-05
-0.000289464871590875
-0.000493001679231839
-0.000730296551264001
-0.00101444058452287
-0.0012910796185399
-0.00151715566496964
-0.00163268341720456
-0.00160879015393748
-0.00154033144658931
-0.00149715737245364
-0.00177878383895786
-0.00254201747368299
-0.00403525432286712
-0.00593951061562099
-0.00783723042601948
-0.00648054389499097
-0.00357829136818678
-0.000364347300037251
0.00493264657746047
0.00579048274203317
0.00288450658454199
-0.000354813243919903
0.000564312938686205
6.98698258214423e-05
-0.000136833305029907
-4.99223419146416e-05
-2.19433337774653e-05
-1.1285301124143e-05
-1.03014188655698e-05
-1.70772689419988e-05
-2.84157257247112e-05
-4.61957265943483e-05
-6.99048283040271e-05
-9.51010633689377e-05
-0.00011430295826352
-0.000122835377917477
-0.000118310058280409
-0.000100906184652341
-7.57980501671577e-05
-9.0563436915208e-05
-0.000205327725661489
-0.000231221725586736
-0.000333149676961249
-0.000383851389036864
-0.000443362897507792
-0.000481479028331215
-0.000517970892523704
-0.00054548151616153
-0.000570343777509656
-0.000591033787489405
-0.000609572563683737
-0.000626069799603236
-0.000652233139487147
-0.00067837669004704
-0.000688762377070204
-0.000697572677182655
-0.000704382823956888
-0.000709310105960357
-0.000712597358574645
-0.000714476495741696
-0.000715139590634907
-0.000714736399936075
-0.000713380362239172
-0.0007111701715347
-0.000708194670858509
-0.000704537944241646
-0.000700273315632232
-0.000695467057652675
-0.000690176297440118
-0.000684450235233199
-0.000678333701585406
-0.000671867527344571
-0.00066508030667276
-0.000657974262154162
-0.000650511120772387
-0.000642638762951874
-0.000634359968183782
-0.000625718427568293
-0.00061676589058829
-0.000607551874245507
-0.000598131959222412
-0.00058854232437557
-0.000578738306872252
-0.000568645882273064
-0.000553547556517463
-0.000540981175094354
-0.000529694489454727
-0.00051825948512629
-0.00050667228643539
-0.000494898832233109
-0.000482931437198897
-0.000470754397276369
-0.000458384397944748
-0.000445820408425422
-0.000433049212367755
-0.000420054793486206
-0.00040681063221936
-0.000393289307094106
-0.000379460646208635
-0.000365282340327185
-0.000350704552274394
-0.000335649478481876
-0.000320026157260531
-0.000303706253955323
-0.00028654097654
-0.000268323458836762
-0.000248773841989959
-0.000227551477698633
-0.000204133925009549
-0.000169615177146393
-0.000142925775574007
-0.000111356598062883
-7.41972452276188e-05
-3.03376183630953e-05
2.58724013964753e-05
8.96597927111752e-05
0.000189582546033758
0.000245489793910541
0.000230990554169726
5.75061302246145e-05
-0.000132106146824456
-0.000312462383583037
-0.000515518830834129
-0.00076057113360943
-0.00102187624422388
-0.00125605524755199
-0.00140606634983977
-0.00144625727451166
-0.0014178588479412
-0.00133416750218459
-0.00152662309003752
-0.00198546468738206
-0.00310588979884088
-0.00451639104206966
-0.00601918834505314
-0.0055874441151738
-0.00286948581815246
-0.00262107733680725
0.00540078898373019
0.00651923691857711
0.0051710205238001
0.00104512777519306
0.00137993091531261
0.000183643547782179
-0.000100186856209113
-4.84284174760473e-05
-2.57435796383181e-05
-1.58659368242919e-05
-1.88131311110139e-05
-3.11695068029502e-05
-4.98691634402667e-05
-7.60411035342912e-05
-0.000107064922922517
-0.000135791282525191
-0.000154895346776726
-0.000162290535562544
-0.000156832436895415
-0.000139998397397758
-0.000124224328856673
-0.000168873219370324
-0.000299945346807968
-0.000330776088067796
-0.000468344375253382
-0.000525168989350175
-0.000592898834345884
-0.000631738313218902
-0.000668170395601484
-0.00069359312717329
-0.000715652124266512
-0.000732791377986362
-0.000747277912432568
-0.000757589625140983
-0.000789035386933472
-0.000793569941672024
-0.000797654377898969
-0.000800052291840113
-0.000800662762668047
-0.000799656221469023
-0.000797304204494363
-0.000793869347270019
-0.00078957071198975
-0.000784572103162718
-0.000778992529043377
-0.000772931337453796
-0.000766475023786641
-0.000759703227670373
-0.000752681005545576
-0.000745463667497656
-0.000738093750206211
-0.000730602426146014
-0.000723014772977216
-0.000715350306419666
-0.000707617777730253
-0.000699799160606364
-0.000691837106377676
-0.000683654701496374
-0.00067523147995646
-0.000666589773136851
-0.00065775954195901
-0.000648768033828121
-0.000639652483486237
-0.000630435411654298
-0.000621064710343013
-0.000607885844866413
-0.00059406576761365
-0.000583503723959436
-0.000572704994209809
-0.000561772857192993
-0.000550694117462738
-0.000539431922122755
-0.000527972161762085
-0.000516293284535214
-0.000504401926949702
-0.00049229459846159
-0.000479960093371516
-0.000467382499281782
-0.000454533488531941
-0.000441382323606775
-0.00042789786408535
-0.000414041283607653
-0.000399764469854193
-0.000384992329977034
-0.000369632136008997
-0.000353558547242197
-0.000336622254114377
-0.000318626667780472
-0.000299287379426006
-0.00027828062741711
-0.000255066048571988
-0.000224562066050836
-0.000193228430652057
-0.000159463759268707
-0.000119096139400497
-7.16323670844956e-05
-7.87758386715983e-06
6.35692377841306e-05
0.000187543332119036
0.000258182329178895
0.000274113927907569
0.000163626023582557
1.09589625038594e-05
-0.000140927941248859
-0.000310273266635172
-0.000517753452825414
-0.000750195136542995
-0.000966376537780243
-0.00111397428784418
-0.00116720815711258
-0.00114378058184857
-0.00101521909028052
-0.00109331925080781
-0.00127801671001946
-0.00198980350873868
-0.00290624006756638
-0.00397676177139499
-0.00414887314497096
-0.00213133427837932
-0.00416821017568596
0.00182354649733473
0.00434949015025327
0.00704240752970445
0.00207629432269644
0.00299384520306524
0.000755036118035488
4.66545741474688e-05
-2.29802714355505e-06
-1.3441337264169e-05
-1.52736671553717e-05
-2.73868403399712e-05
-4.63816828801148e-05
-7.15104950078619e-05
-0.000102590963677474
-0.000136407771123613
-0.000165932078328009
-0.000186173766895148
-0.000196430790546136
-0.000196242290230901
-0.000190799485503602
-0.000200833715613078
-0.000280919533088542
-0.000408857887654475
-0.000449536236000841
-0.000604884362216753
-0.000661503211116862
-0.000729501932298383
-0.000765023616541524
-0.000797767801025793
-0.000818912269530811
-0.000836465049400976
-0.000849003551272384
-0.000858976727107923
-0.000869798741178768
-0.000884971657681225
-0.000885278669251407
-0.000884588382101061
-0.000882279193892833
-0.000878389327207726
-0.0008731180778522
-0.000866744321054393
-0.000859546657798359
-0.000851761253153301
-0.000843559413222052
-0.000835060815718733
-0.000826361559800541
-0.00081754265904029
-0.000808677351616385
-0.000799821577436018
-0.000791020139266988
-0.000782302603934577
-0.000773684890851141
-0.000765175989683209
-0.000756778842686948
-0.000748488043521398
-0.000740271912406847
-0.00073206106333533
-0.0007237581138717
-0.000715322009495316
-0.000706757995503555
-0.000698079551879209
-0.00068929881305243
-0.000680439973004166
-0.000671517366291744
-0.000661250905562882
-0.000645030181738112
-0.000635054974260775
-0.000624806369052552
-0.000614347190715488
-0.000603753527241564
-0.000593008824854628
-0.000582075931389626
-0.000570937265282553
-0.000559566775982209
-0.000547964202853452
-0.000536123867721475
-0.000524036489085894
-0.000511687080348554
-0.000499045970871956
-0.000486080076902391
-0.000472757272224451
-0.000459040850891625
-0.000444884684282609
-0.000430213994334171
-0.000414935734401599
-0.000398922284256412
-0.000382027373211233
-0.000364050551036286
-0.000344717577467702
-0.000323684181525174
-0.000300438327185989
-0.000275238784130314
-0.00023898585329538
-0.000204144531638282
-0.000162348302340373
-0.000113044446573707
-4.5854797021896e-05
2.95486058287631e-05
0.000165639421603513
0.000250697459991283
0.000295125978587333
0.000241273506483076
0.000128289532031429
4.27179579945706e-06
-0.000137378261002379
-0.000316118620944619
-0.000522060868995994
-0.000715453985534792
-0.000848403675296244
-0.000892631714743887
-0.000855837772224289
-0.000686912073584836
-0.000657337053345508
-0.000630798245962508
-0.000996558544345874
-0.00149798778929516
-0.00220402912160236
-0.00276635257492835
-0.00208971242986848
-0.00400753142776682
-0.00213612313375631
0.000433313286074662
0.00817031645049458
0.00228678046232317
0.00475072616966604
0.00193094933971071
0.000271962133021412
9.54637007801625e-05
2.29407973071786e-05
-4.68887608736153e-06
-3.20679012325951e-05
-5.88470398507935e-05
-8.94759586320571e-05
-0.000123482253544166
-0.000159289385130775
-0.000191003167044371
-0.000215342451451778
-0.000231955319767101
-0.000241835039544033
-0.000254699214970641
-0.000295449784273834
-0.000401045487956458
-0.00051488617894994
-0.000570888913306009
-0.000729551144281481
-0.000783554901427721
-0.000847776763411927
-0.000879010598023255
-0.000907160837133497
-0.000923947804617345
-0.000937099408344606
-0.000945416563834861
-0.000951015060714581
-0.000968080015668266
-0.000965305680395274
-0.000962237225022931
-0.000957972202217467
-0.00095220529262288
-0.000945043341779602
-0.000936699920272624
-0.000927450050683697
-0.00091758067240889
-0.000907339728131569
-0.000896902775067164
-0.0008863876211473
-0.000875885274007126
-0.000865469794161586
-0.000855207395924322
-0.000845144861722801
-0.000835317304983868
-0.000825742886836505
-0.000816424556757222
-0.000807358000321605
-0.000798533101996734
-0.00078993412456735
-0.00078152026059986
-0.000773214553433941
-0.000764902421999532
-0.00075652450280337
-0.000748071953402334
-0.000739545512491643
-0.000730947208832592
-0.000722291615801558
-0.000713588761088704
-0.000698067174338933
-0.000686569071014032
-0.000676764016369687
-0.000666717369952722
-0.000656467195126737
-0.000646071800993933
-0.00063551347895978
-0.000624756048157877
-0.000613780250374787
-0.000602556483171054
-0.000591079496898574
-0.00057934162661187
-0.000567335380160629
-0.00055504702131934
-0.000542445678226182
-0.00052949626976151
-0.000516165435899923
-0.00050241758763936
-0.000488208041109457
-0.000473460706455046
-0.000458081699179233
-0.000441938118942577
-0.000424885917634712
-0.000406713831631266
-0.000387158942398641
-0.000365840696816262
-0.000342283342557152
-0.000316393004390711
-0.000280376652717022
-0.000244772295138218
-0.000201805253013857
-0.000150656345009886
-8.12072371075626e-05
-2.05854053135906e-06
0.000140480585700774
0.000242139820887793
0.000305424431522271
0.000298095820519356
0.000223519388855553
0.000125623221658468
6.27615751416703e-06
-0.000151294122106997
-0.000335344044629111
-0.000506630642338524
-0.000621462653464214
-0.000648684302561257
-0.000591323722249874
-0.000388672024510176
-0.00026650162802593
-7.97904943051047e-05
-0.000169652021800546
-0.000336007572373495
-0.000757284187588416
-0.00156213346126503
-0.00219251753175327
-0.00386199142471983
-0.00421713064177098
-0.00320814538904839
0.00816098562086198
0.00184467802055163
0.00666633524557868
0.00285337289235708
0.000541187393108433
0.000225920681042963
8.11782968296908e-05
1.74475376562108e-05
-3.03475138924091e-05
-6.70209035571338e-05
-0.000103364021604769
-0.000140093183170092
-0.000178557227342047
-0.000214050658433541
-0.00024454963920788
-0.000269902806099474
-0.000292946583847423
-0.000326885489116539
-0.000395767710177857
-0.000515514676105918
-0.000614385179644944
-0.000686057471194944
-0.000839149360345979
-0.00089022893625809
-0.000949159549743765
-0.000976400705589813
-0.00100012528081257
-0.00101309591253024
-0.0010224265856968
-0.0010272085978888
-0.00102804504986679
-0.00103975989633916
-0.00103478325519277
-0.00102910135282797
-0.00102217848115558
-0.00101388469620841
-0.00100436294140279
-0.000993830638998676
-0.000982551855953448
-0.000970816782675666
-0.000958881350369694
-0.000946923110787862
-0.000935056119512415
-0.000923365037293083
-0.000911915935356791
-0.000900767703133613
-0.000889957987334152
-0.000879512901741529
-0.000869440438622912
-0.000859732309957366
-0.000850372967108336
-0.000841341815987872
-0.000832615452058684
-0.000824147141269033
-0.000815855477892023
-0.000807611342268637
-0.000799338944674476
-0.000791017582417473
-0.000782637942372328
-0.000774195780594034
-0.000765698236276922
-0.00075390779538204
-0.000738872778254036
-0.000729447688011835
-0.000719741171825597
-0.000709803292874371
-0.000699656626194777
-0.000689347207957253
-0.000678857136821017
-0.000668152040673929
-0.000657212208968633
-0.00064600522104206
-0.00063452204701343
-0.000622753229289713
-0.000610693029139853
-0.000598329112252232
-0.000585629429751432
-0.000572556982924382
-0.000559076908483862
-0.00054515408442442
-0.000530744566438499
-0.000515769873910877
-0.000500134141334237
-0.000483697510934211
-0.000466315927331034
-0.000447764241352789
-0.00042778688356444
-0.000405962059182102
-0.000381842803015974
-0.000355078299631173
-0.000318589499163683
-0.000282171228698789
-0.000237847899259654
-0.000184493631800872
-0.000112940352778166
-2.94823144532935e-05
0.000116959351666148
0.000236757742135857
0.000311155883673668
0.000340543078824574
0.000301553714803855
0.000227905550049265
0.0001267382937898
-1.5088355590892e-05
-0.000180977990590671
-0.000331562669817168
-0.000427415640390375
-0.000435080918588576
-0.000355061771566513
-0.000124700448414864
7.52345752655802e-05
0.00038612147723625
0.000517679353246953
0.000625433480230654
0.000426440846428149
-0.000525414829887393
-0.00215482687423704
-0.00425535672199679
-0.00480116987887869
-0.00598021583855106
0.00753664650220849
0.00102822179365536
0.00836560047065256
0.00337926378835813
0.000881714308549552
0.000364732863555408
0.000152026353285289
4.89217705117754e-05
-2.20681156164905e-05
-7.08571187257716e-05
-0.000113368851122332
-0.000153111273381411
-0.000194969533579446
-0.000235463891714911
-0.000273637928963123
-0.000309413884848129
-0.000347243128855568
-0.000402092680474721
-0.00049383844781599
-0.000620133735066113
-0.000706993651512414
-0.000791246887339043
-0.000934671998905261
-0.000983245312397995
-0.00103661019341437
-0.00106044315457557
-0.00108021021707105
-0.00108996670976433
-0.00109608879390129
-0.00109808374331269
-0.00109418179199575
-0.00110298039702019
-0.00109622224171975
-0.00108857270246444
-0.0010797139611122
-0.00106961885517438
-0.00105844867917171
-0.00104641674256357
-0.00103377090739362
-0.00102080063698128
-0.00100776668082271
-0.000994846684099001
-0.000982149273630911
-0.000969751709600369
-0.00095771115117836
-0.000946078942117252
-0.000934883532747247
-0.000924142554138326
-0.000913854782779202
-0.000904002012597684
-0.00089455903756954
-0.000885496721196177
-0.000876785924044533
-0.000868376329938362
-0.000860184469330907
-0.000852068982678278
-0.000843939203237236
-0.000835764347552173
-0.000827527020366164
-0.000819219945370773
-0.000810844085997901
-0.000793226250068064
-0.000783294011355957
-0.000773888637211555
-0.000764217158000597
-0.000754310927824729
-0.000744181770479629
-0.000733866931833523
-0.000723348821073191
-0.000712595552701279
-0.000701587876032172
-0.000690291145839713
-0.000678693349287157
-0.000666783437553538
-0.000654557508949757
-0.000642004728083041
-0.00062909183549814
-0.000615779857517839
-0.00060203218545608
-0.000587813775039864
-0.00057308074450805
-0.000557751465599554
-0.000541726794661057
-0.000524858926950048
-0.000507001251239393
-0.000487913599051602
-0.000467342099473006
-0.000444823754881312
-0.000419927652079305
-0.000392101962836104
-0.000354547732259254
-0.000317220317869329
-0.000271229636730744
-0.000215303298826913
-0.000141457202066239
-5.31169316503514e-05
9.61969603246259e-05
0.000234531352095259
0.000315256211746537
0.000373068257936131
0.000366296132830621
0.000315048192484156
0.000228919990765877
9.91279423387468e-05
-5.1034473930689e-05
-0.000181879260720282
-0.000258576548922706
-0.000246241633780051
-0.000143806015995893
0.000109184166644746
0.000374266924896557
0.000784153517787334
0.00109929057952073
0.00143909094554438
0.001420996632987
0.000383402327127921
-0.00195973148501887
-0.00483951437113985
-0.00495869363382783
-0.00772513014392031
0.00600842073018275
0.000299195036652838
0.00916499763226021
0.00407443243696341
0.00138676829728319
0.000499429774510548
0.000226923137991073
8.63055220607367e-05
-8.05717663345576e-06
-7.02444172407867e-05
-0.000119205021813683
-0.000162482127103476
-0.00020848083993744
-0.000255009675943845
-0.000302016661626746
-0.000349290518778863
-0.000402360112116721
-0.000476354745287029
-0.000585678216965275
-0.000714475607155013
-0.000792625633228344
-0.000885613163328782
-0.00101821376296741
-0.00106473416677955
-0.00111279623525212
-0.00113375739293873
-0.00115007193473287
-0.00115713471829913
-0.001160580975426
-0.00116056162980398
-0.00116407301893887