/*--------------------------------*- C++ -*----------------------------------*\
  =========                 |
  \\      /  F ield         | OpenFOAM: The Open Source CFD Toolbox
   \\    /   O peration     | Website:  https://openfoam.org
    \\  /    A nd           | Version:  7
     \\/     M anipulation  |
\*---------------------------------------------------------------------------*/
FoamFile
{
    version     2.0;
    format      ascii;
    class       volScalarField;
    location    "20000";
    object      k_diff;
}
// * * * * * * * * * * * * * * * * * * * * * * * * * * * * * * * * * * * * * //

dimensions      [0 2 -3 0 0 0 0];

internalField   nonuniform List<scalar> 
15600
(
0.00110905128157753
0.0007714500243618
0.000324876870029385
7.58270716123073e-05
5.04071146128793e-05
4.44787958809058e-05
1.90417244020561e-05
9.57016768861006e-06
6.1813809890323e-06
5.34109852102615e-06
5.92148015650697e-06
7.37486700308369e-06
9.80948809382828e-06
1.3034727390934e-05
1.68518937360607e-05
2.08420631919845e-05
2.44048333822004e-05
2.74612174639552e-05
2.99295300011801e-05
3.1258108168758e-05
3.30543398045252e-05
4.16555806634808e-05
6.28620600811768e-05
8.71902547979989e-05
0.000113163565243217
0.00013977411609024
0.00016683499111003
0.000193950105066652
0.00022111672646612
0.000248172711593834
0.000275076861163316
0.000301709137439327
0.00032798585860022
0.000353805990491246
0.000379110171645636
0.000403922585660983
0.00042835121546579
0.000451953816353737
0.000474163942445664
0.000494875867833006
0.000513979533695378
0.000531401506414554
0.000547094863368916
0.000561034108318258
0.000573210267747763
0.000583630641953738
0.000592318453966708
0.000599313242532611
0.000604669683820516
0.000608455954057254
0.000610751772015602
0.000611647343904943
0.000611238515039767
0.000609628790538864
0.000606915974267053
0.000603195809150876
0.000598540080000824
0.000593018161205148
0.000586724474784533
0.000579758547434034
0.000572229674500467
0.000564232063018928
0.000555857303127886
0.000547166021613764
0.000538184398275598
0.000528952170822922
0.000519508603044479
0.000509916908519979
0.00050023500555465
0.000490457609952598
0.000480630892458707
0.00047073872025184
0.000460797256109093
0.000450828038058734
0.000440833814791244
0.000430811844218898
0.000420758493878459
0.000410666765623216
0.000400531426352771
0.000390341749823202
0.000380076968733631
0.000369718211103734
0.000359231382627828
0.000348593927995922
0.000337752171056957
0.000326679354789427
0.000315275248666584
0.000303525764427744
0.000291231458140191
0.000278504772308131
0.000265659385831534
0.000252495927551963
0.000238205441887038
0.000223295985680398
0.000206146101257848
0.000188507544091754
0.000166607234758325
0.000145746637479396
0.000115893690406983
0.000130947450375147
0.000187147087357964
0.000257012560194014
0.000339331566804079
0.00043897735709081
0.000555179946963589
0.000659854667466375
0.000746703994688552
0.000809413340768599
0.000839642769467748
0.000881525789433939
0.00096251218705728
0.00110087289644593
0.00140438442738568
0.00186249718273235
0.0025556718280209
0.00343670006483121
0.00340956147201863
0.00215931605139405
0.00133540545344965
0.00103075517542103
0.0059243945652521
0.00418986821128252
0.00178821850348209
0.000428166738393831
0.000272790199718861
0.000242583207242803
0.000106076103378747
5.3177021233941e-05
3.40988419465985e-05
2.92527678070616e-05
3.22096919933006e-05
3.99627480779821e-05
5.30678679446499e-05
7.05286187598682e-05
9.12970466675747e-05
0.000113155594875342
0.000132809478861157
0.000149436835203494
0.000162423747617663
0.00016986153739486
0.000181045260167439
0.000227565121670005
0.000341159498230632
0.000471367245963905
0.000609766455097535
0.00075110118525929
0.000894470030472462
0.00103786172576224
0.00118136119748887
0.00132417833703881
0.00146617610668651
0.00160678376952314
0.00174562366426616
0.00188221196711204
0.00201625559738132
0.00214790542484814
0.00227652539776465
0.00239698097011751
0.00251046681729342
0.00261633200646637
0.00271408946289025
0.00280341492202961
0.00288410020952078
0.00295602968091305
0.00301916089958183
0.00307352477100771
0.00311922573960341
0.00315644413529557
0.00318543136891775
0.0032065032745193
0.00322003213070971
0.00322644040062685
0.00322618210765046
0.0032197457709323
0.00320760081897525
0.00319020214579622
0.00316790109748314
0.00314104708494325
0.00311010543060035
0.00307557264404242
0.00303798838060088
0.00299782558053138
0.00295554365812842
0.0029114586401462
0.0028657188655528
0.00281854431320987
0.00277014001687448
0.00272084003519527
0.00267094371770101
0.00262042558119404
0.00256954836122044
0.00251830071830207
0.00246667188909206
0.00241477805016593
0.0023626774234921
0.00231036853104384
0.00225784012911041
0.00220506517534742
0.00215202280538972
0.0020986643162352
0.00204489422440354
0.00199061547172027
0.00193566803576827
0.00187992593361551
0.00182314089459495
0.00176514452036842
0.00170548420834297
0.00164399487035182
0.00157980575583061
0.00151279917462346
0.00144358011482685
0.0013726025456005
0.00129570014828698
0.00121532125392133
0.00112316169084619
0.0010279185046518
0.000910251775926342
0.00079717792823017
0.000637583131830676
0.000719163388160283
0.00100186773555359
0.00135818551184255
0.00177850158958777
0.00228462112051808
0.00287027096407915
0.00341276780479917
0.00387542205503579
0.00422712987742136
0.00443085368012102
0.00467840308121209
0.00511113581262844
0.00582897695949633
0.00731195341915139
0.0095118211516732
0.0126674196422083
0.0164285984709979
0.016745006893551
0.0109364950683606
0.00703034639305603
0.00559329405221287
0.0130698117405962
0.0095680896831796
0.00432951480371912
0.00110320889618504
0.000637609644674858
0.000572392152283091
0.000257443773617242
0.000129316617261639
8.26146384565995e-05
7.05494885155199e-05
7.70558795599095e-05
9.50857084653377e-05
0.000125714805322864
0.000166523173593388
0.000214929060356124
0.000265785958928726
0.0003115467626813
0.000350833617043246
0.000378590337572428
0.000399174588194811
0.000427004173529866
0.000530462311744653
0.000773871303198185
0.00104618328460842
0.00133065931846909
0.00161690128180104
0.001905248474304
0.00219220256017303
0.00247913781423662
0.00276490878291666
0.00304990380110128
0.00333332338129003
0.0036147619564622
0.00389341975636564
0.00416858211885776
0.00443931490091212
0.00468698624606093
0.00492637126685907
0.00515416549103943
0.00536921363745319
0.0055705286287007
0.00575734891198836
0.00592907599349918
0.00608524753740367
0.00622551853958428
0.00634967061020919
0.00645762065090544
0.00654943084672881
0.00662530526728238
0.00668558354399824
0.00673073088174778
0.00676132600596119
0.00677803720357689
0.0067816171905481
0.00677283121032127
0.00675244261743586
0.00672108173240763
0.00667940135230073
0.00662825742667252
0.00656858906426713
0.00650141828937072
0.0064276734239866
0.00634827532369883
0.0062639314781306
0.0061750488748613
0.00608218330419591
0.00598581140763712
0.00588668464703176
0.00578545366232994
0.00568300160552166
0.00557849119940725
0.00547239105385771
0.0053650455175511
0.00525674544553583
0.00514768545077639
0.00503796348611337
0.00492764290328951
0.00481675622172837
0.00470533526775635
0.00459335824163616
0.00448072413985043
0.00436729714068875
0.00425285710686715
0.00413718389928317
0.00401991543243294
0.00390069876941667
0.00377886535301302
0.00365391665929757
0.00352460885932193
0.00339024444826623
0.00324394673270693
0.00309404136467966
0.00293288569711871
0.00276361305899258
0.00257147826681576
0.0023695438189424
0.0021227403907008
0.0018771636274696
0.00153817840406593
0.00170697936386106
0.0022206836610505
0.00290356597403201
0.00371686967405329
0.00468628469036412
0.00579563637235701
0.0068700589810515
0.00782749306539898
0.00861634816916198
0.00917927839425287
0.00978031882989086
0.0106827072727981
0.0120533583030358
0.0145695192192816
0.01806191218333
0.022416816179576
0.0267520223682576
0.027764626443267
0.019061417154872
0.0131796846886485
0.0119499130479828
0.0133808634565712
0.012314507862111
0.00683145993765813
0.00221407717801441
0.00104799716706366
0.000939996440472915
0.000439223795737514
0.000222158204778061
0.0001419426445332
0.000120826338433621
0.000130576847897851
0.000159579580675424
0.000208533044868631
0.000272546429402177
0.000346414851018613
0.000421427117694208
0.000486350209001471
0.000540304437072309
0.000581897082308904
0.000609548234893712
0.000648004663866869
0.000783055051952414
0.00108976684395224
0.00141991773326413
0.00177068804111822
0.00212218579441966
0.00248090541730752
0.00283948002050762
0.00320078937287111
0.00356180577758286
0.003922723871521
0.00428151710921936
0.00463703251083186
0.00498753896941636
0.00533132590817774
0.0056350960289552
0.00594058455880604
0.00623187030183423
0.00650789059836292
0.00676728162290545
0.00700896936354456
0.00723218583418725
0.00743639975204291
0.00762127301850863
0.00778662597408676
0.00793243231190366
0.00805881527480796
0.00816604762046401
0.00825453821959254
0.00832481971569986
0.0083775327135492
0.00841340725076856
0.00843324293784306
0.00843789866395322
0.00842824979960203
0.00840516558764602
0.00836940805039808
0.00832173048882398
0.00826302868403062
0.00819427157488239
0.00811648784459967
0.00803062143084781
0.00793761996885553
0.00783829370381329
0.00773317030331755
0.00762293446071032
0.00750811467452923
0.00739138636974435
0.00727110716805016
0.00714694406505983
0.00702033894210346
0.00689158558345468
0.00676101409372566
0.00662898875896852
0.00649581938924203
0.00636172854420455
0.00622689553664505
0.00609147512782017
0.00595561283723858
0.00581940950131783
0.00568290143653239
0.00554607510493309
0.00540886558649364
0.00527117434453798
0.00513283038742874
0.00499360108213655
0.00485309207478752
0.00471088453989539
0.00456619331517886
0.00441862552706676
0.00425948102938852
0.004093177943936
0.0039176929664195
0.00373390366343005
0.00352989657105155
0.0033125900371521
0.00305001650597241
0.00277887451365818
0.00240250474404494
0.00255483462682592
0.00301457094561193
0.00370649903026756
0.00457401806999811
0.00561765872997179
0.006822325248711
0.00806121308920797
0.00923152659963044
0.0102761868549535
0.0111242914344588
0.0119426347874291
0.0130135014134605
0.0144365285023553
0.0167258667570527
0.0196413290517474
0.0227858974597682
0.0256710990745819
0.0278920406714858
0.0200720181111664
0.0120177053289047
0.0113434321384288
0.00375801293980852
0.00824475463246662
0.0072128083906648
0.00370812489007391
0.00148541975677396
0.0012720985224772
0.000624289545734199
0.000319435300264219
0.000204761507063864
0.000173486833568844
0.000184470708202956
0.000221244814368105
0.000281835054882065
0.000356889551301205
0.000437116483820706
0.000510335973307332
0.000565088449557332
0.000604591251259059
0.000632407708909013
0.000652307898739408
0.000706647863481155
0.00087436829964808
0.00123072355798081
0.00160429318279116
0.00201860514043477
0.00242309109987318
0.00283130760848718
0.00322812332614458
0.00361817400631064
0.00399662767236104
0.00436421260012497
0.0047188717094415
0.00506000803177455
0.0053866517093238
0.00566905544340174
0.00595430128963258
0.00622167697796158
0.00647068178263486
0.00670100579481379
0.00691231100121275
0.00710446819253913
0.00727755555442128
0.00743180940118217
0.00756757848999294
0.00768528911246534
0.00778543585837036
0.0078685769240537
0.00793533568430699
0.00798639010152143
0.00802246622735132
0.00804432746833305
0.00805275980394926
0.00804856366626605
0.00803254569409586
0.00800551201938043
0.00796824752441102
0.00792146048689565
0.00786580343354661
0.00780197691889722
0.00773071962533823
0.00765279229792702
0.00756888244230756
0.00747968122362316
0.00738582665369234
0.00728774354502783
0.00718597332948106
0.00708498033709538
0.0069784708831894
0.00686876756860612
0.00675695306323976
0.00664321814805068
0.00652777431506398
0.00641085655288787
0.0062926951891795
0.00617350554134305
0.00605344727126436
0.00593264478759552
0.00581121200113647
0.00568925277943319
0.00556684875698636
0.00544404162590797
0.00532083772275853
0.00519721938882463
0.00507314691068606
0.00494854572980798
0.00482330602083346
0.00469722069141274
0.0045700902677316
0.00444146740129075
0.00431096786198174
0.00418060784335631
0.00403936979117926
0.00389347814023112
0.00374291180786148
0.00358073955228575
0.00341128093788735
0.00321105104655543
0.00301230661841504
0.00272648044992462
0.00270250708476866
0.00295817791356107
0.00345814058592448
0.00415599161200095
0.00502813015277858
0.00607087864211287
0.00722176482554442
0.00839252761195866
0.00952722134021296
0.010532388187555
0.0114345528749488
0.0124678087461197
0.0136662102320456
0.0155385250788002
0.0180980184608371
0.0213367452347459
0.0253990019439622
0.0300732262939754
0.0254419619094449
0.0106446871247593
0.00492116444109934
-0.000264957167563202
0.00268569761881483
0.00507913336518646
0.005167308623606
0.00207443300304434
0.00152812746002139
0.000791331602354281
0.000409942400028017
0.000263671251133653
0.00022099722724411
0.000229002611254752
0.000266124829016271
0.000325533817227689
0.00039327003404642
0.000457933683774219
0.000507533247139235
0.000536136711083022
0.000552870503880661
0.000566114304451313
0.000599049640701948
0.000703796669361569
0.000964081251781138
0.00141785547333575
0.00182899973746806
0.00226210428165555
0.00265271476711336
0.0030324637234954
0.00338759515106433
0.00372788629243316
0.00405040563228475
0.00435781388793354
0.00464950065487276
0.00492593673681411
0.0051762136575329
0.00540777622852355
0.00563493373251059
0.00584488241025106
0.00603857799977002
0.006216041597177
0.00637727377040039
0.00652237948929848
0.00665158983114028
0.00676524722091371
0.00686376874297602
0.00694761730083553
0.00701729302530139
0.00707333039490907
0.00711630333964557
0.00714681713582347
0.00716550619559339
0.00717302626062912
0.00717004105451869
0.00715721911279435
0.00713522562376449
0.00710473280068899
0.00706640065634176
0.00702084645569552
0.00696861599685495
0.00691025946971636
0.00684635153823029
0.00677747813402051
0.00670416320085272
0.0066269374025174
0.00654632621181873
0.00646269624117407
0.00638116006964612
0.00629477249847847
0.00620515433031075
0.00611382859116974
0.00602100417851111
0.00592685279719771
0.00583152283954074
0.00573517809898409
0.00563796026228813
0.00554000890067027
0.00544142539990763
0.00534227925766327
0.005242633852792
0.00514253856979812
0.00504202804507638
0.00494110754456453
0.00483975297015954
0.00473792625287829
0.0046355698302906
0.00453260517179298
0.00442892403335018
0.00432435615892204
0.0042187269054803
0.00411170203668331
0.0040029811999564
0.00389889981458277
0.00378216259531462
0.00366351751693408
0.00354160302993707
0.00341174503505957
0.00327788704225022
0.00312033415277961
0.00297235536776063
0.00274393330525038
0.00257963905120571
0.00270160769935937
0.00305822156843408
0.00360530257843552
0.00431185421067488
0.00518050091922597
0.00619108204233931
0.00728537467437972
0.00842514611465497
0.00953914824175304
0.0105916770124792
0.0117505420123286
0.0130246810292882
0.0149320213646897
0.0176506161380736
0.0212737781004482
0.0256559172683951
0.0301679437660439
0.03201403582418
0.0153560056552859
0.00364420143500498
0.000900383361428816
0.00110160683776316
0.00254216105308921
0.00566457351161405
0.00272410753779028
0.00173048190641529
0.000935775618686668
0.000486995468620541
0.000312275303836465
0.00025609207096706
0.00025613966054914
0.000286616159810486
0.000336939044162512
0.000392078203115256
0.00044177948092949
0.000475746433200824
0.000493961171466054
0.000509335817999185
0.000535383856901523
0.000603371407577361
0.000770457067264705
0.00111117672786281
0.00158197735943696
0.00194172542442107
0.00231157170196227
0.00263370641238697
0.00294784618491138
0.00324093519730606
0.0035224452973622
0.00378952581231863
0.00404431481058628
0.00428625651639263
0.00451731697123554
0.0047125392504171
0.00491740043962087
0.00510610954390823
0.00528064505114329
0.00544149197289447
0.00558864530110016
0.00572210470981451
0.00584193952693289
0.00594832558502785
0.0060415471628008
0.00612196179545108
0.00618997063371779
0.00624600736759873
0.00629053361146504
0.00632404520279269
0.00634706348565156
0.00636013496666263
0.00636382430106683
0.00635870091235716
0.00634533733764149
0.00632430072411741
0.00629617153651225
0.00626152651160998
0.00622092583449106
0.00617485356064901
0.00612377333703163
0.00606816368069025
0.00600851000762316
0.00594524248433399
0.00587879935905678
0.00580964054839117
0.00574167516711719
0.00567228095098402
0.00559789376621151
0.00552217363754145
0.00544513459359793
0.00536696459015517
0.00528782681813333
0.00520784706562998
0.00512716122139523
0.00504587405941652
0.00496409276154432
0.00488189801791707
0.00479934184994951
0.00471647303213911
0.00463332392798072
0.00454991572797261
0.00446624725053621
0.00438229262844888
0.00429801936115041
0.0042133775447768
0.00412830743922925
0.00404272067206055
0.00395650130753464
0.0038695060754964
0.00378153307424523
0.0036923183431928
0.00360522369502944
0.00351339085494526
0.00341836499470216
0.0033210140252555
0.0032188834688244
0.00311447780646423
0.00299362401304924
0.00288309014108019
0.0027098297923802
0.00248606459383643
0.00251366144970712
0.00275912546849657
0.00317920663720991
0.00374039424587451
0.00444657258222551
0.00530361702168936
0.0062747361072855
0.00733454777545471
0.00844204498421593
0.00955125890778959
0.0107863765239164
0.0121494049924951
0.0140416448318443
0.0165798904693415
0.0196901208855991
0.0228982723544129
0.0257413101461254
0.0305782748538002
0.0219113866061795
0.00770670106041367
0.00439458459016989
0.0027412622865343
0.00100810502010524
0.00473181385608682
0.0037388300538123
0.00193609639499969
0.00107454912004631
0.000556036054494146
0.000350827534293698
0.000278270717530917
0.000268402942024407
0.00029252772841279
0.000338118008639433
0.00038892508655976
0.000433431653979295
0.000462198141580149
0.00048061066491849
0.000504700957266729
0.000551827865122167
0.000654458328544064
0.00086082036033556
0.00121962821631573
0.00161503012564402
0.00189580955997715
0.00219407231009384
0.00245857914100341
0.00272199328569589
0.00297131992422076
0.00321289795898519
0.0034437178083666
0.00366480770893186
0.00387529660271868
0.00407194049973003
0.00425048715258465
0.00442885151555515
0.00459393200979876
0.00474682404375159
0.00488777324462158
0.00501673940055798
0.00513370531088336
0.00523870452505815
0.005331867833034
0.00541343513137326
0.00548372142454215
0.00554308523446733
0.00559191558040486
0.00563062508149038
0.00565965757619846
0.00567947805837462
0.00569057394807065
0.00569344857927159
0.00568860770038027
0.00567655830132882
0.0056577998088102
0.00563284767129934
0.00560221843683327
0.00556643337147695
0.00552593842102901
0.005481141291426
0.00543245509528978
0.00538029636347725
0.00532503062777549
0.00526703106934858
0.00520793570078489
0.00515268156946262
0.00508959414026522
0.00502529598336991
0.00495987456443575
0.00489336836860008
0.00482594747477831
0.00475777059582109
0.0046889544248047
0.00461962225254907
0.00454986064799269
0.00447976035858161
0.00440939459846963
0.00433881118829022
0.00426805728599239
0.00419716229400952
0.00412614695058285
0.00405501489775349
0.0039837497517388
0.00391233396477225
0.00384073619964577
0.00376892233158487
0.00369683415874472
0.00362440876984891
0.00355154725739328
0.00347816147045675
0.00340404328892095
0.00332779840245137
0.0032571139487088
0.0031803563464802
0.00310219876417004
0.00302200945469789
0.00294075584576587
0.00285039202283068
0.0027685279561434
0.0026521441524365
0.00241003543952644
0.00236972290298864
0.00252603195306281
0.00283863027640151
0.00327362178543328
0.00383619227280377
0.00455044667948959
0.00539262229664709
0.00634209656973555
0.00737463466584041
0.00843923333938099
0.00962570597909816
0.0109328191274857
0.0126183010672014
0.0146888510134974
0.0169462495777112
0.0188581607008048
0.0204598002992718
0.0249593177865403
0.0245655845769361
0.0129721683245162
0.00886612860573183
0.0054655775472832
0.000751876191349549
0.00286745075564619
0.00487406203082678
0.00216891932161097
0.00121954403172874
0.000632170089526455
0.000389429105349003
0.000297664795897341
0.000279452239385558
0.000301986805302206
0.000348424257170986
0.000397678234626747
0.000436976823179755
0.000461007183118786
0.000480489138024525
0.000513028750040653
0.000576903116708273
0.000699510685757533
0.000914615769893514
0.00124447334450307
0.00154329670160744
0.00176518845241775
0.00201019219961042
0.00223683344510047
0.00246588615160051
0.00268628632954595
0.00290109497138653
0.00310765455054225
0.00330606752248182
0.00349565457850788
0.00366213364196769
0.0038353919077431
0.00399569387033541
0.00414448732522068
0.00428241198834196
0.0044095925460139
0.00452597691013139
0.00463154689450993
0.00472632075599855
0.00481040559431838
0.00488401623812377
0.00494744377271572
0.00500102197077365
0.00504511320432448
0.0050800990013127
0.0051063893868343
0.00512441101672592
0.0051346101056963
0.00513744639576801
0.00513337954655173
0.00512286801257114
0.0051063598494274
0.0050843194513995
0.00505721405398378
0.00502553414173337
0.00498969989176951
0.00495007889269076
0.00490703426921508
0.00486092871844792
0.00481207710889538
0.00476079972346993
0.00471421210268136
0.00466190992218463
0.00460652258518341
0.0045500648559959
0.00449263451119238
0.00443427673654528
0.00437514480615107
0.00431539359714893
0.0042551350824356
0.00419448534877714
0.00413351951960661
0.00407231742913363
0.00401094886476995
0.00394946132159163
0.00388790389629499
0.00382630692718845
0.003764693936764
0.00370307551172044
0.00364144656361951
0.00357980471234762
0.00351813796324638
0.00345643492667697
0.00339466715487583
0.00333281359058249
0.0032708203660336
0.00320868187480992
0.00314625379424304
0.0030827513517819
0.00302433690926986
0.00296134736891693
0.00289801697524735
0.00283475959075166
0.0027712178822931
0.00270477639419265
0.00264392406068651
0.00257764749874706
0.00233610641103507
0.00224874216235431
0.00233355688246184
0.00255467949886478
0.00288002983281361
0.00331797533279485
0.00390697672143213
0.00463131540023046
0.00547074593714264
0.00640787492548718
0.00738336795410541
0.00845414796846071
0.00961369836470926
0.0109874886108422
0.0124952896553292
0.0139052744275981
0.0148063424795884
0.0157929063697083
0.0195815024565548
0.0227293507392469
0.0166266093450708
0.0111646098690494
0.00910839264740005
0.00143077018282107
0.00149133168373499
0.00495748406237407
0.00244548704637393
0.00135844885370353
0.000722533006363315
0.000439209634392199
0.000326218860668175
0.000300235146952825
0.000321921860538581
0.000366965717619854
0.000409974330760406
0.00044080575686904
0.00045963077164829
0.000479777754880908
0.000518051297145489
0.000590850952590622
0.00071772887088036
0.000919984193963027
0.00120308726405191
0.00142216999625795
0.00160678249633489
0.00181384784418221
0.00201515349930986
0.00221967189114558
0.00241952864527861
0.00261489394557877
0.00280373330726702
0.00298541822145364
0.00316065118880479
0.00331413973588277
0.00347211991107079
0.0036188219995267
0.0037552035566396
0.00388165148755852
0.00399822872190436
0.00410488709060747
0.00420161962585002
0.00428844451745156
0.00436546025172012
0.00443286940732294
0.0044909512566189
0.00454002629174867
0.00458044183762928
0.00461255969364844
0.00463676761899098
0.00465346517849556
0.00466306840736094
0.00466600429443481
0.0046626970460852
0.00465356681607284
0.00463901995049672
0.00461947787312784
0.00459536390070353
0.00456714141151213
0.00453521227211318
0.00449991348290392
0.00446156719891426
0.00442049044916308
0.0043769553230023
0.00433448383545465
0.00429344084776423
0.00424533472386739
0.00419623787623124
0.00414618980762843
0.00409528917028627
0.00404357915007483
0.00399119636007008
0.00393829167671333
0.00388497398912478
0.00383135437716198
0.00377749922902082
0.00372347947382845
0.00366936276090991
0.00361519738245143
0.00356103516843148
0.00350690820758703
0.0034528431121109
0.00339885707109127
0.00334495560608879
0.00329114966143255
0.00323744479302727
0.00318384788896769
0.00313035721363535
0.00307698280269012
0.00302371300119563
0.00297059823697148
0.00291756062089028
0.00286416535275837
0.00281593729869064
0.00276364662980576
0.00271211410836528
0.00266217353640976
0.00261244333958965
0.00256471591636455
0.00251933311760517
0.0024941565336819
0.00226158915988845
0.00214209328030028
0.00216881716625554
0.00231067995881283
0.00253940647901398
0.00286863563425271
0.00334853160461759
0.00396799695167366
0.00470505701581436
0.00554385959560086
0.00641458689853082
0.00734179106553894
0.00831078219134023
0.00932811605459359
0.0102587174483726
0.010902801414564
0.0110933088167997
0.0119383032603241
0.0153848076148334
0.0190675794619148
0.0177319577037424
0.0117653065897477
0.0115789429177194
0.00249377139735523
0.000811955850545183
0.00375384661751689
0.00281280120066035
0.00147986839249106
0.00081906748929779
0.000500980864034491
0.00036642532099456
0.000330267156056242
0.000346988350047482
0.000384874823612421
0.000417722774710099
0.000439627769939284
0.000454156185569036
0.000474513117321778
0.000515332283131515
0.000589730759933361
0.000709747035783605
0.000888829828704795
0.00112478430938786
0.00128607656032352
0.00144635428251637
0.00162519272641715
0.00180807465988037
0.00199375014784416
0.00217779984317324
0.00235796277224483
0.00253285545777807
0.00270117075075862
0.00286586498218846
0.00300746542356592
0.00315328815733474
0.00328897673352457
0.00341519074003236
0.00353216940828855
0.00363994529536317
0.00373848371211832
0.00382779723912182
0.0039079149908829
0.00397893771105943
0.0040410643876724
0.0040945705699453
0.00413977106761449
0.00417700599343546
0.00420662501113111
0.00422900144194258
0.00424451527840904
0.00425355968400583
0.00425653605857857
0.00425384014249269
0.00424586053176292
0.00423296815063647
0.00421554664323329
0.00419397804229868
0.00416870002097818
0.00414010120913572
0.00410849443442184
0.00407416679804247
0.0040373943594434
0.00399841178664069
0.00396667405624215
0.00392570040925797
0.00388286686859198
0.0038391268794013
0.00379454257687227
0.00374920949868157
0.00370316372676927
0.00365652492873339
0.00360943972749373
0.00356201467985639
0.0035143568684471
0.00346652503602638
0.00341858181847772
0.00337059311312937
0.00332260831205723
0.0032746819631086
0.0032268477507116
0.00317913480293613
0.00313156602039129
0.00308415638114815
0.00303692818527882
0.00298990241596083
0.00294310019849214
0.00289654331360088
0.00285026434262338
0.00280429065218563
0.00275870865350998
0.00271350745908413
0.00266846118044448
0.00262899679142171
0.00258525627765412
0.00254345971233727
0.00250428479745094
0.00246566190280744
0.00243277128612357
0.00239914032167219
0.00240671369933252
0.00218655853505593
0.00204535418870582
0.00202418009010238
0.00209617661108969
0.00223858112271649
0.00247213831384956
0.0028561951287134
0.00338140277225325
0.00402311254325219
0.00476449667348988
0.00552465383512841
0.00629651377203375
0.00705437775068503
0.00769469969034999
0.0080520092575328
0.0080099982687483
0.00775517331871949
0.00881835205315533
0.0122173478777639
0.0154511193288395
0.0167337770886808
0.0113984307769942
0.0122143503168017
0.00379876700440124
0.000618161303848714
0.00256402759262769
0.00332676082158864
0.00159446273331096
0.000911329948788026
0.000567643410209977
0.000412825904598957
0.0003633035904925
0.000370343324438809
0.000397197004483296
0.000419271776369523
0.000433671135379267
0.000444910489901559
0.000464717455768325
0.000505119480935428
0.000575696544950559
0.000682737606750249
0.000835841862142723
0.00103048767946374
0.00115096070979624
0.00129353180665071
0.00145028752417093
0.00161856645109608
0.00178890013364043
0.00195997735846054
0.00212757593373662
0.00229086939462577
0.00244775792446429
0.00259233652062636
0.00273487562970267
0.00287046427176185
0.00299674425512239
0.0031141797987247
0.00322292195161618
0.00332299084254569
0.00341437119551947
0.00349710115435843
0.00357122926758658
0.00363686709329126
0.00369421628058029
0.00374355439312672
0.00378519585661988
0.00381947918824932
0.00384674725935899
0.00386736459200959
0.00388169692841933
0.0038901196830938
0.00389301368639395
0.00389075108902775
0.00388369368135541
0.00387218136838537
0.00385656363562227
0.00383718226942843
0.00381444927906155
0.0037887438425294
0.00376035925504429
0.00372955178243799
0.00369655918238636
0.00366662511783209
0.00363577130486511
0.00359859530331524
0.0035603886474659
0.00352136134089408
0.00348159015336577
0.00344116529564198
0.00340011233050891
0.0033585334437518
0.00331657084662161
0.00327432922234276
0.00323191214812522
0.00318937102034557
0.00314676011562105
0.00310414364727377
0.00306157218248633
0.00301910274342699
0.00297677011664016
0.00293460509149267
0.00289263534763253
0.0028508842196294
0.00280938368359677
0.00276816821255272
0.00272726981416161
0.00268673094389486
0.00264660018802627
0.00260694104412009
0.00256786103450363
0.00252941588755046
0.00249150461532834
0.00245983393235222
0.00242304656697053
0.00238957165625557
0.00235932741922553
0.00232991187752539
0.00230896410002398
0.00228464211325118
0.00231792855406719
0.0021112018905322
0.00195563197566896
0.00189457297272068
0.00190431049026769
0.00196907148784804
0.00211812601689618
0.0024171782369483
0.00285596166632531
0.00340696128398023
0.00405152933451792
0.00469806594578048
0.00530887989539417
0.0058440823529241
0.00608988941745168
0.00587564268841931
0.00532910085612221
0.00490718852066362
0.0063344023978527
0.00982719182213299
0.0124483767106293
0.0145420022016073
0.0106670632703566
0.0110470205026636
0.00559860519980008
0.000620769102575537
0.00185072136149369
0.00382853082420262
0.00172955431141097
0.000996242918127263
0.000633019061741569
0.000459677830822174
0.000394675827862047
0.000389071598640544
0.000403698907146376
0.000416142081541836
0.0004245976704706
0.000433060200420037
0.000451374720498249
0.000488990158058145
0.000552335553454104
0.000643895157723779
0.000771930819009599
0.000932040126908909
0.00102320410287207