/*--------------------------------*- C++ -*----------------------------------*\
  =========                 |
  \\      /  F ield         | OpenFOAM: The Open Source CFD Toolbox
   \\    /   O peration     | Website:  https://openfoam.org
    \\  /    A nd           | Version:  7
     \\/     M anipulation  |
\*---------------------------------------------------------------------------*/
FoamFile
{
    version     2.0;
    format      ascii;
    class       volScalarField;
    location    "20000";
    object      nut;
}
// * * * * * * * * * * * * * * * * * * * * * * * * * * * * * * * * * * * * * //

dimensions      [0 2 -1 0 0 0 0];

internalField   nonuniform List<scalar> 
15600
(
8.9038854487916e-10
6.1613661943284e-10
2.46117003465356e-10
4.78378417545059e-11
2.84143989129593e-11
2.6203588689717e-11
1.32199328506998e-11
8.53398890897859e-12
7.34859382277398e-12
8.25079557018214e-12
1.15648497777162e-11
1.77669460876598e-11
2.86745679316854e-11
4.67951971626663e-11
7.5689858774689e-11
1.18825996402503e-10
1.77584068048031e-10
2.49298976672038e-10
3.24590792775443e-10
3.82809745388488e-10
4.25030720747573e-10
5.31435823867852e-10
8.01269042097669e-10
1.11148466306385e-09
1.44270847292524e-09
1.78209993664033e-09
2.1272639868129e-09
2.47315356915408e-09
2.81971852880191e-09
3.16488541766352e-09
3.50811461763168e-09
3.84786556562717e-09
4.18305911361537e-09
4.51239823074352e-09
4.83512096182253e-09
5.15153142521644e-09
5.46297253560134e-09
5.76536782084185e-09
6.05195924356604e-09
6.31947087051942e-09
6.5664185560504e-09
6.79180131476711e-09
6.99496703628376e-09
7.17554799758221e-09
7.33339380513923e-09
7.46856887616131e-09
7.58134735729388e-09
7.67221954933268e-09
7.74187699884933e-09
7.79119112457638e-09
7.82118690225436e-09
7.83303142801494e-09
7.82796512693799e-09
7.807337188391e-09
7.77241766219009e-09
7.72446138054596e-09
7.66440084858993e-09
7.59312868438226e-09
7.5118745982981e-09
7.42193096397285e-09
7.324726537038e-09
7.2214871820583e-09
7.11340954012318e-09
7.00128127528553e-09
6.88543734407242e-09
6.76638647121966e-09
6.64463909980966e-09
6.52101112564051e-09
6.39625658953888e-09
6.27031238025181e-09
6.14376402415558e-09
6.01640869060161e-09
5.88845085775329e-09
5.76017002153401e-09
5.6315941450704e-09
5.50270440037158e-09
5.37344241779761e-09
5.24371588454054e-09
5.11345699720114e-09
4.98252726607498e-09
4.85065367572876e-09
4.71759798480138e-09
4.5829102692946e-09
4.44631396331331e-09
4.30709352924183e-09
4.16493969724414e-09
4.01850055336227e-09
3.86769287958201e-09
3.70978841305896e-09
3.54692244469553e-09
3.383331337024e-09
3.21568620498686e-09
3.03368734201188e-09
2.84379445958862e-09
2.62537271742733e-09
2.40070668859525e-09
2.12178131240055e-09
1.85605543933199e-09
1.47750005794916e-09
1.683634659893e-09
2.29814136802361e-09
2.80680174720879e-09
3.11299999492795e-09
3.23704755975346e-09
3.21174244906437e-09
3.00381754982344e-09
2.71179193228687e-09
2.38738550158484e-09
2.03414772620195e-09
1.72938025935683e-09
1.49432597825761e-09
1.31600532550502e-09
1.2651728718369e-09
1.31098440564642e-09
1.53494217090899e-09
1.98363383616686e-09
2.17604561289593e-09
1.64564276787224e-09
1.0690654340103e-09
8.20709297494903e-10
1.69012928295213e-07
1.17232206206817e-07
4.72382572075115e-08
9.45356884805267e-09
5.49963656044341e-09
5.08713904778385e-09
2.60546206199021e-09
1.6704195400629e-09
1.423759733805e-09
1.58369189316e-09
2.20565675971272e-09
3.37668258174499e-09
5.44186829325829e-09
8.87998091838332e-09
1.43783195321973e-08
2.26218503801331e-08
3.38937649732968e-08
4.76555222120456e-08
6.21204371365091e-08
7.32987208587743e-08
8.14216601682241e-08
1.01164775287783e-07
1.52354701541508e-07
2.11169546734682e-07
2.7395615298072e-07
3.38252031380389e-07
4.03628638674547e-07
4.69115262716946e-07
5.34729513393126e-07
6.00086054416327e-07
6.65105687344856e-07
7.29510352954828e-07
7.9311286197757e-07
8.5567890141106e-07
9.17075327465701e-07
9.77367351627955e-07
1.03681589166672e-06
1.09437596232681e-06
1.1486878060694e-06
1.19945682001219e-06
1.24640546395667e-06
1.28934369556272e-06
1.32814445238414e-06
1.36273187383589e-06
1.39306954285522e-06
1.41916040704741e-06
1.441046328734e-06
1.45880957933618e-06
1.4725703721457e-06
1.48248317475663e-06
1.48873211439852e-06
1.49152877694181e-06
1.4910999787371e-06
1.4876935456447e-06
1.4815443335924e-06
1.47288445067646e-06
1.46188739374737e-06
1.44872108686004e-06
1.43361703121788e-06
1.41681992149942e-06
1.39860012521827e-06
1.37919104876785e-06
1.35882063846171e-06
1.33764052503883e-06
1.31571733093457e-06
1.29315100303012e-06
1.27004104199994e-06
1.24654546823247e-06
1.22281002578039e-06
1.19882510126233e-06
1.17470587768475e-06
1.1504160457736e-06
1.12599732981536e-06
1.10150535364951e-06
1.0769489273624e-06
1.05232358310111e-06
1.02762215939718e-06
1.00282915926824e-06
9.77933435792941e-07
9.52910271094692e-07
9.27709805220802e-07
9.02287544955879e-07
8.76560367310983e-07
8.5047529841872e-07
8.23900064066911e-07
7.96772984345801e-07
7.68844757691097e-07
7.4008966148968e-07
7.10007070342745e-07
6.78896075546919e-07
6.47498349604312e-07
6.15365105429236e-07
5.80446981250591e-07
5.44102467349357e-07
5.02186788193765e-07
4.5927753954771e-07
4.05711522148971e-07
3.55154376647549e-07
2.82166149011766e-07
3.23164271167835e-07
4.40902736920306e-07
5.38123952073442e-07
5.96404286476285e-07
6.1966534712246e-07
6.1388592464172e-07
5.73676452615914e-07
5.17679890957243e-07
4.55617560562366e-07
3.88504966806437e-07
3.30585933990259e-07
2.85816086116823e-07
2.52052884560364e-07
2.42057828902239e-07
2.50231262566155e-07
2.90968255075583e-07
3.70663160602794e-07
4.03055865737942e-07
2.97403294676367e-07
1.96179585236467e-07
1.54909773285161e-07
3.50435115878691e-06
2.46553359744905e-06
1.01624353689846e-06
2.13994961644838e-07
1.22281406250995e-07
1.13895896918765e-07
5.93488958275443e-08
3.78902333516176e-08
3.20003190699273e-08
3.52686303500216e-08
4.872711666281e-08
7.41992554942739e-08
1.19248466852562e-07
1.94453329172357e-07
3.15193561878497e-07
4.97269185257325e-07
7.47168542993589e-07
1.05126449086027e-06
1.36731298954339e-06
1.60887375527791e-06
1.77128721113359e-06
2.15104958086779e-06
3.21548027730851e-06
4.44078928361639e-06
5.74422543662067e-06
7.07479784274307e-06
8.42414516551782e-06
9.77225750719422e-06
1.11210840457485e-05
1.24634053219694e-05
1.3798949566505e-05
1.51228172042711e-05
1.64320771729294e-05
1.7722472862709e-05
1.89915851821627e-05
2.0240672069646e-05
2.14664301005308e-05
2.26299046132262e-05
2.3730992631093e-05
2.47635061724214e-05
2.57223118420094e-05
2.66038414003892e-05
2.74056171344167e-05
2.81260361161988e-05
2.87641686476482e-05
2.93197731168117e-05
2.97933052578156e-05
3.01859601655003e-05
3.04996391070814e-05
3.07368949756791e-05
3.09008614399113e-05
3.09952159647838e-05
3.1023973957031e-05
3.0991581407392e-05
3.0902310515913e-05
3.07604072108016e-05
3.05690696345174e-05
3.0331466863926e-05
3.00520195147166e-05
2.97354719834653e-05
2.93870954843483e-05
2.90115131371871e-05
2.86132807703364e-05
2.81955326090643e-05
2.77597643637848e-05
2.73081667172615e-05
2.68428797153236e-05
2.63672545810376e-05
2.58843736198467e-05
2.53942421488001e-05
2.4899393517662e-05
2.43997588378168e-05
2.38956854092159e-05
2.33884820915871e-05
2.28787488221965e-05
2.23665898488189e-05
2.1852030957586e-05
2.13349263018016e-05
2.08151971187604e-05
2.02924810296305e-05
1.97659184620707e-05
1.92346964255244e-05
1.86972775908968e-05
1.81526075583914e-05
1.75981798487735e-05
1.70326360050031e-05
1.64512076005151e-05
1.58529445776661e-05
1.52283064495625e-05
1.45790325137981e-05
1.39115304837835e-05
1.3229068291535e-05
1.24864906782992e-05
1.17151798378931e-05
1.08222186581855e-05
9.9113972452897e-06
8.76545516698587e-06
7.692036507062e-06
6.12062628433163e-06
7.09255669981871e-06
9.56699660451727e-06
1.15939652099787e-05
1.27937145605446e-05
1.32503289503954e-05
1.30866215014763e-05
1.22255354800016e-05
1.10372914381244e-05
9.72427351743876e-06
8.31598538727382e-06
7.08767706832198e-06
6.12754393660411e-06
5.39760385370779e-06
5.14001504909313e-06
5.24346689736796e-06
5.95399007475031e-06
7.33454413610142e-06
7.88248843540498e-06
5.48044886309842e-06
3.62181824108929e-06
3.0777794972322e-06
2.2315729383956e-05
1.66862800193731e-05
7.44970906949983e-06
1.77662046223538e-06
9.99506139159046e-07
9.41572303841841e-07
5.00129224887092e-07
3.18432405886106e-07
2.66417568463797e-07
2.90530966441074e-07
3.96936318261317e-07
5.99081283100706e-07
9.56888886763224e-07
1.5544030460138e-06
2.51457917204307e-06
3.96430492471776e-06
5.9438169332035e-06
8.32743612361989e-06
1.06920993529595e-05
1.24007599348436e-05
1.32361096643662e-05
1.55300925649924e-05
2.28518132380206e-05
3.11698457734034e-05
3.98842347872111e-05
4.86177672640869e-05
5.73359390432321e-05
6.59038059265519e-05
7.4359604209363e-05
8.26634773261087e-05
9.08311229342683e-05
9.88404083915673e-05
0.000106684579366037
0.000114344835871771
0.000121810177682586
0.000129073933048295
0.000135939735556198
0.000142448310981655
0.000148578853940995
0.000154307796498646
0.000159616915713191
0.00016449533327897
0.000168936771482991
0.000172938440514332
0.000176500017140978
0.000179623772544743
0.00018231465495547
0.00018458055032493
0.0001864321592292
0.00018788280075766
0.000188948152425294
0.000189646132902157
0.000189996031172584
0.000190019016709303
0.000189735370893699
0.000189165187993361
0.000188323386788536
0.000187224782031113
0.000185890364367515
0.000184342893128093
0.000182607914622856
0.000180708049392727
0.000178665931682744
0.000176497567939149
0.000174210836944857
0.000171817445673857
0.0001693286538929
0.000166762342289561
0.000164134585239777
0.00016145473946105
0.000158721982582433
0.000155941493953799
0.000153118063037714
0.000150259389152816
0.000147369783792749
0.000144450878829444
0.000141503796196736
0.000138528733227625
0.000135526143763784
0.000132494907896017
0.000129431184721823
0.00012633107208562
0.000123186807284217
0.000119992676844796
0.000116735303715108
0.000113406467053079
0.000109979859470061
0.000106447816580452
0.000102756828792739
9.89086818724175e-05
9.48178681122072e-05
9.06166675092154e-05
8.6014600145478e-05
8.12125376959687e-05
7.55902246886696e-05
6.98198732135679e-05
6.24168244481295e-05
5.54376510207303e-05
4.48933023174327e-05
5.2185027032716e-05
6.80494849268644e-05
8.07774266028063e-05
8.82189959716938e-05
9.10113183495161e-05
8.99524233631616e-05
8.46250850231499e-05
7.70990874236505e-05
6.86179721951125e-05
5.93496399221292e-05
5.10079974159465e-05
4.43278242202281e-05
3.9081365705682e-05
3.68999452712147e-05
3.70156543260191e-05
4.07631105608615e-05
4.82784647341415e-05
5.18584745624262e-05
3.35137276278154e-05
2.0561168221977e-05
1.82093437829254e-05
6.55357660758531e-05
5.43393317364367e-05
2.77616458395206e-05
8.5332725810957e-06
4.79819454075835e-06
4.58309142556303e-06
2.48368183359867e-06
1.57890564136602e-06
1.30736399223747e-06
1.4065471530085e-06
1.89137586993275e-06
2.81388797131841e-06
4.44171044177913e-06
7.14350654231776e-06
1.14462953460562e-05
1.78415204701259e-05
2.62951248962342e-05
3.59911646114952e-05
4.48557709082904e-05
5.00910587322964e-05
5.14351360980191e-05
5.89006106534403e-05
8.52358350001095e-05
0.000113668544203761
0.000142687850795334
0.000170671477621223
0.000197861014937754
0.000223819537627387
0.000248865277361841
0.000272918987075204
0.000296130898164133
0.000318482815801684
0.000340015802047079
0.0003607169847052
0.000380586625572527
0.000399279385212689
0.000416885990471968
0.000433419053547685
0.000448853812410429
0.000463162345948899
0.000476328480006053
0.000488351321030635
0.000499238149499657
0.000509001866987561
0.000517658601583026
0.000525228198268832
0.000531734520789974
0.000537206207331449
0.000541676466193688
0.000545182772901707
0.000547766445482076
0.00054947248037794
0.000550347832197603
0.000550442699800102
0.00054980459550668
0.000548479947589615
0.000546502626082685
0.000543905739142955
0.000540736032133812
0.000537044092061955
0.000532886801679357
0.000528314423946914
0.000523377609784436
0.00051811249142112
0.000512536436678655
0.000506676242748626
0.000500557394756732
0.000494237795801078
0.000487730766145365
0.000481052103214155
0.000474209011773307
0.000467214873269241
0.000460081757650428
0.000452827807542662
0.000445463721059685
0.000437993793023622
0.000430421091204501
0.000422746569365467
0.000414971740636992
0.000407094340076556
0.000399105351569454
0.00039099531847656
0.000382745247587763
0.000374340683836001
0.000365747962407443
0.000356945470899438
0.000347865302951015
0.000338485829223441
0.000328665981823181
0.000318410492436102
0.00030733077376193
0.00029582560236571
0.000283121498478085
0.000269794579196516
0.000253983806312243
0.000237653179253938
0.000216143288679053
0.000195818670025201
0.000163314468388186
0.000186214611317895
0.000232371607668294
0.000269420237753955
0.000291646920604793
0.000300936415309682
0.000299588702153929
0.00028606107976986
0.000265405773598558
0.000241022169295259
0.000213018823729707
0.000186513671638901
0.000164634788163567
0.000146577867651099
0.000138634548453057
0.000138235173988222
0.000149501307006096
0.000172632934414497
0.000188586403534234
0.000120990730663475
6.45879077553555e-05
5.30104983366154e-05
0.000121323933649271
0.000113061758844436
6.48448862454593e-05
2.73414315804078e-05
1.66090065989522e-05
1.61434661718501e-05
8.92904503447757e-06
5.67523169116429e-06
4.64195853238901e-06
4.90365759163772e-06
6.44775962402165e-06
9.38756116445348e-06
1.4532635556588e-05
2.29275785569993e-05
3.59398009255072e-05
5.4439075185e-05
7.72415669570349e-05
0.000101153681105952
0.000120376612282851
0.000128927495271448
0.000130094418864595
0.000149255451976838
0.000213460308608113
0.000276725308609908
0.000339808111477775
0.00039780282072421
0.000452814863693248
0.000503856116000903
0.000552167394404769
0.000597669212276941
0.000640900836443791
0.00068191980175633
0.000720928418363581
0.000757979959506481
0.000792838131779182
0.000825423452666361
0.000855931751122566
0.000884372233385492
0.000910746079533889
0.000935044119714708
0.000957274363958744
0.000977466108338629
0.000995658148506594
0.00101189494055352
0.00102622289798296
0.0010386916099059
0.00104935462182526
0.00105827097957493
0.00106550505028378
0.0010711262668193
0.00107520867446484
0.00107783072492324
0.00107907286622476
0.00107901958572621
0.00107775038403546
0.00107534204981269
0.00107185001928811
0.00106732782947648
0.00106185059656133
0.00105549949670983
0.00104836575397889
0.00104052969107739
0.00103207253945411
0.001023052604814
0.00101349713089455
0.00100344981955571
0.000992986991085701
0.000982142011613952
0.000970946093803116
0.000959429393756141
0.000947606439510594
0.000935498247443767
0.000923123890228195
0.000910511899838968
0.000897679099210466
0.000884631431307825
0.000871372728872833
0.000857903463745317
0.000844224972617522
0.000830332282461326
0.000816208767256511
0.000801836681830689
0.000787182076010188
0.000772218171411011
0.000756885121601039
0.000741142987541715
0.00072487055808076
0.000708026834537728
0.000690358112707098
0.000671869662699777
0.000651846124323309
0.000630820654644379
0.000607484225158715
0.000582916091654897
0.000553511786175019
0.000523070750518687
0.000482108496198066
0.000443857143014079
0.000378627703805608
0.000419177122700219
0.00050581027360997
0.000578427587116847
0.000624701449055841
0.000647250103579228
0.000650283168436892
0.000630316044785083
0.000595404497963435
0.000551678569871871
0.000498566022669458
0.000445582954752936
0.000400847395815633
0.000362177524203973
0.000345567122232697
0.000345714608016138
0.000371253132051514
0.000421769227398932
0.000464572253479423
0.000323438301890131
0.000156560653364872
0.000110418981218941
0.000203347673992618
0.000185333650313299
0.00011345158194809
6.26859025929193e-05
4.521324392745e-05
4.53950613029484e-05
2.5682591069568e-05
1.63633920437832e-05
1.31914170097947e-05
1.3599486033864e-05
1.73564211313366e-05
2.45446393811953e-05
3.69789235239169e-05
5.66911851016261e-05
8.58959652295934e-05
0.00012471294350661
0.000168489945692763
0.000210074801060539
0.000239512468190348
0.000250184385623721
0.000254143897909231
0.000296421166455649
0.000417359462270417
0.00052421809833471
0.00062984555834624
0.000722747578065459
0.000809819191343352
0.000888957200003162
0.000963081812672002
0.00103204803735047
0.00109699867633977
0.00115809043758528
0.00121576126553514
0.00127004547777541
0.00132063883279322
0.00136786709997812
0.00141190083709531
0.00145277530036417
0.0014905287947934
0.0015251801419953
0.00155677038328599
0.0015853664938182
0.00161104536981323
0.00163388876199793
0.00165397836448333
0.00167139787111503
0.00168623434770548
0.00169858068819267
0.0017085354781482
0.0017162028769068
0.00172169219966355
0.00172511758095535
0.00172659506728387
0.00172624515830565
0.00172418112075966
0.00172051140564136
0.00171531411254968
0.00170866404907083
0.00170066539780275
0.00169143078149449
0.00168108661803142
0.00166974391161925
0.00165751528447214
0.00164448242470904
0.00163068305659822
0.00161621731164943
0.00160114400652221
0.00158548802222466
0.00156930960108662
0.00155265265387381
0.00153553801823932
0.00151799331801958
0.00150004400204793
0.00148172807872827
0.00146306775451879
0.00144406947065705
0.00142473644484406
0.00140506734573729
0.00138506189238586
0.00136471081125522
0.00134398794116634
0.0013228647873333
0.00130129002029506
0.00127922138852111
0.00125656983905564
0.00123327265948843
0.00120915066313091
0.00118413686868605
0.00115785738554668
0.00113030709096252
0.0011005221066278
0.00106894874201173
0.00103382791696016
0.000996742356255317
0.000952148591279376
0.000905930610140487
0.000842750145051764
0.000784776502099397
0.000679801383508731
0.000731774698452466
0.00086083146354522
0.000976434578485033
0.00105523740435178
0.00109868133735243
0.00111270875725491
0.00109168060644171
0.00104606024031993
0.000984839288708955
0.000906469894151452
0.000824420089182635
0.000754167845250521
0.000691141736796067
0.000665330883938069
0.000668475652480197
0.000714094681372196
0.000799529364582523
0.000875967350878507
0.000675248430238153
0.000330592129867058
0.000201500687925333
0.000330437234065473
0.00028410465332205
0.0001694675598925
0.000111169352031853
9.77346791491542e-05
0.000106397688595719
6.2125823543175e-05
3.9869471080257e-05
3.16408369791474e-05
3.16521384885836e-05
3.89724956456948e-05
5.3260564977327e-05
7.7722832652427e-05
0.000115134023956114
0.00016761600846048
0.000232404275814492
0.000299558566331548
0.000358352893913707
0.000396636906686961
0.000411037766718775
0.000425203067972502
0.000503676446384789
0.000692798338984072
0.000844801570479569
0.000996214839134647
0.00112490339382769
0.00124533775304862
0.00135337616310353
0.00145414261515267
0.0015472496179989
0.00163454225345931
0.00171625173989643
0.00179309207145472
0.00186484679069916
0.00193163273754165
0.00199387156051466
0.00205174629898056
0.00210533137521594
0.00215470441282483
0.00219991576152504
0.0022410428276849
0.00227819300782716
0.002311483947414
0.00234103712754894
0.00236697178273412
0.00238940773999453
0.00240846740428746
0.00242427917470534
0.00243697731965419
0.00244670206217951
0.0024535992197047
0.00245781963389062
0.00245951592999277
0.00245884527016106
0.002455955528684
0.00245098732423046
0.00244404226238861
0.00243521701831161
0.0024246450643688
0.0024124708090085
0.00239885616097974
0.00238394292077908
0.00236787555064393
0.00235076038444982
0.00233267450859749
0.00231374443615999
0.00229398344468452
0.00227343933931411
0.00225219790925093
0.00223031628731795
0.00220782104754417
0.00218474567132163
0.0021611216437965
0.00213699564425694
0.00211239472612078
0.00208732510684721
0.00206178842185282
0.00203578067977025
0.00200929896695153
0.00198232859620324
0.0019548327273583
0.00192677034003361
0.00189807149552505
0.00186867609195728
0.0018384648831029
0.0018073486516465
0.00177509006067511
0.00174158901654487
0.00170635478261404
0.00166935634883471
0.0016294300438715
0.00158685772952539
0.0015394590953353
0.00148926990923404
0.00142883428691418
0.00136613406828039
0.00127952928550003
0.00120144373258802
0.001053222160693
0.00110737645989652
0.00127537402677686
0.00143743335576192
0.00155523657356014
0.00162638031588617
0.0016577634286879
0.00164173404692109
0.0015904708981666
0.00151565374601811
0.0014149387099907
0.00130464716828543
0.00120926033633865
0.00112108039738326
0.00108639077578016
0.00109401418989608
0.00116190786524922
0.00128378501427805
0.00139272933685599
0.00115868704606146
0.00061932573610135
0.000346053265490693
0.000492852567501027
0.000438543454017396
0.000233560685047041
0.000165546106591018
0.000171384845811112
0.000211042539945838
0.000129712406866891
8.43767584541614e-05
6.60260524858549e-05
6.39060511204961e-05
7.57346463778666e-05
9.9932427239167e-05
0.000141132853140906
0.000201748557205125
0.000282150095845163
0.000374810569582095
0.000464509555145466
0.000538874267502526
0.000586192626747718
0.000608986806847978
0.000642539475994432
0.000767951622960587
0.00102791818102102
0.00122354433622402
0.00142135397333547
0.00158547899350073
0.00173963232533919
0.00187681773075332
0.00200461129029532
0.00212223106008047
0.00223224445643915
0.00233493226304488
0.00243125057590171
0.00252073280823088
0.00260404094249391
0.00268156555663734
0.00275352592516883
0.00282004218124103
0.00288123231472949
0.00293718127839943
0.00298800525059314
0.00303385403288964
0.00307488801474438
0.00311127027340492
0.00314315934761387
0.00317071275498086
0.00319408958035509
0.00321345489539959
0.0032289795978193
0.0032408407746163
0.00324922140977218
0.00325430949481541
0.00325629458980464
0.00325537055048733
0.00325172009073513
0.00324551600924971
0.00323688405451009
0.00322594312250962
0.00321285584184872
0.00319779827490258
0.00318096767151407
0.00316253624231222
0.00314268043193444
0.00312154164347956
0.00309926835646549
0.00307591840162478
0.00305151561717646
0.00302612938537314
0.00299986813324931
0.00297280165845235
0.00294496196897049
0.00291638784559463
0.00288711662699754
0.00285720294946979
0.00282667828192593
0.00279554818215233
0.00276381205697897
0.00273146274682273
0.00269849403011832
0.0026648850567596
0.00263058771085389
0.00259554724207132
0.00255967466807902
0.00252289035077285
0.00248504509093873
0.00244602018462781
0.00240552250559399
0.00236341203062749
0.00231909027521096
0.00227248384956365
0.00222222973863845
0.0021685194485727
0.00210868538600923
0.00204515811741886
0.00196873428894535
0.00188933039019071
0.00177904621455192
0.00168098689961581
0.00148891402550475
0.00153616204740151
0.00173677809658601
0.00194542219150354
0.00210631581015839
0.00221049160681174
0.0022645942790509
0.00225914503739264
0.00220739486865715
0.00212331585441733
0.00200417215386425
0.00186794148675324
0.00174894175887896
0.00163602402762608
0.00159245253010834
0.00160400083623629
0.00169304624210271
0.00184892596605026
0.00198732848953753
0.0017373888695477
0.00103130337962866
0.000566663015075076
0.000707024047280321
0.000656131786981913
0.000310422041027304
0.000222541788162017
0.00025471777017867
0.000357198320736932
0.000237981204503945
0.000157860857667882
0.000122389743547786
0.000114781307466254
0.000131153257405495
0.000167485564266409
0.000229248022562663
0.00031664453837694
0.00042668809032085
0.00054638359139708
0.000656672985302546
0.000745669032694274
0.000804138593013904
0.000841468927795942
0.000903066043212266
0.0010823442875262
0.00141018792359522
0.00164790339212554
0.00189155398358226
0.00209068355722875
0.00227859485123737
0.00244506283098585
0.00260011190259822
0.00274250806103934
0.00287550834241882
0.00299944067573297
0.00311535767964636
0.00322286302369582
0.00332291630317551
0.0034159138551164
0.00350212643776339
0.00358172442718354
0.00365486805925629
0.00372168049971575
0.00378231919581757
0.00383697840415458
0.003885863217542
0.00392918009025355
0.00396712849495184
0.00399990501149938
0.00402770648538422
0.0040507355148688
0.00406920018899224
0.00408331482284777
0.00409329974138593
0.00409938000540914
0.00410178188468978
0.00410073538606294
0.00409645770384839
0.00408915335105064
0.0040789725478829
0.00406605642912525
0.00405059626779722
0.00403279912322252
0.00401289697295862
0.00399109148444126
0.00396759078736118
0.0039426219845216
0.00391631610985405
0.00388868912653967
0.00385978864796554
0.00382970442252747
0.0037985649616965
0.00376645203653821
0.00373340288525033
0.00369946112414595
0.0036646698030488
0.00362909082208261
0.00359275963775673
0.00355568086548068
0.00351785125232375
0.00347926019411329
0.00343989771900482
0.00339973631326523
0.00335871635144732
0.00331676860350549
0.00327378514309723
0.0032296657120298
0.00318423214440062
0.00313733403457932
0.00308862622559995
0.00303792284019682
0.00298452954299894
0.00292831514376375
0.00286773331508237
0.00280291432717769
0.0027307055139045
0.00265383918475592
0.0025616104935183
0.00246557281734863
0.00233201187128982
0.00221424999778791
0.00197984522430548
0.00201249397148495
0.00223821905522519
0.00249105800948122
0.00269685166396633
0.00283776406672101
0.00291876481739266
0.00292864003429453
0.00288114462233432
0.00279201357235881
0.00265855719932024
0.00249932902153505
0.00235858167542093
0.00222167018289144
0.00216848218979218
0.00218130804931844
0.00228809110604422
0.00247346841955778
0.00263947637680521
0.00238403054259261
0.00154933276706524
0.000882257235275953
0.000973513048093258
0.00097403733412958
0.000407409185998867
0.000281731699178153
0.000335499347554281
0.00052292602400954
0.000390222489065417
0.000265383395649336
0.000205197693510796
0.000187411647689418
0.000207339499700112
0.000257169889558734
0.000341922575871394
0.000457541695019731
0.000596734053117112
0.000741430118133787
0.000870611059897213
0.000974490219982472
0.00104748575576878
0.00110563713253897
0.0012023893121832
0.00143897635599824
0.00182935201818593
0.00210844966091098
0.00239675449204663
0.00263061498798732
0.00285211769622413
0.0030479381150164
0.00323032962553442
0.00339764916728277
0.00355377220634357
0.00369910571650178
0.00383464837607537
0.00396031876786258
0.00407720916796662
0.0041857498977235
0.00428627320314267
0.00437900387406001
0.00446414730759908
0.0045418689820895
0.00461237032117327
0.0046758922261503
0.00473268644521282
0.00478300451543741
0.00482708832592259
0.00486517469128676
0.0048974990195106
0.00492430196498865
0.00494582897218956
0.00496233150125817
0.00497406689755373
0.00498129668381666
0.00498428303714693
0.00498329101048143
0.0049785713340122
0.00497035928925585
0.00495882951374507
0.00494414500815336
0.00492652480096777
0.00490620574911333
0.00488345349656046
0.00485849761826564
0.00483160139147358
0.00480307237509534
0.00477295928100244
0.00474128550863032
0.00470811941116211
0.00467356975937278
0.00463778277875816
0.00460085133559815
0.00456281768688915
0.00452372985927557
0.00448363644884593
0.0044426059092693
0.00440067720987629
0.00435785381440397
0.00431412953039401
0.00426949019577335
0.00422392181560468
0.00417738989549571
0.00412982332078803
0.00408113801442701
0.00403120759006953
0.00397991063476768
0.00392704147804814
0.00387241659019533
0.00381564328168377
0.00375648518887174
0.00369416512164939
0.00362848079707582
0.00355772785203874
0.00348198092535139
0.00339763131522547
0.00330761669557766
0.00320001906743948
0.00308763507919584
0.00293170027063278
0.00279452173116424
0.00252075095918637
0.00253287122951267
0.00277597189376133
0.00306884859715442
0.00331934540428943
0.003499090852015
0.00360994354992858
0.00363892191460584
0.00359979377517377
0.00350947335754382
0.00336569485390311
0.00318667166172011
0.00302607338245682
0.0028658061858557
0.00280136147114086
0.00281092902119146
0.00293064044949962
0.00314029257545943
0.00333438315155513
0.00308205871706242
0.00214689346678388
0.0013036199509059
0.00129230160107748
0.00141143538438447
0.000533022171248507
0.000340508120131423
0.000379425191635138
0.000676618611057209
0.000580953660324027
0.000407810713441667
0.000316492333042293
0.000283398547271365
0.000305038052771793
0.000368785984651456
0.000477469981708228
0.000621058928101497
0.000787712713264026
0.000955256833444975
0.00110238781740386
0.00122240623118961
0.00131383822916493
0.00139852303549201
0.00153579046126329
0.00183053091825113
0.00227765414251183
0.00259807393708728
0.00292943976797287
0.00319786762620821
0.00345259050470644
0.00367772825379687
0.00388738122996219
0.00407962002139887
0.00425884029397456
0.00442559696978588
0.00458064197906475
0.00472445030715307
0.00485811974639321
0.00498213609549678
0.00509690024554011
0.00520269576469976
0.00529977697550722
0.00538835606966613
0.0054686813152103
0.00554104253095479
0.00560574000225977
0.00566307192156067
0.00571332387007792
0.0057567738249396
0.00579369623941998
0.00582437000683732
0.00584907767537915
0.00586810731177116
0.00588175246910482
0.00589031000592846
0.00589407664559588
0.00589335084344079
0.00588841535939716
0.0058795348257516
0.00586690782273064
0.00585071842510804
0.00583121217622116
0.00580865399994656
0.00578334174250108
0.00575553047165203
0.00572560513280451
0.00569382170205713
0.00566020684412924
0.00562479721853472
0.00558767938318872
0.00554897961488018
0.00550885955679369
0.0054674220893697
0.00542471420645633
0.00538078792644593
0.00533569717142234
0.00528951620419366
0.00524228696312551
0.00519401157691822
0.00514468074577496
0.00509427675795087
0.00504278145435739
0.00499015318957196
0.00493630956806562
0.00488115163287405
0.00482453531571482
0.00476631802541493
0.0047062683650419
0.00464416906387661
0.00457958473922337
0.00451222544783947
0.00444124422532489
0.00436635722404641
0.00428573197836224
0.0041993855738622
0.00410328071652693
0.00400048378438649
0.00387816451257733
0.00374991203259058
0.00357290100962838
0.00341661698957624
0.00310735840051134
0.0030948028861891
0.00334787933561229
0.00367548126952203
0.00396880094076511
0.00418795977526129
0.00433039665150818
0.00438122855841757
0.00435382814895784
0.00426571119033822
0.00411531192461209
0.00391972499533878
0.00374101650094303
0.00355761929877151