/*--------------------------------*- C++ -*----------------------------------*\
  =========                 |
  \\      /  F ield         | OpenFOAM: The Open Source CFD Toolbox
   \\    /   O peration     | Website:  https://openfoam.org
    \\  /    A nd           | Version:  7
     \\/     M anipulation  |
\*---------------------------------------------------------------------------*/
FoamFile
{
    version     2.0;
    format      ascii;
    class       volScalarField;
    location    "20000";
    object      omega;
}
// * * * * * * * * * * * * * * * * * * * * * * * * * * * * * * * * * * * * * //

dimensions      [0 0 -1 0 0 0 0];

internalField   nonuniform List<scalar> 
15600
(
3736.44161992578
3730.75695259527
3830.02881834108
4196.41498455492
4449.0779184278
4349.60535343312
4004.94904381044
3532.49222013299
3058.50261908115
2681.99614949482
2385.31074986048
2147.74353538731
1949.83386205809
1759.47511014851
1573.05475410352
1396.21120998658
1235.85190050173
1107.04338250198
1013.53097806003
954.15615432758
929.671736095137
933.596974235368
934.102135782688
934.10213578267
934.102135782644
934.102135782648
934.102135782619
934.102135782648
934.102135782621
934.102135782648
934.102135782631
934.102135782659
934.102135782701
934.102135782631
934.102135782648
934.102135782661
934.102135782701
934.102135782615
934.102135782648
934.102135782687
934.102135782675
934.102135782605
934.102135782591
934.102135782621
934.102135782649
934.102135782631
934.102135782689
934.102135782697
934.102135782647
934.102135782657
934.102135782662
934.102135782615
934.102135782675
934.102135782647
934.102135782618
934.102135782621
934.102135782673
934.102135782699
934.102135782673
934.102135782673
934.102135782684
934.102135782689
934.102135782668
934.102135782676
934.10213578262
934.102135782593
934.102135782634
934.102135782608
934.102135782618
934.102135782646
934.1021357827
934.102135782676
934.102135782673
934.102135782644
934.10213578267
934.102135782674
934.102135782623
934.102135782591
934.102135782633
934.102135782662
934.102135782585
934.10213578268
934.10213578267
934.102135782671
934.102135782672
934.102135782663
934.102135782632
934.102135782645
934.10213578265
934.102135782623
934.102135782641
934.102135782631
934.102135782663
934.102135782623
934.102135782643
934.10213578272
934.1021357827
934.102135782656
933.596974235317
929.671736095216
954.156154328157
1013.53097806239
1107.04338249938
1235.85190049575
1396.21120998693
1573.05475410678
1759.47511014538
1949.83386203853
2147.74353537504
2385.31074986726
2681.99614947371
3058.5026190305
3532.49222013618
4004.94904383872
4349.6053534758
4449.0779184524
4196.41498452089
3830.02881831106
3730.7569525886
3736.44161992324
631.523819998732
633.908741860735
650.323378591374
708.354919469613
748.288009175603
732.435777781252
675.436190774635
596.505518810507
516.802221901072
453.270377887995
403.16229842626
363.096069242899
329.743486495621
297.713061549252
266.278640228533
236.366972927216
209.193969883617
187.308778981377
171.407023751719
161.36981642381
157.661456819081
159.236839611301
159.237276152191
159.225643102868
159.203062448219
159.189558376331
159.17379428051
159.161966919279
159.145992797611
159.125530967233
159.097164404712
159.060425731281
159.014444107108
158.959542762152
158.895896984322
158.824123924219
158.74506937265
158.660052795354
158.570001445788
158.476183510852
158.37990711397
158.282326789412
158.184500175399
158.087390621097
157.99190109698
157.898863615695
157.809036423551
157.723086549619
157.641583055591
157.564995611376
157.493698998929
157.427955258066
157.367959133183
157.313768140375
157.265426551718
157.222847600496
157.186026725274
157.154985182668
157.129560605616
157.109555249504
157.09463374014
157.084496723528
157.07877706424
157.077196973962
157.079582064546
157.08572989227
157.095361790507
157.108171977954
157.123794263135
157.141967642242
157.162490765544
157.185110532617
157.209619822479
157.235713536693
157.263182180743
157.291839245598
157.321483580193
157.351940238124
157.383018028199
157.414546198167
157.446429629096
157.478476617715
157.510689942315
157.54280825578
157.575048924003
157.606956086092
157.63932837449
157.670988241251
157.704313860915
157.735792009107
157.772095339101
157.803176151034
157.848786298308
157.878715226937
157.94887326121
157.969214539527
158.098050673471
158.077264501776
158.464653009604
157.26106606681
161.016714289782
170.795824084803
186.394567723676
207.934139524983
234.763813759311
264.59276273967
296.220210639147
328.738332409214
362.826159343776
403.43167512052
453.833732661877
517.586310586361
597.030997891832
676.604299703551
735.123073709585
754.431298602516
722.522133186809
676.62474661789
653.523719560798
639.727300436377
217.799587822234
218.709468892678
222.562011658907
236.415313620107
245.557425193064
240.160894026261
221.93404179067
196.289369275826
170.278044280266
149.531376203704
133.156234551513
120.105121824161
109.193393628818
98.6599614041152
88.2387208367142
78.2504759215674
69.1861934621964
61.8976135401978
56.6428885330811
53.5113560266203
53.0456607553848
54.6610106059387
54.6770951240511
54.5740473869051
54.4486791415752
54.3233442134772
54.1965166821191
54.0749864302373
53.9504619553479
53.8231242131627
53.6895908390366
53.5501719917732
53.4045880147363
53.2539186665399
53.0989708383091
52.9412444956444
52.7831296523197
52.6247536642065
52.4675288004461
52.3128039864295
52.1618292363393
52.0155687188085
51.8748216838484
51.7402534253503
51.612449711281
51.4919130573306
51.3790666823095
51.2742422456308
51.1776809530317
51.0895382581527
51.0098914238419
50.9387261125945
50.8759821347617
50.8214854594781
50.7750784322455
50.7365065961148
50.705655703764
50.6824417066774
50.6665784686066
50.6577497641777
50.6555045845571
50.6594467233368
50.6691230785908
50.6842109088642
50.7045183267791
50.7298049842321
50.7597346075034
50.7939269154581
50.83195177989
50.8734551889986
50.9182889398703
50.9661205558628
51.0166757386404
51.0695671036005
51.124524175945
51.1813117690175
51.2396691484267
51.2993584720189
51.3601159198563
51.4217064143315
51.4839790877408
51.5466812556842
51.6097638651301
51.6729042630104
51.7362847833116
51.7994064807171
51.8630934502571
51.9261328235389
51.9910663726197
52.0542758072231
52.1234700452285
52.1875990914375
52.2679194233657
52.333399901014
52.4430525922226
52.5047871763803
52.6810883768623
52.7078361989527
53.1405586299691
51.9850500910818
52.61603980734
55.475799555214
60.3115367679389
67.0966704544285
75.638429956371
85.4267903528653
96.0403141362451
107.212277712467
119.20956317257
133.227698664741
150.266327763123
171.529463278135
197.275748553335
223.387782212958
242.816090426434
250.199549355051
246.552270201122
251.370945505996
250.306664498569
233.168928225077
118.776030519877
115.425292276359
113.808007448828
112.445615193191
111.962006086751
108.918425999843
101.042157928813
89.5874845318589
77.9406536477812
68.6748337264204
61.3606167604721
55.559489378134
50.6430090089938
45.8167140283217
40.9609346170604
36.262644566809
32.0427057091789
28.708167159047
26.4188610724494
25.3628940634878
25.9744006297279
27.4209966581583
27.1444917162909
26.7787098368838
26.4275923898124
26.1235986667627
25.8548253120502
25.6229841822683
25.4128276464796
25.2217426609438
25.0430472090967
24.8752032361338
24.7159617109465
24.5648364668312
24.4212905440487
24.2861254294459
24.1576790194903
24.0357022532321
23.9202383663732
23.8113791252482
23.7091852465719
23.613567397962
23.5244032961982
23.4415554301706
23.36490739183
23.2943526788108
23.2297926116946
23.1711226277189
23.118230117353
23.0709938674827
23.0292841751091
22.9929501401542
22.9618456125159
22.9357784377795
22.9145980553509
22.8981148775151
22.8862726372533
22.8790456222618
22.876276223473
22.8778021597473
22.8833770983721
22.8927998481524
22.9058360921704
22.9223539922024
22.9423099775342
22.9656273689969
22.9921374433531
23.0216544532179
23.0540074996821
23.0890401804559
23.1266850909807
23.1667634494416
23.2091436183344
23.2536063425707
23.3000172215381
23.3482706696138
23.3982338300067
23.4497870767548
23.5027863016999
23.5571090090411
23.6127048282039
23.6694399900043
23.7273507778569
23.7862518065592
23.8463906857159
23.9074560409653
23.9702976966107
24.0340327202409
24.1011268568451
24.1686472532038
24.2443306413514
24.3188159300218
24.4119456207569
24.4962615585837
24.6278230591523
24.7234167011545
24.9369508503099
25.021100189017
25.4870041066729
24.4065449071695
24.126694546863
25.0836154774797
26.9956301044682
29.7768277528703
33.3277864010737
37.5725565143507
42.3347247669553
47.5293686942688
53.3701822549745
60.1483267298656
68.1633502511082
77.9722641800323
89.0776729169864
100.165679598996
107.902481961819
110.017482693433
108.842817502549
125.293432467207
142.240245885699
136.034015947295
84.9605820043216
80.1310172407372
76.7773921466279
67.1016040435719
61.1873756350867
58.7738685078387
54.9814495909578
48.973157121532
42.8440952972319
37.9990869268686
34.1737243291988
31.1500266935965
28.502874721697
25.8130507767034
23.0404793678782
20.3516149521577
18.0126777171073
16.2601241287667
15.2210019877985
15.0821518286905
16.0156993951719
16.9826411156194
16.2943732866227
15.7642527176241
15.3315709891136
15.0166433786723
14.7686178720446
14.5792785000508
14.4234860766271
14.2952474515755
14.1847167965451
14.0886394294778
14.0032551199384
13.9269743785695
13.8584567882121
13.7962229615863
13.7384691007298
13.6850315726549
13.6354743399396
13.5895587913441
13.5470707429472
13.50775924573
13.4714061434517
13.4378235669591
13.4068690987999
13.3784311867218
13.3524235863
13.3287731861267
13.3074163282638
13.2882960770166
13.2713594235795
13.2565482623674
13.2438123753254
13.2330780797389
13.2243004684091
13.2174150047235
13.2124473570171
13.2094390926542
13.2083518839002
13.2091489458517
13.2117433337445
13.2160730555942
13.2220571612953
13.2296786484252
13.2389638733831
13.2499234913601
13.2624834434149
13.2766906550288
13.2924497837897
13.3097078581496
13.3284489521104
13.3486082479979
13.3701506078381
13.3929842463242
13.4170718503451
13.4423974000279
13.4689244427456
13.4966249731165
13.5254556381251
13.5553889847958
13.5864524481008
13.6186181838555
13.6519827018625
13.6864930290338
13.7224167020852
13.7596323827317
13.7988932621945
13.8396978960536
13.8841009599126
13.9301657010869
13.9839313561599
14.0394900143962
14.1129019750331
14.1834176007131
14.2981010709429
14.3914668522624
14.59820680404
14.7068736561051
15.1995261110298
14.3712544477837
13.8634987347664
14.1536087274167
15.0137443490891
16.3393278845143
18.0472751608985
20.1485313523802
22.5631295733853
25.2609273408029
28.4199036160746
32.1203212455697
36.4065187942363
41.6050291060644
47.003845674099
52.1303224388142
55.2182690007336
55.3472806468495
53.7367234616955
66.5521804419609
90.3076480564884
97.4109306237458
65.9359001907831
63.1881560031782
61.6635893665604
48.03481966361
37.454126455259
34.9456741108184
33.226771147735
29.8400629162983
26.3579576225814
23.6320063078625
21.4679542697408
19.7432799485431
18.1304893836954
16.4066655478029
14.5963702199266
12.8768237221498
11.4742896975701
10.5244018089168
10.1163067970113
10.3667975750122
11.2230355309773
11.6968307681701
10.8426496528352
10.3938013192617
10.0507909044375
9.84073420473922
9.68602302348509
9.58181958726462
9.5020749789843
9.44283837128844
9.39528979290078
9.35713677676848
9.3252774121837
9.29858813556713
9.27566346693852
9.25500916157028
9.23598948963815
9.21851162969581
9.20228573886186
9.18719295548408
9.1731211793455
9.15994241285247
9.14755642666513
9.13588512171463
9.12488102247959
9.11451637677619
9.10477930505974
9.09566568911064
9.08717687819236
9.0793177560115
9.07209426192815
9.06550790163947
9.05956299496443
9.05424777390123
9.04956754327291
9.04551591884417
9.04214717333527
9.0395212730728
9.03764480052032
9.0365255523184
9.03613855517433
9.03647196089097
9.03750246555978
9.03924871432054
9.04174938356462
9.04503437004267
9.04911757563216
9.05407611632614
9.05983196588344
9.0663653249621
9.07368493746419
9.0817685422286
9.0906123025998
9.10017519816433
9.11045260553473
9.12145621781925
9.13318300405888
9.14563535548392
9.15880613362396
9.17270017598646
9.18736294887182
9.20280412284779
9.21912117194948
9.23631292973272
9.25460584995326
9.27396385783807
9.29497824279408
9.31736697207856
9.34269258169963
9.3697258510564
9.40265561495214
9.43794218773293
9.48778324222858
9.53733165143611
9.62309029302554
9.69632803640895
9.86722250428603
9.96350219324025
10.4250568304911
9.870371284966
9.38583352882101
9.43124247829402
9.86291797783656
10.5866812257845
11.5290729802832
12.7053533748956
14.0722311110686
15.6115991561832
17.4485601235101
19.619123117428
22.0839734949122
25.0673656644845
27.9525384449845
30.5548816120469
31.9364988197391
31.7708635178494
30.5852188479373
37.325366881631
57.4906502243519
71.7011951676794
50.8108616742231
51.2525126200384
53.7976308418556
39.9222155715309
25.2264479005693
21.9900706290708
21.4294799760506
19.4912971163734
17.4721711405185
15.9119449879852
14.6445575391193
13.5958058980672
12.5060306251115
11.2853315211493
10.0122265202337
8.86439318116997
8.01115844287515
7.5134171913917
7.42192953291122
7.78191789487432
8.43243791375513
8.58708485472193
7.81014602078063
7.52013571775904
7.28557184991923
7.16706451286794
7.08092066924464
7.03190719305179
6.99707402398275
6.97557599169094
6.9604667573162
6.95065698818297
6.94390596283197
6.93958578145184
6.93638625683886
6.9335641209238
6.93092051290408
6.92841643841955
6.92590529728891
6.92336192001913
6.92075205002221
6.91802912903219
6.91516451608454
6.91214266360937
6.90896695122287
6.90565201055291
6.90222132412076
6.89870185324548
6.89512274462457
6.8915140839858
6.88790491550642
6.88431981920816
6.88078330118415
6.87730797431145
6.87391723535323
6.8706276531194
6.86749914408686
6.86459206546484
6.86192780534079
6.8595279098228
6.85739068331067
6.85552144224518
6.85391814669974
6.85260869586242
6.8516292787572
6.8510333690088
6.85086799785989
6.85117786153522
6.85190781819066
6.85305344015436
6.85463222264581
6.85663869658174
6.85907899212076
6.86193332991567
6.86520794434143
6.8689222208394
6.87308465474111
6.87770721802597
6.88279554449716
6.88836476883289
6.89446088263766
6.90110618136712
6.90838640963228
6.91632045801727
6.92509208295071
6.9347041989365
6.94561644299693
6.9576706987787
6.97205249247401
6.98797108746416
7.00842227940917
7.03102601822854
7.06515985073764
7.10006252043487
7.16382852302482
7.21966990882948
7.35673697147949
7.43329076890976
7.83734193529499
7.48977767411512
7.0855194810572
7.03540574070082
7.26693175708907
7.70527506340169
8.28736626987342
9.02209460641925
9.88249048250861
10.8542694589995
12.0211790482329
13.4086417796674
14.9544926813654
16.8234575035449
18.5497293547315
20.0593312876716
20.832456390675
20.7457226386604
20.0664282451823
23.2922664059405
36.8672681685461
51.8532475791552
38.5977536343712
40.8220270169403
48.1794588952747
36.6257721205107
18.9909396760441
14.4815968160601
14.4560313771151
13.3611399009419
12.2112982321504
11.3436979236552
10.5941809554533
9.91938289452884
9.12350340943912
8.21468596954022
7.30042450812157
6.53320224799707
6.0211013108476
5.77988358323131
5.83476961797414
6.18424535782336
6.6429310726462
6.6383070930928
6.02032618185994
5.85436122752026
5.69570512524189
5.63322078546185
5.58604467017148
5.56630917192779
5.55418474658435
5.55087592452545
5.55087506525247
5.55383403572399
5.55810409110978
5.56327525223225
5.56831775561799
5.5729591648462
5.57712635473985
5.58080964999579
5.58394275534389
5.58654350166215
5.58861423725989
5.59014712295719
5.59114637748718
5.59162442521444
5.59160608419762
5.59112297009109
5.5902118799802
5.58891104538007
5.58725934815434
5.58529544668678
5.58305613373255
5.58057406898709
5.57788056434679
5.57499794004012
5.57195591935294
5.5687806493114
5.56553078887577
5.56226272810008
5.55900271098425
5.55577630373025
5.55259162197464
5.54946037719035
5.54638925365753
5.54340753173544
5.54055330744361
5.53789946159332
5.53548354812579
5.5333312235154
5.5314065138346
5.52971280751813
5.52827062868285
5.52708235606207
5.52615770354712
5.52548750638101
5.52508225029385
5.52496333754575
5.52514389216547
5.52563928118562
5.52646048013056
5.52762642001921
5.52918021247207
5.53114906635932
5.53360753159207
5.53658382030475
5.54022913962734
5.54456756628663
5.54996423903853
5.55633805510534
5.56460868135915
5.57426379616232
5.58757356333997
5.6027617476521
5.62721446759377
5.65296527520957
5.70196491030119
5.74574114278113
5.85713269985086
5.91769786960963
6.26279219137106
6.05524147415157
5.73137952782351
5.6440181267325
5.7703468089071
6.05468494678678
6.44397914110889
6.94190389236918
7.53018459109975
8.19722006364615
8.99979587309759
9.96004539619974
11.0141480872937
12.2881335004087
13.4370905787676
14.4341704240423
14.9642358289318
14.9674980262724
14.6048748015575
16.2453484372554
24.6283727189747
37.2091008560406
29.501420921738
31.5351991657096
43.0793647429507
35.2732497613469
16.1808704709234
10.1252571828655
10.1452664885725
9.5272181075795
8.89396135823075
8.44740867896952
8.00714963123066
7.55237334103048
6.9479171971726
6.2644862498621
5.61021821320348
5.10098888857119
4.79945010137531
4.70099941904592
4.815834242454
5.11744523874082
5.43445510292408
5.36390557276168
4.89682725901346
4.80769547971056
4.69738385267447
4.6668500859981
4.64138249325389
4.63698046865091
4.63641657144229
4.64194629681317
4.64908819526582
4.65787890865536
4.66705775755046
4.67628224602397
4.68485016265968
4.69268475280259
4.69975253627142
4.70605872384466
4.7115792408732
4.7163488268426
4.72038548047992
4.7236990423317
4.72630830529264
4.72823782547248
4.72952090400821
4.73019534217329
4.73030224251924
4.72988326841054
4.72898010929456
4.72763380409645
4.72588332390299
4.72376397452092
4.72130920593782
4.71854557076605
4.71550505999761
4.7122183019435
4.70874107417199
4.7051253993286
4.70139908033345
4.69758867950642
4.69370712432703
4.68976881441904
4.685784455638
4.6817835328601
4.67781414117246
4.67394714340674
4.67020777044951
4.6666139455165
4.66314329216621
4.65980371553154
4.6566166154938
4.65358855237638
4.65073064480207
4.64803987230623
4.64552868347959
4.64321869520366
4.64112506288968
4.63926438011469
4.63765016518672
4.6363028781345
4.63526239530037
4.63455791687546
4.63425493381005
4.63438646121467
4.63507965274068
4.63637125220657
4.63855832678383
4.64161071842107
4.64625858063405
4.65217437721926
4.66114949673274
4.67180873688586
4.69005799422006
4.70991648717306
4.74881904084822
4.78431596667727
4.87655623376433
4.92580526086264
5.21832633129666
5.10295941795828
4.84785318394513
4.7489724821235
4.81550033132879
5.00818134171215
5.28302905122218
5.64054055932995
6.06766849444071
6.55508582799504
7.14227119189489
7.84963969825687
8.61866707596571
9.54899446818348
10.3815238193657
11.1122230392945
11.528164964779
11.5901384221311
11.4002787403417
12.3285347410519
17.5005845309931
26.9753586506233
23.0764704365326
23.7502461478694
37.9596267691295
34.4515837259311
15.3218672916739
7.70134476699077
7.43439232722899
7.06385804241665
6.71954083041406
6.52274042881917
6.26997848967846
5.95420420449703
5.49026146429435
4.97844492100086
4.5119137420767
4.17463693713662
4.00202137152079
3.98204852973756
4.11562866298686
4.36519502890449
4.58545834053772
4.49463862526117
4.14702788422791
4.10204369476407
4.02332417696061
4.01114640128776
3.99840039360994
4.0023413098763
4.00798418373154
4.01799566873808
4.02866445280828
4.04020470504101
4.05161737196282
4.06260037658085
4.07270642320484
4.08192968239753
4.09025100095904
4.09768316581755
4.10422451954252
4.10991509612676
4.11477913600758
4.11883459198807
4.12210675213074
4.12462544224457
4.12642707655332
4.12755133885071
4.12804022256684
4.12793595723094
4.12728059657541
4.12611545118576
4.12447982793646
4.12240983641519
4.11993957042872
4.11709776458471
4.11391735524519
4.11043143962543
4.10669293201562
4.10275011296124
4.09863129372193
4.09436319157582
4.08996155207793
4.08544213304535
4.08081770822148
4.07612190639976
4.07140932486099
4.06673826764312
4.06212832614802
4.05759409429678
4.05312284419133
4.04872541976042
4.04442324696931
4.04022532171
4.03614333038312
4.03217821369588
4.02834347408707
4.02466031742812
4.0211447667034
4.01781373783201
4.01468202919296
4.0117706738559
4.00911656748892
4.00674953223073
4.00472780307588
4.00308685098514
4.0019356943808
4.0013188916973
4.00148308422503
4.00243291381004
4.00475958168603
4.00826287334372
4.01439109178721
4.02208280373823
4.03610015909882
4.05192370357681
4.08358352244338
4.11318157364469
4.19074608159112
4.23220596930522
4.47984382214822
4.4249375080979
4.22621076486637
4.12811653330035
4.15914269286842
4.29337706390242
4.49485994672902
4.7624423324805
5.08649190849062
5.45954952642391
5.90967091694749
6.45581168103924
7.04658037650094
7.76306280724225
8.40652091030158
8.9855389134293
9.33931780299995
9.43619667844326
9.33691478370284
9.91399488631137
13.2427557645819
19.9920248490687
18.5966130810301
17.6934781639631
32.8116001285706
33.3819699365802
15.5330158561528
6.47286768960517
5.72059786904334
5.45799624952106
5.26073508741628
5.20323638096595
5.06446256360575
4.84136037693918
4.48485701258657
4.10225152128661
3.76858194051258
3.54502887700246
3.45173580831253
3.47442153558928
3.60801975352688
3.81190189785398
3.96753446338725
3.87701145073561
3.61878035867535
3.59864109289515
3.54178077493482
3.54046320413964
3.53573768092984
3.54447454352102
3.55370227694527
3.56612461822904
3.57864369780055
3.5915383401851
3.6039929120942
3.61575634118153
3.62654684614148
3.63638187801991
3.64524881889077
3.6531643299412
3.6601388822635
3.66621286472005
3.6714126187393
3.67575985481523
3.67928280528263
3.68201362220801
3.68398968970759
3.68525097264447
3.68583920902096
3.68579630655142
3.68516399072027
3.68398330135658
3.68229344572879
3.68013085402774
3.67752993807123
3.67452089338382
3.67113728260548
3.66741388753812
3.66340126445203
3.65914476661116
3.65467297119028
3.6500126550644
3.64518155965724
3.64019633798729
3.63507201291543
3.62984937858911
3.6245806664821
3.61931337963519
3.61406496480602
3.60884868561603
3.60365888190479
3.5985085211646
3.59341873347627
3.58840002563876
3.58346431376798
3.5786153089485
3.57386717292303
3.56924049290808
3.56475157281877
3.56041722835267
3.55625289218225
3.5522797096516
3.54853194046572
3.54503929158194
3.54185408587124
3.53901286343166
3.53661059635372
3.53469657686446
3.53347902662676
3.5329866598827
3.5337060132273
3.53552693138246
3.53963906250761
3.5452374473165
3.55618446518819
3.56906305032718
3.59527158897509
3.62046700752977
3.68641746007241
3.72246196605433
3.93233443095167
3.91695060194714
3.7638119379245
3.67253300301973
3.68218498262933
3.77735139033066
3.92911660511613
4.13571643891024
4.38988851131099
4.68564529916437
5.04323974514884
5.48019441125033
5.95229111125355
6.52732840648772
7.0498824903103
7.5361877000796
7.85157729256007
7.96819567224006
7.91406436435608
8.2955706922158
10.5669470360338
15.2301456826371
15.3824660418193
13.3195296425233
27.8739524073055
31.9228124518402
16.3034745915324
6.0107946939484
4.6411187164922
4.39574344565899
4.26407994084052
4.27700545246698
4.20713402206747
4.04742334312143
3.77276857025136
3.48556282484257
3.24514107219101
3.09725724027572
3.05332252685265
3.09859413703604
3.22425031941671
3.39084520662131
3.50335949383107
3.42175217379071
3.22950941094729
3.22338724733755
3.18254447155674
3.18790379660177
3.18865284391282
3.20034207700667
3.21183765436091
3.2256727469644
3.23925869735666
3.25288068886401
3.26585559882254
3.27799320713803
3.28911162849497
3.29923349670311
3.30835028564198
3.31648062124177
3.32364163344406
3.32987212514347
3.33519876971509
3.33964506503222
3.34324067147516
3.34601886607685
3.34801725553037
3.34927562617124
3.34983524556974
3.34973760828953
3.34902411111686
3.34773558898569
3.34591125203658
3.34358789480764
3.34080035869492
3.3375801236897
3.33396143780733
3.32998051011268
3.32568615306168
3.32112156822808
3.31631566048899
3.31129542762381
3.30608028186019
3.30068762421549
3.29513729710491
3.28947402039646
3.2837444208475
3.27798875498263
3.27222380517562
3.26646252195795
3.26070462525123
3.25496476029188
3.2492636698586
3.24361284620899
3.23802430609105
3.2325038286947
3.22706605859464
3.2217309227582
3.216514689088
3.21143386498988
3.20650416128164
3.20174659646568
3.19719311632797
3.1928728845699
3.18883330861124
3.18511111877196
3.18179014003097
3.17892232312497
3.17668591766728
3.17512624646174
3.17464923340425
3.17520943053199
3.17779512467357
3.18181249221811
3.19040739154379
3.20100934989209
3.22294145418631
3.24470036341578
3.30120159818545
3.33336208371485
3.51159396874704
3.52175841685871
3.40525578562383
3.32360054140368
3.32057717933717
3.38880237962194
3.50551100970092
3.66899233384703
3.87369657200383
4.11475665083538
4.40692947685511
4.7663574322214
5.15545978453758
5.63245968671423
6.07378584520652
6.50033767745417
6.7891850043817
6.91567205692677
6.8808489072623
7.1404465588321
8.78247257247144
11.9529111837057
12.955313257432
10.3415228792624
23.398423514791
30.2439583271006
17.3246606590178
6.08549116720252
3.98190174525392
3.6818279170484
3.57015813674269
3.61234305721569
3.58364864879179
3.46780639168909
3.25487966981091
3.03749492641605
2.86280118773228
2.76593537888095
2.75302189814729
2.80948230262713
2.92433225839299
3.06135552429646
3.14499052290066
3.0753884293445
2.9320436008029
2.93399789310863
2.90546749560161
2.91513797865931
2.91992732613137
2.93359911967574
2.94669436578498
2.96146998692382
2.97576950446042
2.98985513922528
3.00314680512717
3.0155134035311
3.02683215507054
3.03712450220856
3.04638524000247
3.0546339814196
3.06189155753092
3.0681946049509
3.07356945431783
3.07804055119372
3.08163841528799
3.08439705075772
3.08635416100407
3.08754938773779
3.08802369961091
3.08781840916929
3.08697485694103
3.08553397270854
3.08353527443617
3.08101616937151
3.07801220065267
3.07455618969974
3.0706832717754
3.06643106545419
3.06184724175494
3.05697353582354
3.05183935833392
3.04647217010666
3.04089295632429
3.03512055746197
3.02918111568558
3.02311843787063
3.01697468774604
3.01078523876352
3.00456689289072
2.99833285641571
2.99208710615847
2.98584571209527
2.97962904287036
2.97344926437782
2.96731846013682
2.96124404067704
2.95524105842599
2.94932880798719
2.94352334412203
2.93784076457166
2.93229685440783
2.92691237855696
2.92171724744685
2.91673982397187
2.91202335337115
2.907604178303
2.90355709516937
2.89993526690422
2.89689310716971
2.8944871913071
2.89306023907646
2.89261358753805
2.89397547055859
2.89672548141241
2.90343289302875
2.91218616057279
2.93064695708852
2.94961267745402
2.99825630399431
3.02749583045579
3.17922401638019
3.20549615884587
3.11831138617132
3.04733194455109
3.03719161911342
3.08648068198745
3.17778043654407
3.30984629852091
3.47838908807028
3.67936755716449
3.92357374611046
4.22589536851512
4.5547323252513
4.96144441429455
5.34633969969243
5.73276505443855
6.00135064171669
6.1308416298665
6.09970855732701
6.27652432209204
7.52068224209643
9.66920974102113
11.023535574891
8.40474068830246
19.3926169051994
28.4434875532353
18.290283181286
6.57639166090831
3.62350698960352
3.1982562092146
3.07776324943571
3.12474062689994
3.1200144166787
3.0348683546858
2.86835255618884
2.70216835863351
2.57433048722911
2.5123643549169
2.51901474680099
2.58012594473763
2.68369161071809
2.79753967330395
2.86178798311258
2.80475660299892
2.69803899051424
2.7048771426084
2.68617254684261
2.6988151884238
2.70680788987792
2.72196012247372
2.73632392878748
2.75183692331283
2.76671273928527
2.78117684587297
2.79473775013021
2.80731179104353
2.81881260046901
2.82925873940755
2.83864806915545
2.84700072291224
2.85433963592553
2.86069931826498
2.86610560263123
2.87058359996027
2.87416457763054
2.87688325247115
2.87877758101188
2.87988730926843
2.88025343650818
2.87991745125952
2.87892101287794
2.87730552984754
2.8751112030927
2.87237637692377
2.86913762225002
2.86542926299056
2.86128757308081
2.85675167910802
2.85186866653093
2.8466794003811
2.84121401900291
2.83550070472551
2.82956208632134
2.82342018815646
2.81710536942282
2.81065906518502
2.80412042744359
2.79752149923684
2.79087945065121
2.78420808986802
2.77751488896845
2.77081719659668
2.76413506733665
2.75748115193887
2.7508676128158
2.74430321110544
2.73780338259931
2.7313868456148
2.72506934232514
2.71886651663458
2.71279411079719
2.70687257160584
2.70113000996026
2.69559383186523
2.69030370209321
2.68529518966014
2.68063565267711
2.67637843898872
2.67265870317433
2.66954034976347
2.66731582655621
2.66602021044435
2.66635276280676
2.66803375240046
2.67316719649307
2.68035663665945
2.69591982984293
2.71253307396117
2.7545316921406
2.78144040810797
2.91093124669846
2.94687766428574
2.88305416523677
2.82281350715134
2.80917978671592
2.84503786545783
2.91759494772773
3.02629869363771
3.16777955689171
3.33858403434929
3.54660077769493
3.80565642254635
4.08952018336835
4.4447131731602
4.78960066612492
5.14796724183563
5.38061906117497
5.50166962768917
5.48991142641181
5.60683887221705
6.57996207621333
8.0560329475745
9.42357389418459
7.2015856836656
15.6266899736975
26.5487982346761
19.0696871896791
7.3559365947313
3.50517310702943
2.87669408160766
2.72341668191219
2.75956368851156
2.76766050205417
2.70428703938105
2.5728153004949
2.444487318646
2.35050484054311
2.31270835486987
2.33160787177924
2.39361803639585
2.48650392866162
2.58228528634772
2.63355857179913
2.58855124463225
2.5096618006011
2.51972774266198
2.50909795884171
2.52397127491262
2.53466634769961
2.55105736962619
2.56654118158436
2.58273129589653
2.59815872374503
2.61300803219164
2.6268672194137
2.63968701787931
2.65140489681401
2.66203667525043
2.67158317763957
2.68006488339187
2.6875059995865
2.69393922669703
2.69938999710591
2.70388409008828
2.70745363644352
2.71013423944125
2.71196439416225
2.71298429224477
2.7132353538292
2.7127596469594
2.71159955834805
2.70979738361619
2.70739440033017
2.70443023954078
2.70094283914475
2.6969682347105
2.69254410435446
2.68771124105803