/*--------------------------------*- C++ -*----------------------------------*\
  =========                 |
  \\      /  F ield         | OpenFOAM: The Open Source CFD Toolbox
   \\    /   O peration     | Website:  https://openfoam.org
    \\  /    A nd           | Version:  7
     \\/     M anipulation  |
\*---------------------------------------------------------------------------*/
FoamFile
{
    version     2.0;
    format      ascii;
    class       volScalarField;
    location    "20000";
    object      p;
}
// * * * * * * * * * * * * * * * * * * * * * * * * * * * * * * * * * * * * * //

dimensions      [0 2 -2 0 0 0 0];

internalField   nonuniform List<scalar> 
15600
(
1.84087509226469e-08
0.0048427682519012
0.0251620173652022
0.0448936595331307
0.0571036896101269
0.0627514671728152
0.0673344775823034
0.0696957754055308
0.0712995749136569
0.072187809265902
0.0729570593929542
0.07348074379265
0.074133272373984
0.0748627741114993
0.0757497374261293
0.0767323500348062
0.0776148915213278
0.0783277294468597
0.0788003773895363
0.0790192734444497
0.078757400131245
0.0774275747885824
0.0774033779175276
0.0776414935551981
0.0786163002997485
0.0801077365909531
0.082146306576052
0.0846401848645166
0.0875612531539823
0.0908606028088539
0.0945085459704325
0.0984723300486452
0.102725008897015
0.107239008105933
0.111988780593981
0.116948768234928
0.122094146260572
0.127399971478236
0.132841547816295
0.138394283802518
0.144033931599209
0.149737125804596
0.155481550570044
0.161246134989592
0.167011098095782
0.172758038633401
0.178469985393115
0.184131470022071
0.189728571536556
0.19524893886211
0.200681778862929
0.20601786878032
0.21124942971738
0.216370192216289
0.221375101299399
0.226260446700909
0.231023449217367
0.235662201533209
0.240175902490436
0.244564613173254
0.248829385312133
0.252971881527628
0.256994432402033
0.26089972048171
0.264690663059952
0.268370448448843
0.271942621180678
0.27541097900213
0.278779627006295
0.282052766465611
0.285234610354968
0.28832953551739
0.291341904358603
0.294276261824621
0.297137114482958
0.299928996463053
0.302656480591465
0.305324156317801
0.307936664420945
0.310498737499352
0.313015043432119
0.315490602400347
0.317930147829055
0.320339266990528
0.322722678453447
0.325087217158132
0.327437058713143
0.329782107453836
0.332124051528734
0.334480639295026
0.336844709675859
0.339254853590216
0.341675520498984
0.344203639996485
0.346715534838858
0.349470217102569
0.352078816806587
0.355245259681836
0.357820064159257
0.361612725717872
0.364996278155065
0.368422320361768
0.371528195330267
0.374066544110944
0.375557210980928
0.375044145521338
0.372143460621919
0.366599456355974
0.358395974133754
0.348479404450444
0.336182075157884
0.319291131843888
0.296178297685976
0.256630934920435
0.19503328447536
0.101716531162024
-0.022265283071883
-0.141030249730577
-0.116185061529608
-0.049552176471691
7.36708512692254e-06
0.00485159789643161
0.0250430299533217
0.044637262869395
0.0568893932846643
0.0626092354553842
0.0672357188209045
0.069645364209511
0.0712769731472954
0.072182812992314
0.0729610092798701
0.0734890205687786
0.0741387680070132
0.0748639842680279
0.07574587438297
0.0767281765441643
0.0776155213934999
0.078334171169431
0.0788107420690327
0.0790320370718877
0.0787677380239011
0.0774365678873822
0.0774174912500374
0.0776569542082887
0.0786342841839478
0.0801277282859304
0.0821682256204544
0.084663664917508
0.0875860248218236
0.090886359196725
0.0945350169494945
0.0984992497538991
0.102752131185457
0.107266099062802
0.112015621496913
0.116975152134748
0.122119884661943
0.127424896254774
0.132865506202157
0.13841714081613
0.144055571586182
0.1497574526392
0.155500487110358
0.161263622411396
0.167027095036687
0.172772520231139
0.178482942142647
0.184142906473081
0.189738504855746
0.195257397316752
0.200688800233651
0.206023498758945
0.211253720324864
0.21637320023136
0.221376886967469
0.226261072664842
0.231022980404697
0.235660704291477
0.240173442899173
0.244561255983408
0.248825192799315
0.252966913175913
0.256988744467108
0.260893366780758
0.264683695444083
0.268362916228575
0.271934570210322
0.275402450123773
0.2787706561605
0.282043386594668
0.28522485246956
0.288319432148419
0.291331486111813
0.294265551593904
0.297126129783669
0.299917752576621
0.30264499141597
0.305312433052833
0.307924715333864
0.31048656836731
0.313002657452606
0.315478000180906
0.317917327211655
0.320326223182216
0.32270940325172
0.325073700649099
0.327423285463867
0.329768063378268
0.332109710256665
0.334465985199405
0.336829691559993
0.339239474466965
0.341659682164381
0.344187427582978
0.346698714578766
0.349453157120266
0.352060925043914
0.355227808596433
0.357802051812849
0.361604039026496
0.365007435638662
0.368450241175785
0.371560099306568
0.374082069680549
0.3755218617692
0.374927087124467
0.371932172236173
0.366294909460691
0.358021539638297
0.348037198634877
0.335619575141623
0.318540988571567
0.295052722421416
0.254953128492839
0.192763377936803
0.0991469715426908
-0.024051746916924
-0.140690890623839
-0.115705233230034
-0.0494879515964968
3.85744206862832e-05
0.00488440312367317
0.0249620102799051
0.0444023893960894
0.0566848771239503
0.0624681896250208
0.0671362896153431
0.0695934638335767
0.0712535572781178
0.0721773392585246
0.0729649635984986
0.0734974473868217
0.0741443825491496
0.0748646311625082
0.0757402749901501
0.0767206945363468
0.0776115553827948
0.0783354204585911
0.0788162026430696
0.0790419451799738
0.0787747420014329
0.0774424133586209
0.0774300091740207
0.0776706543172444
0.0786508891828294
0.0801465001120768
0.0821891408842607
0.0846861943084098
0.0876098396538482
0.0909110582426138
0.0945602775348349
0.0985247538015385
0.10277759891222
0.107291264094028
0.112040237164423
0.116998993637278
0.12214276758614
0.127446656141679
0.132885994069794
0.138436230775178
0.144073160402134
0.149773459163006
0.155514851516217
0.161276305639039
0.167038077607523
0.172781800927414
0.178490536310348
0.184148844205683
0.189742829086135
0.195260161939324
0.200690067917149
0.206023339341148
0.211252208322792
0.216370413833662
0.221372905866859
0.226255978296519
0.231016856402856
0.235653634119098
0.240165507937521
0.244552533650925
0.248815756042851
0.25295682986812
0.256978077736609
0.26088217683608
0.264672040438744
0.268350850899701
0.271922143978328
0.27538970588175
0.278757631516683
0.282030130050564
0.285211411768649
0.288305834594236
0.291317751982283
0.294251700696677
0.297112180463679
0.299903720475682
0.302630889067789
0.305298270263889
0.307910498887842
0.310472302821596
0.312988344671156
0.315463640603712
0.317902917631196
0.320311760363555
0.322694877610766
0.325059107527542
0.327408605806697
0.32975329756074
0.332094819369776
0.334450998469617
0.336814515128918
0.339224208771383
0.34164408494858
0.344171872941293
0.346682536629085
0.349437540331973
0.35204400036553
0.355213103573189
0.357783781282571
0.361595923701692
0.365015963743329
0.368471788596684
0.3715812386259
0.374081010581398
0.375464371926206
0.374785143633766
0.371697704270661
0.365972855054586
0.357634311730801
0.347579637773525
0.335036236596854
0.317761541146018
0.293901173337853
0.253299847902825
0.190661246455579
0.0970818325175887
-0.0247317891367297
-0.138966284123627
-0.114692999494779
-0.0494144740610961
0.000103217329492644
0.00497746016245971
0.0249407552141941
0.0441864766919463
0.0564998671337486
0.0623360800055855
0.067040308998828
0.069542469850395
0.0712304947014127
0.0721719234222059
0.0729688919837102
0.0735057070831511
0.0741494392700831
0.074863600516264
0.075731082382737
0.0767067413750126
0.0775982846197793
0.0783253510285043
0.0788099090893121
0.0790417086401654
0.0787691444949436
0.077440566296858
0.0774363872365771
0.0776793936731981
0.0786636732558375
0.0801621699082088
0.082207395865737
0.0847061271993444
0.0876308825152269
0.0909325937561208
0.0945818361304388
0.0985458986828175
0.102797965802542
0.107310515608798
0.112058080318878
0.117015209808621
0.122157171475149
0.12745906380128
0.132896268580847
0.138444275947991
0.144078912116312
0.149776882852798
0.155515940588812
0.16127508046467
0.167034583421963
0.172776105418992
0.178482726561818
0.184139023511278
0.18973111377341
0.195246678408109
0.200674949122205
0.206006722603414
0.21123423135196
0.216351213865759
0.221352616594374
0.226234731627509
0.230994784877742
0.235630866687449
0.240142166351771
0.244528729429602
0.248791590156068
0.252932392364703
0.256953449014059
0.260857432033037
0.264647252191383
0.268326086341008
0.271897462162378
0.275365170937551
0.278733308600514
0.28200604750288
0.285187584209277
0.288282290993646
0.291294520207384
0.294228802673145
0.297089633899759
0.29988154057849
0.302609088237375
0.305276858245215
0.307889482287308
0.310451686309014
0.312968130734217
0.315443831979336
0.317883513497236
0.320292763006024
0.322676281487799
0.325040919077039
0.32739081150316
0.329735920600585
0.332077823248083
0.334434470706685
0.336798361218034
0.339208638664673
0.341628759787999
0.344157442344261
0.346668015430859
0.349424846042311
0.352030233620809
0.355203717599422
0.357768795369168
0.361589990567506
0.365017038591128
0.368473957143531
0.371571695410263
0.37403748570764
0.375354966471725
0.374588784545428
0.371413692074059
0.365611574039317
0.357217201450942
0.347091694627348
0.334418349630034
0.316942611571638
0.292723758499499
0.251700244714682
0.188800520876611
0.0956438541169113
-0.0241132559366072
-0.135497420447534
-0.112772011016819
-0.049251613943209
0.000220681456840386
0.00518350996684018
0.0250211638925695
0.0439685677689794
0.0563216266921229
0.0622063226490477
0.0669434536011976
0.0694900619439065
0.07120678360695
0.0721664371434716
0.0729731126844944
0.0735143532457622
0.0741541218276807
0.0748602945888824
0.0757163691032746
0.0766826148674643
0.077570253692938
0.0782970615134303
0.0787840339351233
0.0790224526905827
0.0787431672545931
0.0774312471968922
0.0774373786046702
0.077684915289327
0.0786755660287853
0.080178122154011
0.0822264477985757
0.0847266770094635
0.0876519262608119
0.090953155407987
0.094601195904338
0.098563424381702
0.102813151285988
0.107322919159743
0.11206737772133
0.117021143368928
0.122159499997688
0.127457608604906
0.132890928584495
0.138435014479066
0.144065742930686
0.149759863180552
0.155495166973744
0.161250686126627
0.167006734427459
0.172744996469258
0.178448575868929
0.184102067507468
0.189691601935626
0.195204868534871
0.200631101897657
0.20596109816656
0.211187083439086
0.216302788425963
0.221303147802856
0.226184445083729
0.230943903360522
0.235579604766669
0.2400907234878
0.24447728504897
0.248740302718783
0.252881399466944
0.256902869671274
0.260807374951443
0.264597822375505
0.268277380368732
0.271849580157726
0.275318180703786
0.278687235957757
0.281960933010995
0.285143479270819
0.28823923834372
0.291252554878733
0.294187950943169
0.297049915682189
0.299842973598574
0.302571687870118
0.305240637400103
0.307854450596897
0.310417852026428
0.312935501228412
0.315412417611185
0.317853322256146
0.320263810677308
0.322648575857963
0.325014489805648
0.327365664683054
0.329712121413697
0.332055358332456
0.334413494453369
0.336778807273636
0.339190895033348
0.34161242238712
0.344143508488518
0.346655192718582
0.349415905725871
0.352021167375474
0.355202078650862
0.357762796678744
0.361588960031466
0.365005021798776
0.368442364324213
0.371508768203186
0.373920627139554
0.375154363736077
0.374291828154474
0.371028507316706
0.365155196913756
0.356712530304891
0.34651390432564
0.333700017277311
0.316006953936847
0.291418189092163
0.250009205732471
0.186965345861558
0.0944910759339063
-0.0226847376731998
-0.130688798089736
-0.10981999646793
-0.0488451239016064
0.000413314388824944
0.00554951284721406
0.0252559095449767
0.0437557152218811
0.0561433848939689
0.0620742528988678
0.0668439311862758
0.0694352086974981
0.0711820272359089
0.0721608743654424
0.0729779117551705
0.073523827908314
0.0741586340892957
0.0748542408636935
0.0756945105497706
0.0766451848673889
0.07752303958689
0.0782453569964652
0.0787330683463663
0.0789775490978507
0.0786923875568959
0.0774164867589743
0.077435434295784
0.0776910654603507
0.0786910399637205
0.0801985891009412
0.0822499036918512
0.0847507000529024
0.0876750608024981
0.0909741090245615
0.0946190591289191
0.0985774410035952
0.102822749552872
0.107327643145774
0.112066903613588
0.117015202532253
0.122147889681922
0.127440221503153
0.13286774715469
0.138406102516349
0.144031226413165
0.149719919157959
0.155450016904164
0.161200592011653
0.166951993796743
0.172685937029172
0.178385549022866
0.184035441687378
0.189621756133941
0.195132186454718
0.200555965307637
0.205883882717939
0.211108151570404
0.21622248776051
0.221221806470287
0.226102376339342
0.230861414151074
0.235496990109807
0.240008257007272
0.244395212220951
0.248658839394174
0.252800732130313
0.256823158668586
0.260728765680542
0.264520455738516
0.268201394939177
0.271775081119636
0.275245249694648
0.278615955009256
0.281891374861499
0.28507570871518
0.288173311043371
0.291188517194162
0.29412583885061
0.296989757155905
0.299784794899447
0.302515513606847
0.305186490125439
0.307802349897149
0.310367817006665
0.312887551950013
0.315366580534328
0.31780962346321
0.320222289485588
0.322609264788737
0.324977454030072
0.327330944932049
0.329679840683629
0.332025548110493
0.334386392966178
0.336754393049981
0.339169756476308
0.341594154026035
0.344129466909537
0.34664387126131
0.349410866178097
0.352017522981994
0.355209001586319
0.357769187838325
0.361593420678039
0.364977269664594
0.368371509369412
0.37138370586196
0.373718583354403
0.374847081713347
0.373874015176585
0.370516506679382
0.364572580557588
0.356084911497228
0.345809058769596
0.332840930590013
0.314908847981644
0.289924808353478
0.248134579750605
0.185001775832623
0.0933509317408307
-0.0209202391657374
-0.125137726086979
-0.106041273986461
-0.0481020715568692
0.000695714519801128
0.00609439794969293
0.0256695653262047
0.0435796247805964
0.0559675089340728
0.0619349942604203
0.066740173917797
0.0693772427118102
0.0711560881658302
0.0721553831417361
0.072983679912562
0.0735346289767047
0.0741632783575007
0.0748452917438623
0.0756648688257067
0.0765935828939545
0.0774560895731405
0.0781703474561795
0.078657293028321
0.0789056800997309
0.0786170120510609
0.0773980219289575
0.0774320309524805
0.0776998378896352
0.0787110992387322
0.0802237385526293
0.0822772420493909
0.0847772898773495
0.0876992129810402
0.0909944072772897
0.0946345517133777
0.0985873690846553
0.102826574253896
0.10732495367917
0.1120574128647
0.116998689520172
0.122124231531897
0.127409391286215
0.132829811922848
0.138361216478029
0.143979608319774
0.149661839394429
0.155385789667075
0.161130571233609
0.166876567776864
0.172605522754147
0.178300585183935
0.183946381513035
0.189529060470275
0.195036317514995
0.200457379603368
0.20578302671203
0.211005454020824
0.216118358330655
0.22111663042223
0.225996520307022
0.23075523568993
0.235390832368024
0.239902438584
0.244290019220334
0.248554523936397
0.25269751236853
0.256721222758962
0.260628283841028
0.264421596000816
0.268104307689008
0.271679900985573
0.275152101354128
0.27852493831688
0.281802571667082
0.284989193504142
0.288089152228884
0.291106773390404
0.294046557836377
0.296912977597213
0.299710554124547
0.302443848145604
0.305117434820631
0.307735937314427
0.310304079901938
0.312826525566718
0.315308309158693
0.317754152740724
0.32016968214565
0.322559578290606
0.324930785303136
0.327287367583852
0.329639524487602
0.331988566403749
0.334353055014183
0.336724709060625
0.339144443350752
0.341572844535667
0.344113726917821
0.346632109279628
0.349407031596336
0.352016393008611
0.355220105532335
0.357783468376709
0.361600288917065
0.364937378884225
0.368270485012139
0.371208984051625
0.373446820953435
0.374450669358255
0.373351649885391
0.369889824014941
0.363869500636352
0.355332585722241
0.344970765196414
0.331831785964097
0.3136367836646
0.288227991698993
0.246044885582572
0.18284810631023
0.0921060096511893
-0.0190742713998075
-0.119269875428745
-0.10173614772601
-0.0470325822265422
0.00106924415665071
0.00681800813874571
0.0262584734104879
0.0434722152941184
0.0558080415302391
0.061785167801521
0.0666293434788346
0.0693151628783032
0.0711288491674274
0.0721502846217485
0.0729910174077573
0.0735474472645124
0.0741686544811214
0.0748340350781465
0.0756284309195866
0.0765298301126511
0.0773727776082044
0.0780763739896926
0.0785606645294328
0.0788092946717046
0.0785203163611125
0.0773756293382054
0.0774258568021497
0.0777097194423186
0.0787331747306904
0.080250823230769
0.0823058399293777
0.08480421904813
0.0877226696517703
0.0910129271983481
0.0946471781815547
0.0985933590347331
0.102825419652355
0.107316270250652
0.112040937199815
0.116974246788958
0.122091750326177
0.127368893972479
0.13278141772195
0.138305134196825
0.14391611149588
0.149591253103967
0.155308482187313
0.161046950047423
0.166787074017197
0.172510625362355
0.178200773644097
0.183842158440918
0.189420934495231
0.194924796812776
0.200342964648974
0.20566620590804
0.210886695696987
0.215998109661308
0.220995311367926
0.225874530298439
0.230632962730185
0.235268648120091
0.239780688790142
0.244169014961816
0.248434540437533
0.252578788520252
0.256603965729047
0.260512681785571
0.264307829586138
0.267992545770961
0.271570300468856
0.275044796838724
0.278420035662335
0.281700160629214
0.284889358194198
0.287991971637896
0.29101231590929
0.293954881231405
0.296824129572246
0.29962458105193
0.302360796292946
0.305037348804567
0.307658860126582
0.310230054845027
0.312755599263836
0.315240538736874
0.317689597610945
0.320108420557963
0.322501684143912
0.324876374189867
0.327236533101507
0.329592460163564
0.331945368718848
0.334314068461846
0.336689948794935
0.33911466082999
0.341547698829968
0.344094802187593
0.346617781837556
0.349401158854512
0.352013793829042
0.355229341639906
0.35779784776536
0.361605045887078
0.36488885630906
0.368149767335175
0.37100009763339
0.373125379540531
0.373989312622233
0.372750815210359
0.369173833141332
0.363068321814731
0.354472764454147
0.344012234053493
0.330683958150191
0.312202089073888
0.286341713712806
0.243754338329388
0.180517575896135
0.0907638577744101
-0.0171998945494597
-0.113276610056153
-0.0971222457438938
-0.045683567368158
0.00152366892616981
0.00771303083673048
0.0270043408408319
0.0434517694502167
0.0556842265893214
0.0616300983601251
0.066507869789114
0.0692477553385697
0.0711003019069203
0.0721461342347151
0.0730007320504902
0.0735631354967937
0.0741756556221532
0.074821706465913
0.0755872693629092
0.0764572804548515
0.0772774603836903
0.0779679206728513
0.0784468064676279
0.0786918265476639
0.0784062739520221
0.0773479358812429
0.0774146439286237
0.0777183143686435
0.0787545673343843
0.0802775013316416
0.0823338179466443
0.0848301374793349
0.0877446007175162
0.0910293364574632
0.0946570754648216
0.0985959869741247
0.102820260861899
0.107302936881215
0.112019174196827
0.11694390085478
0.122052772729576
0.127321331347022
0.13272541705701
0.138240934566893
0.143844017268819
0.149511621106164
0.155221712966122
0.160953483893206
0.166687385137742
0.172405215823369
0.178090165822949
0.183726887409579
0.189301540761558
0.19480181965447
0.200216934756593
0.205537641000404
0.210756092231829
0.215865942077899
0.22086202515242
0.225740549553135
0.230498697988204
0.235134491825574
0.239647006946351
0.244036137741452
0.248302761415239
0.252448363495293
0.256475118584885
0.260385615936393
0.264182736246417
0.267869609065595
0.27144968660041
0.274926645703793
0.278304462614914
0.281587264753885
0.284779232182176
0.287884703164673
0.290907981036995
0.293853545909896
0.296725848701072
0.299529407863152
0.302268784405156
0.304948549887524
0.307573324717136
0.310147833453702
0.312676745997417
0.315165118870896
0.31761767895065
0.320040090170405
0.32243702500506
0.324815510422226
0.327179567737675
0.329539594078283
0.331896706425863
0.334269960141536
0.336650401717351
0.339080401273307
0.34151838568939
0.344071920936126
0.346599684671999
0.349391316681606
0.35200721977396
0.355232923170672
0.357806736308173
0.361603784544064
0.364831945571408
0.368014179881387
0.370765672207195
0.372766272278114
0.373478323873779
0.372089291572144
0.368387418646917
0.362187753324269
0.353522603966001
0.342949153837425
0.329413267652249
0.310622330765138
0.284289071828233
0.241294613847671
0.178052338315705
0.0893749752131473
-0.0152736279045378
-0.107209448382467
-0.0923265973854533
-0.0441036306254609
0.00205573046589605
0.00874915539991298
0.0278852679534791
0.0435398855126626
0.0555952717655822
0.0614899581155917
0.0663732756932381
0.0691739841857581
0.0710706074611358
0.0721436528296381
0.073013688972026
0.0735825188703091
0.0741852018839437
0.0748096664944611
0.0755435215709657
0.0763789352341899
0.0771734318972544
0.0778478769056517
0.0783180714637753
0.0785564715822887
0.078278079396762
0.0773136607880692
0.0773968666744737
0.0777240292507821
0.0787736847711989
0.0803025129524526
0.0823602473826393
0.0848544494574722
0.0877647177589652
0.0910436285601537
0.0946644963541774
0.0985957419621408
0.102811802854195
0.107285857900023
0.111993224128447
0.11690893073968
0.122008743342283
0.127268301684291
0.132663549866238
0.138170486920922
0.14376531181577
0.149425034114774
0.155127665286554
0.160852436974415
0.166579834900958
0.172291686375407
0.17797120166584
0.18360304568171
0.189173383924938
0.19466990867724
0.200081821733589
0.205399864797561
0.210616169968097
0.21572436875206
0.220719265742802
0.225597047587033
0.230354881443855
0.234990768947168
0.239503759639597
0.243893711607186
0.248161465496927
0.2523084683449
0.256336864649394
0.260249217217848
0.264048396824176
0.267737523588446
0.271320027969921
0.274799562424939
0.278180080811546
0.281465692525644
0.284660569655767
0.2877690457363
0.290795411448265
0.293744137529155
0.296619662795949
0.299426503462663
0.302169221312495
0.304852385424362
0.307480615467897
0.310058635320531
0.312591118390577
0.315083132573163
0.317539407075734
0.319965624744186
0.322366453790333
0.324748960176063
0.327117144760291
0.329481497149011
0.331843039370755
0.334221060094984
0.336606264197738
0.339041695407619
0.341484752110581
0.344044685463852
0.346577180004916
0.349376482347657
0.351995320080075
0.355228977641765
0.357806899769464
0.361593547782078
0.364765222481602
0.367864880695911
0.370509500377707
0.372375603965527
0.372926002418373
0.371377231819449
0.367541870726037
0.361239564044615
0.352493732967374
0.34179296379092
0.328032112891704
0.308912189263951
0.282090341223859
0.238695512434779
0.175489966504645
0.0879819192814419
-0.0132692785605821
-0.101079418238086
-0.0874214283994162
-0.0423344456684267
0.00266894237326827
0.00988525790677823
0.0288778314763535
0.0437602737172177
0.0554953550338994
0.0613930450494775
0.0662266163480691
0.0690933749570796
0.0710400250972141
0.072143494111736
0.0730305703501253
0.0736061896274437
0.0741980087843645
0.0747990478022672
0.0754988834388229
0.0762969327030077
0.0770627910492342
0.0777179995223153
0.078176199023179
0.0784059703019441
0.0781380212230571
0.0772720821151419
0.0773718222952946
0.0777259949872629
0.0787896282886976
0.0803251457988656
0.0823845922648763
0.0848768117506337
0.0877828603198346
0.0910558189954694
0.0946696243538094
0.0985929623964568
0.102800536537609
0.10726567420902
0.11196387188248
0.116870258351593
0.121960715146603
0.127210982630525
0.132597111449107
0.138095196419792
0.143681501496508
0.149333090767653
0.155028021050423
0.160745565386985
0.166466244490153
0.172171914171918
0.177845805234073
0.183472595306288
0.189038455353832
0.194531076218822
0.199939650957301
0.205254908265713
0.210468958557483
0.215575411745843
0.220569041888416
0.225446014846351
0.230203480395484
0.234839418860445
0.239352854117626
0.243743608089246
0.248012485568147
0.252160896092177
0.256190953276822
0.260105192455139
0.263906474028722
0.26759790387371
0.271182892360261
0.27466506823497
0.278048364226583
0.281336869942816
0.284534747888716
0.287646327404626
0.29067588546569
0.293627884404228
0.29650674981672
0.299316994929073
0.30206318266183
0.304749878906678
0.307381702953819
0.309963377080549
0.312499577845182
0.314995384400142
0.31745552776437
0.319885708778787
0.322290590934036
0.324677275788495
0.327049744324748
0.329418570724857
0.331784684449063
0.334167588033226
0.336557655274592
0.338998539996261
0.341446663790616
0.344012789161257
0.346549796768913
0.349355937375753
0.351977149624354
0.355216366876634
0.357796210411296
0.361572002979328
0.364686966159432
0.367701701252332
0.37023340374853
0.371956993767351
0.372337588404293
0.370621239965006
0.36664465991773
0.360231631886061
0.351394118813725
0.340551734139673
0.326549573273058
0.307083051286763
0.279761934095228
0.235978686785762
0.172850647987681
0.0866042915911164
-0.0111703627285976
-0.0948942509153779
-0.0824464861469048
-0.0404061272404507
0.00336640563725206
0.0110692346533415
0.0299493846476989
0.044114286540531
0.0553250157954159
0.0613598459639657
0.0660744825864039
0.0690061471802534
0.0710087878530111
0.072146028882122
0.0730517288293431
0.0736344510112458
0.0742145539125816
0.0747906988948132
0.0754545874193359
0.0762127370237772
0.076946949299738
0.0775795969249917
0.0780227647986134
0.0782426718389847
0.0779878692072385
0.0772229439557401
0.0773392299913539
0.0777236811017062
0.0788017839695496
0.0803448954848067
0.0824064493573725
0.0848969570344565
0.0877988933544175
0.0910659085411596
0.0946725943305823
0.0985879088275828
0.102786847831896
0.107242902927665
0.111931757533108
0.116828643368823
0.121909563379971
0.127150360251866
0.132527193313565
0.138016253739525
0.143593868857916
0.149237157835374
0.154924223442507
0.160634380805271
0.166348186056168
0.172047523764887
0.177715645407637
0.183337241503264
0.188898488813395
0.194387077049096
0.199792191014022
0.205104547025274
0.210316234341938
0.215420842362329
0.220413114571575
0.225289197415356
0.230046221572102
0.234682144516378
0.239195965654256
0.243587471400962
0.247857432157575
0.252007222655718
0.25603892135776
0.259955041941524
0.263758427138041
0.267452167541637
0.271039655292607
0.274524495452782
0.277910601296491
0.281202041060449
0.284402966004741
0.28751770199971
0.29055051123746
0.293505848845004
0.296388125981686
0.299201851975101
0.301951591271471
0.304641905724566
0.307277414593581
0.309862837384618
0.312402853216789
0.314902552131432
0.317366666176399
0.319800912782238
0.32220995004115
0.324600910568048
0.326977756135131
0.329351135245003
0.33172188838471
0.334109706500268
0.336504650042546
0.3389509033826
0.341403978150629
0.343975944811528
0.346517111284297
0.349329065004574
0.351951894802127
0.35519420253807
0.357773057864968
0.361537203632666
0.364595491346262
0.367523920359714
0.369938227951794
0.371512793418667
0.371716759751588
0.369826109395009
0.365701324183541
0.359169884314326
0.350229877699596
0.33923183833133
0.324973146800898
0.30514478300841
0.277315670508351
0.233152047729825
0.170158018958311
0.0852727325791435
-0.00897008298937929
-0.0886604158763134
-0.077423524074763
-0.0383432831412581
0.00415139507042765
0.0122271880485527
0.031067684511929
0.0445951344689017
0.055098394310754
0.0613922622948495
0.0659297100632022
0.0689131648187668
0.0709770100591212
0.0721512962099033
0.0730772080874214
0.0736673889108733
0.0742351444694883
0.0747852462927871
0.0754115341238794
0.076127417769157
0.076827002820344
0.0774338365687463
0.0778592781921205
0.0780686200471709
0.0778291276118007
0.0771662571615961
0.0772990105784826
0.0777167199675254
0.0788096866610322
0.0803613729385974
0.0824254936266652
0.0849146688231524
0.0878127049125217
0.0910738981740953
0.0946735189001485
0.0985808035690992
0.102771066532187
0.107217986861817
0.111897431113581
0.11678474087567
0.12185604501705
0.127087289650931
0.132454744305136
0.137934696197074
0.143503533342887
0.14913843018873
0.154817535904756
0.16052020826542
0.166227039156043
0.171919942080811
0.177582189311689
0.183198484480838
0.188755010637671
0.194239456882265
0.1996410005554
0.204950346571886
0.210159563976394
0.215262223219837
0.220253037595447
0.225128136189603
0.229884628954462
0.234520448975861
0.239034572856947
0.243426752649449
0.247697727609902
0.251848836839124
0.255882126371816
0.25980008874435
0.263605542628316
0.267301564035789
0.270891528084224
0.274379016342089
0.277767924844982
0.281062298864738
0.284266276620104
0.287384181446729
0.290420259648674
0.293378960584676
0.296264679624626
0.299081921128293
0.301835251523108
0.304529227646185
0.307168469083306
0.309757691136523
0.312301574684713
0.314805220085096
0.31727335940371
0.319711724819413
0.322124968165879
0.32452024748384
0.32690150618407
0.329279454580065
0.331654849142385
0.334047538160948
0.336447293526926
0.338898734334638
0.341356545531007
0.343933875971925
0.346478727673962
0.349295310515961
0.351918819901322
0.355161729065099
0.357736175495658
0.361487482517588
0.364489166332897
0.367330471024165
0.369624133631717
0.371044432555484
0.371066056250597
0.368995341702351
0.364716078882524
0.358059012204391
0.349006067739734
0.337838876137707
0.323309728474451
0.303104949706721
0.274753472999313
0.230240092635565
0.167590561771257
0.0842198752202813
-0.0066607174510975
-0.082381956864964
-0.0723655166020838
-0.0361683302808598
0.00502729304635522
0.0132932087108795
0.0322320341520581
0.0451849476439708
0.0548968586233976
0.0614738752773772
0.0658095462085745
0.0688161173619157
0.070944680944565
0.0721590875677979
0.0731068476561176
0.0737049661864808
0.0742599832558437
0.0747831650437181
0.0753704174764081
0.076041835150043
0.0767039111439433
0.0772818400143669
0.0776871868077167
0.0778856205279437
0.0776631222052225
0.0771021741710373
0.0772512128588151
0.0777048489964231
0.0788129800267651
0.0803742745405865
0.08244146072144
0.084929771874361
0.0878242039374024
0.0910797926831928
0.0946724957812724
0.0985718425784876
0.102753485550797
0.107191316042728
0.111861378118952
0.116739130365254
0.121800831114215
0.127022530440352
0.132380608990603
0.137851448810982
0.143411494786037
0.149037976492645
0.154709089798047
0.160404235565645
0.166104041663282
0.171790450613602