/*--------------------------------*- C++ -*----------------------------------*\
  =========                 |
  \\      /  F ield         | OpenFOAM: The Open Source CFD Toolbox
   \\    /   O peration     | Website:  https://openfoam.org
    \\  /    A nd           | Version:  7
     \\/     M anipulation  |
\*---------------------------------------------------------------------------*/
FoamFile
{
    version     2.0;
    format      ascii;
    class       surfaceScalarField;
    location    "20000";
    object      phi;
}
// * * * * * * * * * * * * * * * * * * * * * * * * * * * * * * * * * * * * * //

dimensions      [0 3 -1 0 0 0 0];

internalField   nonuniform List<scalar> 
30950
(
1.96679437732381e-05
-7.63191173542413e-06
8.35396196278304e-06
1.13139818914404e-05
-9.64234192881129e-06
1.79963041902038e-05
-1.56237430203209e-05
5.98140107779391e-06
-1.16260066935924e-05
-3.99773643013188e-06
-8.58571021667287e-06
-3.04029614034263e-06
-6.55410635599073e-06
-2.03160359358327e-06
-5.29075385639467e-06
-1.26335247369883e-06
-4.60719674729916e-06
-6.83557053469686e-07
-4.62786620310669e-06
2.06695788684705e-08
-5.14568124595327e-06
5.17815188600875e-07
-6.3476073868906e-06
1.20192626684142e-06
-7.86435169935416e-06
1.51674442237944e-06
-9.50181234946015e-06
1.63746075933657e-06
-1.08971230313735e-05
1.39531079366888e-06
-1.16442670821486e-05
7.47144167821192e-07
-1.1758670106795e-05
1.14403157646641e-07
-1.12183862001631e-05
-5.40283747450943e-07
-1.00578848800144e-05
-1.16050112565548e-06
-8.5609459574503e-06
-1.49693868234382e-06
-9.88141316415933e-06
1.32046747694664e-06
-1.89610239513068e-05
9.07961104040688e-06
-2.72049051432281e-05
8.24388143566956e-06
-3.44084289878871e-05
7.20352409374141e-06
-4.04123811900415e-05
6.00395245499583e-06
-4.54778055205813e-05
5.0654245729333e-06
-4.97070375045246e-05
4.22923220710109e-06
-5.32804888214128e-05
3.5734515204533e-06
-5.62912992389354e-05
3.01081060653005e-06
-5.88284364750724e-05
2.53713741710015e-06
-6.09427446279755e-05
2.11430832893328e-06
-6.26757448366564e-05
1.73300037762009e-06
-6.40543374902733e-05
1.37859280944139e-06
-6.5101593325426e-05
1.04725597112919e-06
-6.58349496671563e-05
7.33356453282595e-07
-6.62699872540484e-05
4.35037673441568e-07
-6.64202937976378e-05
1.50306609321755e-07
-6.6299122001323e-05
-1.21171742340662e-07
-6.59196236987964e-05
-3.79498246594865e-07
-6.52961884017515e-05
-6.2343522186725e-07
-6.44448786023504e-05
-8.51309687234137e-07
-6.33824180852144e-05
-1.06246035312411e-06
-6.21257786003976e-05
-1.25663925987015e-06
-6.06918415480305e-05
-1.43393676571613e-06
-5.90973994444118e-05
-1.59444176357683e-06
-5.73591176106909e-05
-1.73828145682492e-06
-5.54935281220898e-05
-1.86558909657509e-06
-5.35169233449235e-05
-1.97660439246332e-06
-5.14452225550788e-05
-2.07170043112788e-06
-4.92938384603735e-05
-2.15138377354269e-06
-4.70775881071338e-05
-2.21625007252824e-06
-4.48104385743847e-05
-2.26714928728812e-06
-4.25056155920639e-05
-2.30482276121285e-06
-4.01750879617399e-05
-2.3305274202241e-06
-3.78300133595752e-05
-2.3450743910778e-06
-3.54801049028769e-05
-2.3499082372152e-06
-3.31345918345506e-05
-2.34551283811637e-06
-3.08028229629982e-05
-2.33176863161579e-06
-2.84932820097479e-05
-2.30954070744819e-06
-2.62137238511484e-05
-2.2795579128639e-06
-2.39704029510474e-05
-2.24332066024346e-06
-2.17685948661156e-05
-2.2018078555237e-06
-1.96122145635686e-05
-2.15638008673586e-06
-1.75045232244688e-05
-2.10769114018874e-06
-1.54489024735478e-05
-2.05562057296106e-06
-1.34488182346261e-05
-2.00008408587626e-06
-1.15073120474427e-05
-1.94150606112217e-06
-9.62698460025063e-06
-1.88032734612025e-06
-7.80950408773046e-06
-1.81748042960927e-06
-6.05622967627673e-06
-1.75327433460192e-06
-4.36879816698317e-06
-1.68743142408891e-06
-2.74859120017501e-06
-1.62020686130692e-06
-1.19712033756475e-06
-1.55147073159928e-06
2.84654225954292e-07
-1.48177441073544e-06
1.69566802049704e-06
-1.41101363287705e-06
3.03466340133751e-06
-1.33899522904151e-06
4.30031885616077e-06
-1.26565533111301e-06
5.49105346736031e-06
-1.190734526931e-06
6.60515813655932e-06
-1.11410462526632e-06
7.64071348785051e-06
-1.03555533768425e-06
8.59496316635003e-06
-9.54249677628006e-07
9.46519017882475e-06
-8.70227005058304e-07
1.02469940844661e-05
-7.81803876347715e-07
1.09366616584922e-05
-6.89667515116739e-07
1.15268559626763e-05
-5.90194216013956e-07
1.20127855510664e-05
-4.85929477743332e-07
1.23807328411647e-05
-3.67947166995001e-07
1.26261900776908e-05
-2.45457111374048e-07
1.27211838580653e-05
-9.49936622481566e-08
1.26685281874236e-05
5.26557745699457e-08
1.24064744718839e-05
2.62053800449837e-07
1.19648959034795e-05
4.41578632647418e-07
1.11905701856014e-05
7.74325764179482e-07
1.021130909089e-05
9.79261131155144e-07
8.63627958090958e-06
1.57502954973168e-06
6.91698215889051e-06
1.7192974806798e-06
4.03770686462933e-06
2.8792753867034e-06
1.46070406274613e-06
2.57700294093862e-06
-4.0077563040494e-06
5.46846055333819e-06
-4.11824621940688e-06
1.10490074702559e-07
-1.39963601391319e-06
-2.71861009714549e-06
2.99418410857527e-06
-4.39382001999227e-06
8.64712695334326e-06
-5.65294268634182e-06
1.55062230177012e-05
-6.85909578711924e-06
2.34909566286869e-05
-7.98473315486174e-06
3.12447520957479e-05
-7.75379481326008e-06
3.81747889764347e-05
-6.93003608827226e-06
4.36943181158989e-05
-5.51952835945782e-06
4.70499839913358e-05
-3.35566531916795e-06
4.97161160488189e-05
-2.66613193276509e-06
5.2891234976726e-05
-3.17511937496716e-06
5.73282652928805e-05
-4.43703133193414e-06
6.66124546427835e-05
-9.2841906722688e-06
8.02270518190166e-05
-1.36145982190656e-05
0.000100189496569959
-1.99624448867599e-05
0.00012500264721551
-2.48131499214761e-05
0.000131465146184533
-6.46249817957408e-06
8.02706542083141e-05
5.11944923037368e-05
2.87771058200587e-05
5.14935484577936e-05
1.67386214063148e-05
7.14272753447801e-05
-1.17105203919463e-05
3.83125143696539e-05
4.44287429459876e-05
-1.80086697391392e-05
7.43174883493936e-05
-4.1923407367715e-05
2.98961387790915e-05
-3.34704551349896e-05
-1.24506885673979e-05
-2.48818192086429e-05
-1.16289318378431e-05
-1.94548623128431e-05
-7.45856024012288e-06
-1.5986419607322e-05
-4.7317949321736e-06
-1.42785700679772e-05
-2.39140630482663e-06
-1.44795616229284e-05
2.21661485757606e-07
-1.62764249212952e-05
2.31467889614676e-06
-1.98882863147623e-05
4.81378811491324e-06
-2.44668573139044e-05
6.09531591537168e-06
-2.9348255547485e-05
6.5188595254281e-06
-3.36296373491765e-05
5.67669316729056e-06
-3.63740082694783e-05
3.49151569803593e-06
-3.75491040965503e-05
1.28949962835776e-06
-3.70936239953393e-05
-9.95763179635789e-07
-3.51381022210477e-05
-3.11602221780089e-06
-3.34681612623827e-05
-3.1668789577604e-06
-4.09221540808126e-05
8.77446096844877e-06
-6.55212666829297e-05
3.36787242806457e-05
-8.86445010450521e-05
3.13671164093751e-05
-0.000107842735681235
2.64017593173245e-05
-0.000123663960294875
2.18251776249618e-05
-0.000136692769003499
1.80942337971504e-05
-0.000147436938220163
1.49734018979893e-05
-0.00015634832258689
1.248483632645e-05
-0.000163724730303453
1.03872187342254e-05
-0.000169794056082764
8.60646358278905e-06
-0.000174705561574488
7.02581418024543e-06
-0.000178571088481347
5.59852761160987e-06
-0.000181470696638752
4.27820125598081e-06
-0.0001834699384228
3.0464980050737e-06
-0.000184621298265797
1.88471651245837e-06
-0.000184971101951598
7.84841554900319e-07
-0.000184561598886915
-2.59196260083802e-07
-0.000183433653777731
-1.24911663143731e-06
-0.000181628203892084
-2.18494785990697e-06
-0.000179188657269071
-3.06298149395266e-06
-0.000176161083823291
-3.87888268262308e-06
-0.00017259233070297
-4.63121291223432e-06
-0.000168529074521101
-5.31989477047981e-06
-0.000164017259535047
-5.94575098444944e-06
-0.000159102108738052
-6.50959172295568e-06
-0.000153828097494583
-7.01229182624248e-06
-0.000148238916223951
-7.45476949317702e-06
-0.000142377245282871
-7.83827449245571e-06
-0.000136284471326781
-8.16447360308211e-06
-0.000130000405686982
-8.43544869802062e-06
-0.00012356305798221
-8.65359713016578e-06
-0.00011700817875104
-8.82202792825745e-06
-0.000110369317888858
-8.94368307262139e-06
-0.000103677006442385
-9.02283833628624e-06
-9.69593940280385e-05
-9.06268627886218e-06
-9.0241527504503e-05
-9.0677742264067e-06
-8.35473247986964e-05
-9.03971499630829e-06
-7.69005140452595e-05
-8.97857882320037e-06
-7.03226967532965e-05
-8.8873574255957e-06
-6.38332747697326e-05
-8.76897931601246e-06
-5.74481731898324e-05
-8.62842166039159e-06
-5.11806638091507e-05
-8.46931666684088e-06
-4.50409500796374e-05
-8.29609326997699e-06
-3.9037849973245e-05
-8.11079073985454e-06
-3.31804721075717e-05
-7.91299798996637e-06
-2.74779513348023e-05
-7.70260448342548e-06
-2.19383480354266e-05
-7.4811090649877e-06
-1.65684334065488e-05
-7.25024175020755e-06
-1.13728366033038e-05
-7.0130770538346e-06
-6.35556643218201e-06
-6.77054433473297e-06
-1.52107030071605e-06
-6.52192735097275e-06
3.1264578397634e-06
-6.26773473122937e-06
7.58266683726794e-06
-6.00767938144307e-06
1.1844615045663e-05
-5.74372220951036e-06
1.59091751445641e-05
-5.4755732992145e-06
1.97725873836044e-05
-5.202407064802e-06
2.34307700291646e-05
-4.92383765176396e-06
2.68790221080186e-05
-4.6389863894884e-06
3.01122862818628e-05
-4.34736869389179e-06
3.3124682645158e-05
-4.0479516806149e-06
3.59085245584891e-05
-3.73809160898939e-06
3.84552954542757e-05
-3.41699790542473e-06
4.07532792669965e-05
-3.07978763704655e-06
4.27902678814935e-05
-2.72665599665463e-06
4.45478704583938e-05
-2.34779657644404e-06
4.60082604135795e-05
-1.94631914867114e-06
4.71397775884252e-05
-1.49946401635335e-06
4.79174835657271e-05
-1.02316275113483e-06
4.82831324955698e-05
-4.60642268829708e-07
4.8208940024931e-05
1.26848533834903e-07
4.75812268889667e-05
8.8976717655919e-07
4.63801842416842e-05
1.64262146531535e-06
4.4349546026943e-05
2.80496411308181e-06
4.15392119099866e-05
3.78959534576489e-06
3.73541416547355e-05
5.76009989270862e-06
3.21499292738529e-05
6.92350997447309e-06
2.45121959925531e-05
1.05170088446249e-05
1.58869775856569e-05
1.1202221624086e-05
2.14888376074351e-06
1.92065547763448e-05
1.24060828978322e-06
1.01876606249179e-06
8.85634801363385e-06
-1.0334349211284e-05
2.0584046001673e-05
-1.61215173357212e-05
3.52301724161449e-05
-2.02990684041276e-05
5.25347149706345e-05
-2.41636376655332e-05
7.20522983548251e-05
-2.75023159255392e-05
9.10918798561605e-05
-2.67933758038199e-05
0.000108344618191459
-2.41827740518255e-05
0.000122460013463355
-1.9634923423543e-05
0.000131894200791947
-1.27898526052864e-05
0.000139289848864479
-1.00617801016725e-05
0.000147226315669371
-1.11115863576724e-05
0.000158210776616603
-1.54214924584467e-05
0.000179458894004886
-3.05323081290447e-05
0.000211804861708879
-4.59605657737207e-05
0.000259569258944112
-6.77268417577459e-05
0.00032104172675283
-8.6285617333334e-05
0.000348115908300514
-3.35366794603784e-05
0.000254069945810362
0.000145240454931694
0.000126637161779624
0.000178926332544673
7.6027116494984e-05
0.000142576680174319
3.09149828898459e-06
8.42942486346397e-05
0.000102711174567951
-1.47147131652369e-05
0.000173326450157704
-6.40609170918328e-05
7.92423428061487e-05
-5.48561333942842e-05
-2.16554721003868e-05
-4.13010215035047e-05
-2.51840434987222e-05
-3.27917752237657e-05
-1.59678062434343e-05
-2.73092655533529e-05
-1.02143042600841e-05
-2.47668809117135e-05
-4.93379055297575e-06
-2.5301706641221e-05
7.5648767887295e-07
-2.85931565592721e-05
5.60612934966319e-06
-3.4741981909325e-05
1.09626140670363e-05
-4.25055812683959e-05
1.38589159340659e-05
-5.07405096192493e-05
1.47537885881855e-05
-5.81335440943825e-05
1.30697284057395e-05
-6.34387835027939e-05
8.79675591809243e-06
-6.66195490472037e-05
4.47026602359378e-06
-6.76191269117345e-05
3.8155596533293e-09
-6.685422601551e-05
-3.8809222372853e-06
-6.81671517768198e-05
-1.85395233891053e-06
-8.41976720341011e-05
2.48049820489162e-05
-0.000122193537568867
7.16745905816563e-05
-0.00015772830257673
6.69018821377226e-05
-0.000186163050643369
5.48365080603683e-05
-0.000209070348684044
4.47324762920519e-05
-0.000227475005954124
3.64988916391105e-05
-0.000242340248807405
2.98386452733609e-05
-0.000254363908322147
2.45084963234287e-05
-0.000264034457852857
2.0057768714968e-05
-0.000271698271704248
1.62702778542018e-05
-0.000277595042238799
1.29225851013341e-05
-0.000281901713353338
9.90519907333938e-06
-0.000284751525316579
7.12801352317284e-06
-0.000286252764592506
4.54773754358652e-06
-0.000286493992801823
2.12594495251654e-06
-0.000285552549472113
-1.56601558566295e-07
-0.00028350396636812
-2.30777913852166e-06
-0.000280423906691042
-4.32917604594428e-06
-0.000276383449579271
-6.22540464403731e-06
-0.000271453951976283
-7.99247867944886e-06
-0.000265708227882352
-9.62460625165687e-06
-0.000259218260899935
-1.11211792554901e-05
-0.000252054244717867
-1.24839102046293e-05
-0.000244284195756632
-1.37157991072587e-05
-0.000235974105938658
-1.48196806407065e-05
-0.000227188034818299
-1.5798362019445e-05
-0.000217988119407827
-1.66546839851314e-05
-0.000208434374182493
-1.73920188385253e-05
-0.000198584424222575
-1.80144227440134e-05
-0.000188493241405683
-1.85266307651803e-05
-0.000178212905538046
-1.89339323144074e-05
-0.000167792184655691
-1.9242748181073e-05
-0.000157276521797226
-1.9459345337855e-05
-0.00014670734008034
-1.95920194780937e-05
-0.000136122654797083
-1.96473709898e-05
-0.00012555678353798
-1.96336449046025e-05
-0.000115042700454352
-1.95537974844583e-05
-0.000104612709609314
-1.94085690567607e-05
-9.42961999845186e-05
-1.92038664244025e-05
-8.41193202425454e-05
-1.89458584219201e-05
-7.41037945712169e-05
-1.86439466926508e-05
-6.42677232609452e-05
-1.83053873465532e-05
-5.46254502002324e-05
-1.79383657251425e-05
-4.51898481027126e-05
-1.75463922779935e-05
-3.5974285487439e-05
-1.71285601143616e-05
-2.69920314634885e-05
-1.66848581021838e-05
-1.82548840766115e-05
-1.62182561370062e-05
-9.77276060084915e-06
-1.57323649869601e-05
-1.55266328008855e-06
-1.52331741784371e-05
6.39864781769978e-06
-1.47218552337251e-05
1.40736286784317e-05
-1.41969079636785e-05
2.14656411493952e-05
-1.36597468730151e-05
2.85680407749923e-05
-1.31100785915065e-05
3.53754837576735e-05
-1.25511647145768e-05
4.18823834121386e-05
-1.19824724625706e-05
4.80822670155756e-05
-1.14022902230113e-05
5.39680670205916e-05
-1.08096373096118e-05
5.95318172935078e-05
-1.02027364412241e-05
6.47649551540078e-05
-9.58050645523836e-06
6.96574843101669e-05
-8.94048082507893e-06
7.41970029875661e-05
-8.27761030792034e-06
7.83691285191755e-05
-7.58912343415436e-06
8.21556109783797e-05
-6.86627002331935e-06
8.55357230452605e-05
-6.10676789675144e-06
8.84819303855275e-05
-5.29400365626008e-06
9.09630420046231e-05
-4.42743043314668e-06
9.29340723992546e-05
-3.47049403272995e-06
9.43473834744275e-05
-2.43647343708524e-06
9.51253012013952e-05
-1.23855962496533e-06
9.51969570715245e-05
5.51929932209946e-08
9.44242777407346e-05
1.66244678027395e-06
9.27071326615186e-05
3.35976675438033e-06
8.9761184895665e-05
5.75091203083653e-06
8.54512300372079e-05
8.09955031636629e-06
7.91743768719741e-05
1.2036953162524e-05
7.08462608009107e-05
1.52516261842356e-05
5.91804978412476e-05
2.21827720228283e-05
4.45150927358604e-05
2.58676270712624e-05
2.46370235916201e-05
3.90846244173007e-05
2.27936316895488e-05
2.86215863683833e-06
3.41346200041866e-05
-2.16753367157198e-05
5.12471469267207e-05
-3.32340433807567e-05
7.21229093642898e-05
-4.11748299742297e-05
9.64549770402404e-05
-4.84957045663082e-05
0.000123599537134167
-5.46468754094035e-05
0.000150467815648824
-5.36616539240822e-05
0.000175338575260108
-4.90535334993311e-05
0.000196348596949181
-4.06449451488085e-05
0.000211452121930841
-2.78933777448136e-05
0.000223424634325733
-2.20342926686897e-05
0.000235549827573687
-2.32367796737804e-05
0.000251818886560333
-3.16905513150131e-05
0.000281346849403968
-6.00602706025958e-05
0.000326661777560521
-9.12754933938704e-05
0.000392789682673312
-0.000133854746375402
0.000478218260539462
-0.000171714194929528
0.000527794550452125
-8.31129692818573e-05
0.000430436036799036
0.000242598968653705
0.000259659561604945
0.000349702807785388
0.000178307979239757
0.00023477808047486
4.45083027261704e-05
0.000147837083597651
0.000189652171508383
2.41271261729665e-06
0.000318750821138114
-8.03647720746361e-05
0.000162019827598433
-7.50944992473882e-05
-2.69257447484961e-05
-5.75819216459592e-05
-4.26966208585062e-05
-4.63520933392809e-05
-2.71976342550843e-05
-3.9182441305674e-05
-1.73839559202441e-05
-3.60372311467644e-05
-8.07900028351182e-06
-3.71285952519365e-05
1.84785228754984e-06
-4.21117863669082e-05
1.05893210451471e-05
-5.09229000386187e-05
1.97737283906243e-05
-6.19312467154368e-05
2.48672633233541e-05
-7.35813499155097e-05
2.64038925535945e-05
-8.4289687956179e-05
2.37780672623309e-05
-9.27087629096468e-05
1.72158317336692e-05
-9.88824354508623e-05
1.06439394616575e-05
-0.000102837926239466
3.95930726090003e-06
-0.000105512449592364
-1.20639798247747e-06
-0.000112555265207641
5.18886414153181e-06
-0.000137644442088191
4.98941597369946e-05
-0.000185265427768351
0.000119295576993873
-0.00022823562605745
0.00010987208109841
-0.000261051016404185
8.7651899023544e-05
-0.000286470676250649
7.0152136697652e-05
-0.000306127624905862
5.61558407955793e-05
-0.000321413347605757
4.51243684242834e-05
-0.000333238662965921
3.63338120953608e-05
-0.000342241381154129
2.90604872833448e-05
-0.000348858229472192
2.28871265229678e-05
-0.000353398428389855
1.7462784337609e-05
-0.000356090124806904
1.25968957728494e-05
-0.000357108829720088
8.14671868079028e-06
-0.000356596265703667
4.03517373673487e-06
-0.000354668859390295
1.98538823176799e-07
-0.000351437369229917
-3.38809154541355e-06
-0.00034700460987614
-6.74053830978775e-06
-0.000341459834551995
-9.87395115674887e-06
-0.000334889200158318
-1.27960387725096e-05
-0.000327377556073095
-1.5504122430066e-05
-0.000319008882776406
-1.79932791327464e-05
-0.000309864382738366
-2.02656787936869e-05
-0.000300021970727785
-2.23263216371208e-05
-0.000289556294576698
-2.41814746171184e-05
-0.000278539100786757
-2.58368737485174e-05
-0.000267039474868746
-2.72979872405143e-05
-0.000255123931763147
-2.85702264048627e-05
-0.00024285630016648
-2.96596497821264e-05
-0.000230297536477856
-3.05731858267156e-05
-0.000217505541145541
-3.13186255441138e-05
-0.000204534952781606
-3.19045201741959e-05
-0.00019143684734153
-3.2340853156154e-05
-0.000178258657443671
-3.26375347963464e-05
-0.000165043717262442
-3.2806959232122e-05
-0.000151831748036647
-3.28593397893502e-05
-0.000138658955116862
-3.28064373906585e-05
-0.000125560363039751
-3.26523891159966e-05
-0.000112570105471058
-3.23988261672061e-05
-9.97192569145289e-05
-3.20547145113349e-05
-8.70353477336907e-05
-3.16297671251306e-05
-7.45414862761237e-05
-3.11378076699805e-05
-6.22569985473452e-05
-3.05898746015952e-05
-5.01975460258668e-05
-2.9997817792513e-05
-3.83775624796411e-05
-2.93663754062255e-05
-2.6812192980452e-05
-2.86939292485526e-05
-1.5516490362522e-05
-2.79805604202945e-05
-4.50398136577468e-06
-2.72307649011364e-05
6.2136717580261e-06
-2.64500179326007e-05
1.66274670083756e-05
-2.56469692786024e-05
2.67291519479715e-05
-2.48235400161824e-05
3.65097159351761e-05
-2.39774717526586e-05
4.59604136547808e-05
-2.31104443312989e-05
5.50726801548039e-05
-2.22223447655568e-05
6.38391595386097e-05
-2.13176437285302e-05
7.22522085447434e-05
-2.03955210931418e-05
8.03030882901202e-05
-1.94531696321177e-05
8.79822197359668e-05
-1.84887684967407e-05
9.52789355540628e-05
-1.74994520974596e-05
0.000102181754427497
-1.64833252584607e-05
0.000108677374901789
-1.54361012930921e-05
0.000114749815317074
-1.43500507387437e-05
0.000120380252302606
-1.32195604129126e-05
0.000125545834439445
-1.20318520965304e-05
0.000130219661062259
-1.0780594381253e-05
0.000134368283473092
-9.44262585452072e-06
0.00013795116412492
-8.01031081333371e-06
0.000140915639873551
-6.43496947433773e-06
0.000143198117736026
-4.71895098290821e-06
0.000144711559144722
-2.75200073086491e-06
0.000145349163085648
-5.82410677519708e-07
0.000144960035972446
2.05157411806711e-06
0.000143379508003838
4.9402948963956e-06
0.000140327101583592
8.80331857738892e-06
0.000135505122654107
1.29215293404093e-05
0.000128352883878407
1.9189192028454e-05
0.000118351526274783
2.5252983909733e-05
0.000104398110502495
3.61361879892373e-05
8.55894154854547e-05
4.46763223949078e-05
6.21283862631224e-05
6.25456540908176e-05
5.8684463078376e-05
6.30608243831926e-06
7.10016777665522e-05
-3.3992550670874e-05
9.02831294813438e-05
-5.25154943212185e-05
0.000113844145828153
-6.47358455758506e-05
0.00014134484244963
-7.59964005448975e-05
0.000172112933080809
-8.54149655655741e-05
0.000203255037662638
-8.48037582431204e-05
0.000232906888447006
-7.87053842403391e-05
0.000259016165420878
-6.67542222561775e-05
0.000279238731935076
-4.81159444758069e-05
0.000295758798789848
-3.85543596994538e-05
0.000311875372035354
-3.93533529274134e-05
0.000332238264165395
-5.20534431981915e-05
0.000366670888448409
-9.44928943829355e-05
0.00041909830733776
-0.000143702911669012
0.000494355926262386
-0.000209112364829735
0.000591304359571585
-0.000268662628048433
0.000661460565398916
-0.000153269175078427
0.000587164451907939
0.000316895082190645
0.000408901282642001
0.000527965977087217
0.000311014376946897
0.000340001391610496
0.000110448271902222
0.000226337422907528
0.000303316140256144
3.47164299961104e-05
0.00051037181403532
-8.86183593559747e-05
0.000285354617047779
-9.34866992600759e-05
-2.2057404651442e-05
-7.34270312518043e-05
-6.2756288623148e-05
-5.99730705980824e-05
-4.0651594598984e-05
-5.1523338592404e-05
-2.5833687517666e-05
-4.80557983380756e-05
-1.15465400709457e-05
-4.99387112448482e-05
3.73076574040523e-06
-5.67810332894748e-05
1.74316437171442e-05
-6.82964355506469e-05
3.12891313540933e-05
-8.24706062865539e-05
3.90414348222417e-05
-9.74045916520397e-05
4.13378787300199e-05
-0.000111370403879317
3.77438803417508e-05
-0.00012308117562577
2.89266043640236e-05
-0.000132728259542335
2.02910242768476e-05
-0.000140567307845044
1.17983564544293e-05
-0.000148175083773975
6.40137880371693e-06
-0.000162069417168357
1.90831983355925e-05
-0.000194340995040955
8.21657383363268e-05
-0.000245397811639631
0.000170352394237771
-0.000288787236274657
0.000153261506307876
-0.000320175962270983
0.000119040625529783
-0.000343594701042508
9.35708759180711e-05
-0.000361074493673595
7.36356338190277e-05
-0.000374197390404049
5.82472655007516e-05
-0.000383900897222527
4.60373192245127e-05
-0.000390833378350724
3.59929686939726e-05
-0.000395423359263928
2.74771076925618e-05
-0.00039797544130803
2.00148666107213e-05
-0.000398712645289007
1.33340999534162e-05
-0.000397807809747715
7.2418833094283e-06
-0.000395401024577376
1.62838871000288e-06
-0.000391615086590461
-3.58739903902491e-06
-0.000386558408737221
-8.44476928187521e-06
-0.000380323265205292
-1.29756817193048e-05
-0.000372996237968158
-1.72009782510991e-05
-0.000364662018297404
-2.11302582664145e-05
-0.000355404193547191
-2.47619469583308e-05
-0.000345305342249285
-2.80921301566408e-05
-0.000334445285138266
-3.11257355771455e-05
-0.00032290068336606
-3.3870923032741e-05
-0.000310745163032183
-3.63369945356748e-05
-0.000298049662193332
-3.85323741480469e-05
-0.000284882644555976
-4.04650044315599e-05
-0.000271310140943472
-4.21427295807987e-05
-0.000257395607869052
-4.35741824435853e-05
-0.000243199722520368
-4.47690707950305e-05
-0.000228780194189946
-4.57381535297869e-05
-0.000214191529646477
-4.64931844058203e-05
-0.000199484776484272
-4.70476060322335e-05
-0.000184707357350082
-4.74149536607087e-05
-0.000169902746406735
-4.76115699126858e-05
-0.000155110797358946
-4.76512885738229e-05
-0.000140368002287611
-4.75492321926501e-05
-0.000125709735199975
-4.73106559256816e-05
-0.000111170395343326
-4.69381657373832e-05
-9.67813767087486e-05
-4.6443732852555e-05
-8.25704611563012e-05
-4.58406823802069e-05
-6.85611525575798e-05
-4.51471159713343e-05
-5.47731618525808e-05
-4.43778650151819e-05
-4.12226534133588e-05
-4.35483259543454e-05
-2.79246147845375e-05
-4.26644137813487e-05
-1.48947925998515e-05
-4.17237512126551e-05
-2.14881000034351e-06
-4.07265428385569e-05
1.02988342987816e-05
-3.96784090587459e-05
2.24356985866281e-05
-3.85868821103478e-05
3.42523200018056e-05
-3.74635905983904e-05
4.57397879242682e-05
-3.63110078367903e-05
5.68884143667462e-05
-3.51260980668336e-05
6.76886326624013e-05
-3.39106624597297e-05
7.81311000684452e-05
-3.26648119654042e-05
8.82075295727248e-05
-3.13940730009141e-05
9.79093724627798e-05
-3.00973637491513e-05
0.000107226913314844
-2.87707102754567e-05
0.000116149476661488
-2.74113316832447e-05
0.000124665231768281
-2.60152071042249e-05
0.000132761432140754
-2.45795255874694e-05
0.000140423378065039
-2.30980472129704e-05
0.00014763366639507
-2.15603390769741e-05
0.000154371658924266
-1.99575529350843e-05
0.000160612850492223
-1.82730436201774e-05
0.000166327916344682
-1.64956601404659e-05
0.000171481670070395
-1.45963794378791e-05
0.000176030055232255
-1.25586957930305e-05
0.000179919078832989
-1.03239928681343e-05
0.000183079052049348
-7.87892398439046e-06
0.00018542366708364
-5.0966155581676e-06
0.000186834784461222
-1.99352786917571e-06
0.000187165082684176
1.72127605053089e-06
0.000186213783956347
5.89159374474838e-06
0.000183730703329415
1.12863992924226e-05
0.000179331144834907
1.73210879015012e-05
0.000172544074754932
2.59762621734167e-05
0.000162581781912012
3.5215276842959e-05
0.000148582412171674
5.01355578763602e-05
0.000128758553163837
6.45001816393444e-05
0.000104265413665554
8.70387939393623e-05
9.8002512977807e-05
1.25689835979175e-05
0.000108352736250541
-4.43427734006339e-05
0.00012697951021868
-7.11422677310009e-05
0.00015071837849358
-8.84747133232039e-05
0.000178940081843388
-0.000104218103447073
0.000210850403516347
-0.000117325286917502
0.000243829686867692
-0.000117783041434718
0.000275989677681906
-0.000110865375064525
0.000305336884835689
-9.61014295567571e-05
0.000329546464809306
-7.23255246530162e-05
0.000350103953720901
-5.91118487558824e-05
0.000369935895739201
-5.91852949093914e-05
0.000393662129205186
-7.57796763660057e-05
0.000430738316405604
-0.000131569081049723
0.000486151077489831
-0.00019911567216587
0.000564187574629886
-0.000287148861584804
0.000663846660546862
-0.000368321713853475
0.000747291927974571
-0.000236714442505175
0.000707376241904818
0.000356810768284612
0.000549866187606232
0.000685476031403287
0.000454939203719466
0.000447493235607323
0.000191648959497565
0.000313872352026683
0.000436937023873531
8.15702807939796e-05
0.000742673885249079
-8.68535080581741e-05
0.000453778405985573
-0.000109045807246743
1.34894747669363e-07
-8.8444859407293e-05
-8.33572362330261e-05
-7.34433852518413e-05
-5.56530684399269e-05
-6.4199499736624e-05
-3.50775725890912e-05
-6.07198510376125e-05
-1.50261882628631e-05
-6.35979738778588e-05
6.60888916896754e-06
-7.23670540878635e-05
2.62007245976058e-05
-8.64395390298919e-05
4.53616170400076e-05
-0.000103411590437994
5.60134870275524e-05
-0.000121092296894888
5.90185860162407e-05
-0.000137704539390357
5.43561236832857e-05
-0.000152148884465309
4.33709502847627e-05
-0.000164850571730643
3.29927123677264e-05
-0.000176450657613263
2.33984431250155e-05
-0.00018909706083634
1.90477827623538e-05
-0.000209109545324387
3.90956834948168e-05
-0.000245351571614825
0.000118407765228405
-0.000294326177290062
0.000219327000438441
-0.000333438594570362
0.000192373924039762
-0.000360896476527505
0.000146498507872945
-0.000381167035608882
0.000113841435329515
-0.000396105917919185
8.85745164113672e-05
-0.000407133307135416
6.92746549615793e-05
-0.000415036662879136
5.39406751849699e-05
-0.000420371522169194
4.13278281788446e-05
-0.000423501747395744
3.06073330940773e-05
-0.000424691212359278
2.1204331728936e-05
-0.000424135113605438
1.27780013330456e-05
-0.000421988281794859
5.09505161133806e-06
-0.000418380243202912
-1.97964978800226e-06
-0.000413423320950979
-8.54432121057442e-06
-0.00040721400813002
-1.46540820287843e-05
-0.000399838210062537
-2.0351479710288e-05
-0.000391379020982918
-2.56601672423119e-05
-0.00038191825726313
-3.05910218770307e-05
-0.000371537415264829
-3.51427888194736e-05
-0.000360317486167621
-3.93120590839917e-05
-0.000348337150175434
-4.31060713655172e-05
-0.00033567229274986
-4.65357802231484e-05
-0.000322396104965782
-4.96131820596743e-05
-0.000308579362749846
-5.23491160884422e-05
-0.000294290587128397
-5.47537797731281e-05
-0.000279596028572002
-5.68372878640704e-05
-0.000264559486587182
-5.86107241713804e-05
-0.000249242071484027
-6.00864856633733e-05
-0.000233701996743858
-6.12782280594106e-05
-0.000217994316748581
-6.22008642128712e-05
-0.000202170684668424
-6.28712379413334e-05
-0.000186279134834565
-6.33065033338548e-05
-0.000170363816087876
-6.35268885023002e-05
-0.000154465214512918
-6.35498899899589e-05
-0.000138620449718826
-6.33939968225004e-05
-0.000122865466830905
-6.30656386426098e-05
-0.000107235176312635
-6.25684560786926e-05
-9.17615129197265e-05
-6.19173960645403e-05
-7.64727569009291e-05
-6.11294382169104e-05
-6.13929758244021e-05
-6.02268968678261e-05
-4.65424173095012e-05
-5.9228423355991e-05
-3.19378124907656e-05
-5.81529306094862e-05
-1.75946608208542e-05
-5.70075653030712e-05
-3.52917352124774e-06
-5.57892383838192e-05
1.02423738534887e-05
-5.44980901070788e-05
2.37048665585827e-05
-5.3140901679261e-05
3.68455655026998e-05
-5.17275809861457e-05
4.96546388592863e-05
-5.02726638934225e-05
6.21227779405652e-05
-4.87791468518666e-05
7.42399271531772e-05
-4.72432471980306e-05
8.59960784683822e-05
-4.56668136719067e-05
9.73814950233024e-05
-4.4050228396025e-05
0.0001083874157898
-4.23999936293942e-05
0.000119004848006576
-4.07147958273601e-05
0.000129223615236395
-3.89894773815237e-05
0.000139032535713047
-3.72202520640785e-05
0.00014841926890149
-3.54019402314313e-05
0.000157370521625401
-3.35307782829194e-05
0.000165871014695167
-3.15985402772751e-05
0.000173902784298714
-2.95921086829267e-05
0.000181444491331116
-2.7499259961452e-05
0.00018847107821242
-2.52996304736674e-05
0.00019495240008249