/*--------------------------------*- C++ -*----------------------------------*\
  =========                 |
  \\      /  F ield         | OpenFOAM: The Open Source CFD Toolbox
   \\    /   O peration     | Website:  https://openfoam.org
    \\  /    A nd           | Version:  7
     \\/     M anipulation  |
\*---------------------------------------------------------------------------*/
FoamFile
{
    version     2.0;
    format      ascii;
    class       volSymmTensorField;
    location    "20000";
    object      tauij_B;
}
// * * * * * * * * * * * * * * * * * * * * * * * * * * * * * * * * * * * * * //

dimensions      [0 2 -2 0 0 0 0];

internalField   nonuniform List<symmTensor> 
15600
(
(2.21783075961185e-06 -1.14725661252262e-08 3.39099179926996e-30 2.21809577578104e-06 -2.5895783544217e-31 2.21792321132777e-06)
(1.53141902621674e-06 -8.51542748022839e-09 -3.16247103349154e-32 1.5334246936495e-06 -1.80701012710998e-30 1.53243731779841e-06)
(6.28385547041375e-07 -3.10802902879805e-10 5.5370818086305e-31 6.28491954335178e-07 3.31382590244698e-30 6.28423477304042e-07)
(1.34250126324144e-07 3.17691412971904e-10 -2.0858746292019e-31 1.3342291069013e-07 -3.38124696029864e-31 1.33831623978251e-07)
(8.45439319651298e-08 1.09535477807427e-10 5.23889856370743e-28 8.40179468505758e-08 -3.43540465530586e-30 8.42785831793639e-08)
(7.61541046712173e-08 4.34517325709474e-11 -3.25525903573744e-27 7.58153486055782e-08 -4.15027238292617e-27 7.59835130959683e-08)
(3.5360586973008e-08 1.1788672942389e-11 -2.4047046582259e-28 3.52339228719681e-08 4.74378662030378e-30 3.52967716197655e-08)
(2.01257671147026e-08 5.00691220991691e-12 -3.58525654573907e-31 2.00695086561676e-08 -3.58651612871483e-31 2.00974996184454e-08)
(1.5001853276955e-08 3.68385085515092e-12 3.78847648969608e-27 1.49658599838226e-08 4.09629297298749e-27 1.49837956356785e-08)
(1.47690825076816e-08 3.7743686064146e-12 5.51839938056645e-27 1.47357361433145e-08 6.26363649171473e-27 1.47524012996649e-08)
(1.84129043081077e-08 5.42050804247939e-12 -2.28325887153361e-27 1.83680932463766e-08 -2.15425360616158e-27 1.83905069968721e-08)
(2.54758449850824e-08 9.19355984388637e-12 -4.7575283774291e-28 2.54024980812922e-08 4.24519210849354e-29 2.54392290688974e-08)
(3.73407521552837e-08 1.74985840626565e-11 -9.17790915006599e-28 3.7206674667094e-08 1.05389039229348e-28 3.72737623553903e-08)
(5.50093236081782e-08 3.50855683971295e-11 -1.44166197102085e-26 5.47705692332159e-08 -1.93111329504537e-26 5.48899897881355e-08)
(7.95757800425369e-08 7.22159585698523e-11 -3.57405905978247e-26 7.91766471632753e-08 -4.65801562751794e-26 7.93761947886323e-08)
(1.10900135089674e-07 1.41051809739047e-10 -6.98293587386984e-26 1.10308127632072e-07 -1.03596354261491e-25 1.10604125476667e-07)
(1.46690889935136e-07 2.51132505084817e-10 5.35343238893463e-27 1.45931751091391e-07 -3.44944792290331e-28 1.46311738663992e-07)
(1.8440656854554e-07 3.93617893591695e-10 -5.91367143184975e-26 1.83570883006802e-07 -1.2023604774759e-25 1.83989854926197e-07)
(2.19700526573244e-07 5.32615496703849e-10 1.19672235039908e-26 2.18939194437025e-07 -1.26841503670715e-27 2.19321882447317e-07)
(2.43763434466365e-07 6.05308212044359e-10 -5.94652666251009e-29 2.43245350744258e-07 -2.83918329482453e-28 2.43506849666e-07)
(2.6355853325134e-07 6.59052145333677e-10 1.56587976109784e-28 2.63293697343562e-07 3.05983868384169e-28 2.63426032034109e-07)
(3.3082738300575e-07 1.3483811589527e-09 1.05290489549563e-28 3.3069056727723e-07 -8.57607565016859e-28 3.30764584775537e-07)
(4.99062842374612e-07 3.22708795982347e-09 -2.40637390247189e-28 4.98888974734862e-07 2.32083143695563e-29 4.98978082373321e-07)
(6.92254766237252e-07 5.67578992112419e-09 0 6.92049643049378e-07 0 6.92160131771751e-07)
(8.98531378339686e-07 8.76419806862593e-09 0 8.98300432483865e-07 0 8.98424710580791e-07)
(1.10988462102253e-06 1.22039495190384e-08 3.77325741862877e-24 1.10964037989955e-06 -3.25605884208084e-25 1.10977557132924e-06)
(1.32483115981999e-06 1.59545494990083e-08 1.34471131934473e-23 1.32457923216667e-06 -2.05807838902214e-23 1.32472122230359e-06)
(1.54022603331352e-06 1.98770453103e-08 5.74732349357793e-24 1.53997100279964e-06 -2.08537951427715e-23 1.54011868737687e-06)
(1.75604022174563e-06 2.39322738608116e-08 -6.2135696763462e-24 1.75578533460062e-06 5.02544132693953e-25 1.75593673337313e-06)
(1.97098182609656e-06 2.80438615144402e-08 -1.43811039151031e-28 1.97073025208748e-06 2.35600788828262e-27 1.9708841520979e-06)
(2.18471523825345e-06 3.21667876583894e-08 9.18065518587926e-24 2.18447037672046e-06 -6.77914870580589e-25 2.18462490460001e-06)
(2.39628077801884e-06 3.62402878827282e-08 3.1292442138603e-23 2.39604631117825e-06 -4.09844637112242e-23 2.39619962870459e-06)
(2.60500652615656e-06 4.02135966799381e-08 1.21373196817466e-23 2.6047863918687e-06 -4.03792089004487e-23 2.60493630142227e-06)
(2.81008475160844e-06 4.40332584763915e-08 -1.24376815486466e-23 2.80988288042523e-06 8.6022044195319e-25 2.81002721655952e-06)
(3.01104107827433e-06 4.76549350409737e-08 -1.35555331603212e-28 3.0108613773799e-06 -4.30847217141572e-27 3.01099787813725e-06)
(3.20806498827778e-06 5.10468779872379e-08 3.88205309366851e-30 3.20791121073587e-06 -1.98324442666583e-27 3.20803767123078e-06)
(3.40199292796705e-06 5.41916603662564e-08 3.02175234695347e-28 3.40186865681997e-06 2.08417157230874e-27 3.40198287548496e-06)
(3.59028649449076e-06 5.70217041604209e-08 -1.95546886664832e-23 3.59019509294864e-06 1.09186926918522e-24 3.59029493001382e-06)
(3.7687374995654e-06 5.94476294449076e-08 -5.42262416375567e-23 3.76868194178638e-06 7.82490338566813e-23 3.76876537005639e-06)
(3.93530631093572e-06 6.14219204937711e-08 -1.24653669122411e-23 3.93528882678233e-06 7.70924280018371e-23 3.93535415811244e-06)
(4.08906914468844e-06 6.29230972417726e-08 2.33919077977772e-23 4.08909106684983e-06 -1.18037006078098e-24 4.08913706509978e-06)
(4.22940304436032e-06 6.39423620154568e-08 -7.33294972191865e-28 4.22946490195744e-06 -3.89549651679081e-27 4.22949074262337e-06)
(4.35590224877361e-06 6.44812134657566e-08 -1.10331109109254e-28 4.35600385227338e-06 -6.99827179395597e-27 4.35600909888099e-06)
(4.46833805052636e-06 6.4550022928159e-08 7.07772188927085e-28 4.46847857013747e-06 3.63060076567034e-27 4.46846313996817e-06)
(4.56661704479696e-06 6.41665367394342e-08 -2.73074364533242e-28 4.56679506008314e-06 1.10891384915355e-29 4.56675921061053e-06)
(4.65077956511805e-06 6.33551139508187e-08 3.56278938144792e-23 4.65099311954458e-06 -1.26594570009773e-24 4.65093742564131e-06)
(4.72099651370432e-06 6.21457998118047e-08 7.30650973963678e-23 4.72124317633447e-06 -1.42423764899127e-22 4.72116850570578e-06)
(4.77757335615243e-06 6.0573439636441e-08 -1.88026589250059e-24 4.7778503038878e-06 -1.42544639313067e-22 4.77775777815028e-06)
(4.82094083258334e-06 5.86764905688717e-08 -3.83383314067347e-23 4.82124494429342e-06 1.17056945743394e-24 4.82113589306114e-06)
(4.85164165075762e-06 5.64958099332458e-08 1.33479754719459e-41 4.85196960142949e-06 6.36506944357022e-27 4.85184551317178e-06)
(4.87031409697266e-06 5.40734909394935e-08 1.3607178277838e-41 4.87066244887674e-06 -3.257159461246e-27 4.87052492650079e-06)
(4.87768492052649e-06 5.14517863894968e-08 4.29613542708773e-23 4.87805022686545e-06 -8.75755345143514e-25 4.87790092437407e-06)
(4.87452649654903e-06 4.86719128245558e-08 7.0942721980306e-23 4.87490536058565e-06 -1.84015888177699e-22 4.87474596260339e-06)
(4.86167889703928e-06 4.57734546005933e-08 -1.75937889164003e-23 4.8620680934614e-06 -1.86547037238516e-22 4.86190022830088e-06)
(4.83993289227098e-06 4.27928025058145e-08 -4.38461548795563e-23 4.84032936421525e-06 6.67697626289927e-25 4.84015462563087e-06)
(4.81006975636134e-06 3.97632420418734e-08 -2.35481059917867e-29 4.81047072526848e-06 3.35839015553411e-27 4.81029058222557e-06)
(4.77267010449918e-06 3.67134079794702e-08 -1.7321834041495e-28 4.77307292475154e-06 -2.6133219105392e-27 4.77288880144159e-06)
(4.72828974361547e-06 3.36702472811794e-08 6.55505576473712e-29 4.7286918215404e-06 2.65760195842024e-28 4.72850514756956e-06)
(4.67769433655628e-06 3.06598406060957e-08 3.06704326018778e-29 4.67809331090578e-06 -1.11472466866187e-28 4.67790540400124e-06)
(4.62168853087972e-06 2.77053012536771e-08 -3.24404038669612e-29 4.62208230745767e-06 -8.70441066728838e-28 4.62189437671906e-06)
(4.56116187978863e-06 2.4826603546721e-08 2.66870698252121e-29 4.56154874230444e-06 0 4.5613618015142e-06)
(4.49687759984925e-06 2.20392532419548e-08 -5.64828170316484e-29 4.49725614720371e-06 -2.86710261833168e-31 4.49707106685865e-06)
(4.42958071776732e-06 1.93553580443195e-08 4.85404313298185e-29 4.42994989327793e-06 -7.60380286717463e-28 4.42976736275058e-06)
(4.35976163862875e-06 1.67828560994725e-08 6.1827713950579e-29 4.36012059455438e-06 7.50350935705967e-28 4.35994119497298e-06)
(4.28762892991569e-06 1.43273058552589e-08 -5.39350971689661e-29 4.28797686977338e-06 -5.47555757442961e-31 4.28780115259697e-06)
(4.21349935955672e-06 1.19939596656851e-08 0 4.21383555603419e-06 0 4.21366403619782e-06)
(4.13769073871033e-06 9.78680951576796e-09 0 4.13801460068542e-06 0 4.13784771642467e-06)
(4.06071107098504e-06 7.7088119296849e-09 0 4.06102218276813e-06 0 4.06086027994863e-06)
(3.9830298279268e-06 5.76096591307348e-09 6.40579480854163e-39 3.98332800084354e-06 1.4632294235823e-40 3.98317129420127e-06)
(3.90460767786854e-06 3.9419182731152e-09 2.71465826101398e-40 3.90489288420305e-06 -4.22547114549171e-27 3.90474145761172e-06)
(3.82580923524107e-06 2.25079224148168e-09 -6.16165940128727e-39 3.82608147879117e-06 4.16471237204962e-27 3.82593539780576e-06)
(3.74650818242742e-06 6.85703407446585e-10 -4.70302037645968e-23 3.74676742544614e-06 -1.43236928444753e-24 3.74662680508827e-06)
(3.66683183504875e-06 -7.55191285611551e-10 -9.24361276178901e-23 3.6670780591172e-06 2.61713662530085e-22 3.66694301511911e-06)
(3.58695420841142e-06 -2.07435002364695e-09 1.58691823325545e-24 3.58718748601821e-06 5.2290959315848e-22 3.58705807972405e-06)
(3.50689270762981e-06 -3.27475268176114e-09 9.06031913055783e-23 3.50711310850541e-06 2.62622819542276e-22 3.50698941251429e-06)
(3.42663561687294e-06 -4.35919390713111e-09 4.36806455570796e-23 3.42684321536607e-06 1.67626898447974e-24 3.4267252886452e-06)
(3.34614658928277e-06 -5.33045158689487e-09 -1.20125135519838e-27 3.3463414944335e-06 -2.20797598573074e-30 3.34622935931313e-06)
(3.26536814683647e-06 -6.19122347365829e-09 4.10428515180357e-28 3.26555046304434e-06 -3.11742299471081e-27 3.26544413812427e-06)
(3.18425806235846e-06 -6.94410473863291e-09 -4.25171656304281e-23 3.18442791145113e-06 -2.0524133700809e-24 3.18432740154549e-06)
(3.10273011254634e-06 -7.59178727962707e-09 -3.72380894630823e-23 3.10288760461251e-06 2.2037822822542e-22 3.10279290722399e-06)
(3.02061429324343e-06 -8.13612297851204e-09 4.48064967541524e-23 3.02075949396869e-06 2.29467043521136e-22 3.02067063895992e-06)
(2.93776227736222e-06 -8.57928700337438e-09 3.92218216764879e-23 2.93789524689177e-06 2.09047004400388e-24 2.93781223557803e-06)
(2.85389388340454e-06 -8.92196087567933e-09 -3.58889404299097e-28 2.85401460146766e-06 -2.09500645609738e-29 2.85393751376561e-06)
(2.7688369483074e-06 -9.16611829380245e-09 1.06934457847927e-27 2.76894540661623e-06 -4.69748026145221e-27 2.76887424632751e-06)
(2.68214585090371e-06 -9.31047488142698e-09 -4.0210099209596e-28 2.68224189436686e-06 9.01744238267318e-28 2.68217684312035e-06)
(2.5936281509849e-06 -9.35756516150767e-09 -2.77301081825442e-28 2.5937116661337e-06 3.54170278936134e-27 2.59365271106783e-06)
(2.50244183505635e-06 -9.3015611013967e-09 -4.99536622293176e-29 2.50251240179008e-06 -3.48641100190592e-27 2.50245996635959e-06)
(2.40853543824735e-06 -9.14830220417329e-09 -1.20631043318573e-27 2.40859284647609e-06 3.26965336885398e-27 2.40854678624592e-06)
(2.31020954274056e-06 -8.88184143924365e-09 6.27818379702074e-28 2.31025291456875e-06 -1.96856273548939e-26 2.31021418662674e-06)
(2.20879472507727e-06 -8.52260550090498e-09 5.70907657240386e-28 2.20882399431027e-06 2.20757080592283e-26 2.20879188736361e-06)
(2.10692787585133e-06 -8.05568604579244e-09 1.12053737976534e-27 2.10694142472902e-06 -1.05462552211132e-26 2.10691801864964e-06)
(2.00253836654735e-06 -7.51373476348949e-09 -5.93849199682222e-28 2.00253636507147e-06 1.44789078843057e-26 2.00251956805665e-06)
(1.88920868250712e-06 -6.803878294428e-09 -9.72008850048787e-28 1.88918748207241e-06 2.76668932970382e-27 1.88918255031342e-06)
(1.77096746398516e-06 -6.05119861914833e-09 9.53977123188346e-28 1.77092895540334e-06 -9.06138186604213e-27 1.77092965228568e-06)
(1.63495494868008e-06 -5.0396935888871e-09 -1.55119856632901e-29 1.63489236899501e-06 -2.50432150244861e-27 1.63491084171623e-06)
(1.49506324660734e-06 -4.10916806570731e-09 -8.14841135815722e-28 1.49498443948762e-06 -9.16988731255069e-29 1.49500349680312e-06)
(1.32136693286832e-06 -2.76928928287703e-09 -4.1428963490561e-23 1.32126076887073e-06 -3.88123280337905e-24 1.32130697038478e-06)
(1.15590844007292e-06 -1.84533069595351e-09 -3.38823854999871e-23 1.15579886232418e-06 2.01510733688939e-22 1.15583023334069e-06)
(9.19675231894663e-07 -3.46798611483857e-10 2.84864572887429e-23 9.19510604121639e-07 1.86271199126817e-22 9.19593055689225e-07)
(1.04340700400016e-06 5.0788094664733e-10 3.23032187864769e-23 1.04358678219996e-06 3.18709156208504e-24 1.04348503814187e-06)
(1.46180393806413e-06 -8.25953570520177e-11 -5.26199002798926e-25 1.46188022582626e-06 2.56679229615962e-24 1.46185715321057e-06)
(1.8973563647271e-06 -1.41067376437455e-09 -5.58259341707567e-25 1.89561496747432e-06 4.93831202020318e-24 1.89652034671717e-06)
(2.30071951935068e-06 -3.34010824363148e-09 6.94377998776192e-25 2.29414789685373e-06 -3.08172845904468e-24 2.29748402940372e-06)
(2.67440597983437e-06 -5.26210523215423e-09 -2.64755176199095e-24 2.65952374914678e-06 2.78560408922702e-24 2.66700758581096e-06)
(3.00300409653734e-06 -6.91220427633309e-09 -1.4527727169227e-24 2.97604688110625e-06 2.77879396090086e-24 2.98951387398303e-06)
(3.17014833028195e-06 -7.86438692841045e-09 1.0461669500236e-23 3.13025514172659e-06 -1.48596603548263e-23 3.15011298481276e-06)
(3.20653527334547e-06 -8.27113515695804e-09 -4.18110043508845e-25 3.15557604843404e-06 2.29415416132581e-24 3.18088693916787e-06)
(3.13292116344097e-06 -8.50193407155074e-09 1.76611476761759e-24 3.07421361271265e-06 -1.88067198889925e-24 3.10333672848665e-06)
(2.94337539002454e-06 -8.42944490763517e-09 -3.58276814845072e-24 2.88221250067742e-06 3.84291972624697e-24 2.91255175263205e-06)
(2.78105006011916e-06 -7.97987786234938e-09 2.06898684242807e-24 2.71958565415511e-06 -3.22705101450721e-24 2.75007288216805e-06)
(2.7037916166417e-06 -7.51930478674856e-09 5.2419883984241e-24 2.64045677643691e-06 -6.27382254920798e-24 2.67185101316362e-06)
(2.71743851174871e-06 -7.06843591249683e-09 -4.5274135558309e-24 2.64985875652125e-06 6.26460732823116e-24 2.6833371564768e-06)
(3.02145376280133e-06 -7.52738770631353e-09 -1.90748619189527e-24 2.93845718542928e-06 2.91905546368956e-24 2.97947555126079e-06)
(3.55743861458505e-06 -1.07151938666237e-08 -7.21161054770231e-26 3.44465129615449e-06 -1.58476133177961e-27 3.50028382792074e-06)
(4.53773948985535e-06 -2.22637298775315e-08 1.28398140797532e-24 4.36670951620101e-06 -1.5665892957723e-24 4.45092845590769e-06)
(6.02002530642714e-06 -5.66999234676387e-08 -9.3631191467575e-25 5.75136827520337e-06 -1.16866757226307e-24 5.88356099919001e-06)
(6.23686522186053e-06 -1.16908183916391e-07 4.43156874287353e-26 5.94328822720476e-06 -2.87267210343075e-25 6.0877269446383e-06)
(4.25882577214462e-06 -1.05589496012534e-07 -5.1746262041394e-26 4.14609234812575e-06 1.97947856995616e-25 4.20190615039725e-06)
(2.66571799557362e-06 -3.97477972455584e-08 -3.787239201461e-26 2.65236522990025e-06 5.86788425036751e-26 2.65894886713739e-06)
(2.0447102520249e-06 -1.05100642512312e-08 5.82942094457632e-27 2.0439910348185e-06 -1.34907378786363e-29 2.04435491801195e-06)
(7.11623087482321e-05 -3.12922259415905e-06 -6.59330319087342e-28 7.11707636379129e-05 1.48703188170944e-29 7.1157126737443e-05)
(4.93631046386194e-05 -1.93769716287946e-06 4.3706799388954e-26 4.97121294433451e-05 6.54101805010575e-25 4.95430135614145e-05)
(2.04202519825786e-05 -2.5510006859695e-07 4.21003555215871e-29 2.05358547822e-05 -1.71049113362253e-28 2.04800953506382e-05)
(4.52540011159724e-06 4.04312489946853e-08 4.77538920601593e-29 4.40151986835037e-06 1.06650188080622e-28 4.46432133337519e-06)
(2.78612863687705e-06 1.80518498568966e-08 -1.54182184643743e-25 2.70022468053851e-06 1.0191586179116e-27 2.74354139533571e-06)
(2.51242418743656e-06 7.87330183237069e-09 5.97085742037114e-26 2.45507007639712e-06 1.13799744229921e-24 2.48400176342996e-06)
(1.18423912926465e-06 2.23107371130371e-09 7.18771759379556e-26 1.16204844244034e-06 -1.59718205141811e-27 1.173215580239e-06)
(6.69314806233153e-07 9.93709760530687e-10 8.21815544779777e-25 6.59183096840302e-07 8.91806367394731e-25 6.64276316250951e-07)
(4.93833831723613e-07 7.25743749658717e-10 7.97281020031669e-26 4.87219477000757e-07 -1.6513559670153e-26 4.9053479592247e-07)
(4.81690895187824e-07 7.33721447728949e-10 -1.76802493173005e-24 4.75422899349855e-07 -2.10143036793321e-24 4.78560415247192e-07)
(5.97099683412048e-07 1.0282599352878e-09 2.30627315558496e-25 5.88559940418695e-07 4.48084702325243e-25 5.92825099190132e-07)
(8.24388368432586e-07 1.69987571858195e-09 1.40112698783865e-25 8.10370845984446e-07 -1.08963101329914e-26 8.17373448341713e-07)
(1.20894193734054e-06 3.16456572795626e-09 5.45611553012202e-28 1.18363745323215e-06 1.05736418457745e-27 1.19628041604597e-06)
(1.78476352804495e-06 6.34200815673968e-09 2.15056835536302e-24 1.74014959408951e-06 3.56632226997853e-24 1.76245753714056e-06)
(2.58939633131512e-06 1.31694777385997e-08 1.11490635123445e-23 2.51540911049907e-06 1.75210904086663e-23 2.55242624920324e-06)
(3.61987656571377e-06 2.63626847247672e-08 2.16161955371472e-23 3.50948993080209e-06 3.37012939994389e-23 3.56470553090964e-06)
(4.79926669617436e-06 4.85849416580989e-08 2.9375854658837e-27 4.65458048297598e-06 6.95168324403903e-27 4.72691416604416e-06)
(6.033408258329e-06 7.95335894659693e-08 2.27012565911088e-23 5.86851643533804e-06 5.54684693502539e-23 5.9508651181721e-06)
(7.17775067764364e-06 1.14142625596103e-07 7.03762338215355e-24 7.0196895723907e-06 2.18149825477077e-23 7.09858616248319e-06)
(7.94536257252596e-06 1.42631687636073e-07 1.87560595269613e-27 7.82577697920963e-06 -2.05425327845229e-27 7.88546741938701e-06)
(8.59943117785164e-06 1.79999731808808e-07 -2.33172682966749e-26 8.51814332633965e-06 6.10607225264521e-26 8.55803837250024e-06)
(1.07693094243883e-05 3.16260105798384e-07 -2.75830914659494e-26 1.07082131133925e-05 -4.85751352524635e-25 1.0739439397876e-05)
(1.62163508736058e-05 6.50985308819237e-07 6.60292431018607e-26 1.61333988400372e-05 -6.36820167436974e-27 1.61736984549664e-05)
(2.24626123493112e-05 1.07891830945849e-06 0 2.23700730678125e-05 0 2.24157379217139e-05)
(2.91277397181848e-05 1.58843463030468e-06 0 2.90285674820797e-05 0 2.9076439020709e-05)
(3.59490499052093e-05 2.14128460828191e-06 -9.85615646624296e-22 3.58499769822894e-05 8.50517784778059e-23 3.5897460996894e-05)
(4.28825010037113e-05 2.72775474087543e-06 -2.81044748622802e-21 4.27860537569407e-05 -1.1713692116417e-20 4.28314012654032e-05)
(4.9825955745778e-05 3.329017766905e-06 -6.1828051864885e-22 4.97347160943141e-05 -1.43841185389223e-20 4.97768719505889e-05)
(5.67797803257608e-05 3.93849453439806e-06 1.5702965473947e-21 5.66953437119526e-05 -1.27554015720025e-22 5.67333728580883e-05)
(6.3702137277705e-05 4.54548375155718e-06 1.09225584864668e-25 6.36261935654351e-05 1.28123781826574e-26 6.36593413566865e-05)
(7.05826993672392e-05 5.14325797966018e-06 -2.33173516697752e-21 7.05168216338825e-05 1.72021210226207e-22 7.05442859240088e-05)
(7.73906306913954e-05 5.72335546479824e-06 -6.45473160278733e-21 7.73364613529395e-05 -2.61778282530997e-20 7.73574848775812e-05)
(8.41046470047266e-05 6.27877172337831e-06 -1.39694991907367e-21 8.40637726107788e-05 -3.03563980401109e-20 8.40776005743737e-05)
(9.0699006428052e-05 6.80241151373588e-06 3.08366509214284e-21 9.06729323584063e-05 -2.11244900148611e-22 9.06788846130152e-05)
(9.71587733450351e-05 7.2885765769853e-06 -2.50786145789708e-25 9.7148896281845e-05 -2.07358847282512e-26 9.71463378399021e-05)
(0.000103490389457239 7.73357875078654e-06 6.61763107461359e-26 0.00010349797305651 3.57247317617335e-25 0.000103486342249629)
(0.000109721321922619 8.13583809630999e-06 5.88149674121448e-37 0.000109747426075728 4.43999821832335e-25 0.0001097262737662)
(0.000115741370329505 8.48452995647558e-06 4.9059639584932e-21 0.000115786803534073 -2.74799982200956e-22 0.000115755831973825)
(0.000121407299146371 8.76735973226154e-06 1.13527086830944e-20 0.000121472541419803 5.3500007939861e-20 0.000121431618046123)
(0.000126689235133066 8.98147628887605e-06 7.80014909708825e-22 0.000126774372645637 5.92312101953338e-20 0.000126723559414396)
(0.000131559445308004 9.12526850633809e-06 -5.77405193521237e-21 0.00013166416256703 2.91984508755435e-22 0.000131603721071868)
(0.000135999550795372 9.19878739971735e-06 -1.45326227098504e-25 0.000136123191625471 5.44808629021594e-25 0.000136053546776617)
(0.000139997908988331 9.20340510429678e-06 6.01226378503339e-26 0.000140139532724964 6.20507201685566e-25 0.000140061244240743)
(0.000143548319858218 9.1416024829127e-06 -4.6954548080048e-41 0.000143706747017015 -6.93873996020894e-25 0.000143620484033942)
(0.000146648766559661 9.01676284860105e-06 -1.36879216941923e-39 0.00014682261359604 7.14473135580078e-25 0.000146729136957331)
(0.000149301352956702 8.8330566182186e-06 -9.02462049034517e-21 0.000149489066489264 3.20666710304331e-22 0.000149389210374115)
(0.00015151220803851 8.59531089422974e-06 -1.59949682427017e-20 0.000151712101663985 -9.46341898875785e-20 0.000151606755052806)
(0.000153291584639572 8.30888454655886e-06 2.94021818271469e-21 0.000153501880983065 -1.00053286820748e-19 0.000153391966360703)
(0.000154653556783953 7.97951230366666e-06 9.65464240985762e-21 0.000154872431251584 -2.9402416676146e-22 0.000154758883083872)
(0.000155615603460265 7.61314978227748e-06 -1.36212900397605e-26 0.000155841225412374 4.52628990803359e-26 0.000155724969949645)
(0.000156198109302394 7.21582339150069e-06 -1.79147558291168e-25 0.000156428680976646 -1.84764158107396e-26 0.000156310618343413)
(0.000156424104467196 6.79350163738311e-06 -1.11310129012126e-20 0.000156657898987992 2.25982719436933e-22 0.000156538883708342)
(0.000156318020814779 6.35194185994854e-06 -1.63714931148013e-20 0.000156553408432665 -1.12858510971581e-19 0.000156434240344926)
(0.000155906231033364 5.89662645842577e-06 6.47750058471313e-21 0.000156141715018442 -1.1621875288638e-19 0.000156023118335655)
(0.000155213619985703 5.43257495372113e-06 1.13628094678353e-20 0.000155447838030844 -1.73034893685312e-22 0.00015533046771846)
(0.000154264555179885 4.96436567957803e-06 -1.51374522443277e-26 0.000154496296794579 -5.31815380414872e-25 0.000154380725014563)
(0.000153077285950435 4.49599949155147e-06 -2.56342364075267e-26 0.000153305428671292 1.1071156045324e-25 0.000153192180628611)
(0.000151669438429999 4.0312042166724e-06 2.56594626492597e-26 0.000151892927059054 4.26059667396338e-25 0.000151782493959539)
(0.000150065028378609 3.57351322772659e-06 -2.44099638959977e-26 0.00015028294082565 -7.19757159322815e-26 0.000150175742794662)
(0.000148289349218644 3.1260239815003e-06 4.54950604065558e-27 0.00014850091442145 6.46923057497694e-26 0.000148397298490273)
(0.000146370202319084 2.69137416525544e-06 7.15574411636525e-27 0.000146574828690274 0 0.000146475049613385)
(0.000144331531197817 2.27161641444145e-06 0 0.000144528782228989 -1.54857665938065e-25 0.000144433021187528)
(0.000142196636805153 1.86833451928813e-06 2.93995534700277e-40 0.000142386226531881 -1.88047510865074e-26 0.000142294589426143)
(0.000139980936536809 1.48261652376837e-06 5.77410993771489e-40 0.000140162663740997 4.89747552616922e-25 0.000140075216154586)
(0.000137691070018132 1.11528130919326e-06 0 0.000137864752806059 -3.14523196757121e-25 0.000137781552305522)
(0.000135337133324132 7.6705551494357e-07 0 0.000135502622726745 0 0.000135423712781271)
(0.000132929102687724 4.38472423859476e-07 1.85768552293166e-39 0.000133086311453549 -6.464416488949e-25 0.000133011704654516)
(0.000130483061919667 1.29861519005835e-07 0 0.000130631990905918 6.41551995469918e-25 0.000130561653200937)
(0.000128013774969129 -1.58717986080584e-07 -6.24895795942054e-26 0.000128154517858073 -1.42740431532795e-27 0.000128088367275745)
(0.00012551987239796 -4.27399694522796e-07 6.01677521441423e-26 0.000125652522246057 -2.69901696510796e-26 0.000125590490180849)
(0.000123013125885844 -6.76355323282422e-07 6.14609030346463e-26 0.000123137774505849 2.96687907618933e-26 0.000123079801102573)
(0.000120489413160065 -9.05784750976753e-07 1.32484504044155e-20 0.000120606165148144 4.03499856795175e-22 0.000120552182208946)
(0.000117952831149258 -1.11595364776059e-06 2.60902231149167e-20 0.00011806180447658 1.23007997376997e-19 0.000118011741427599)
(0.000115408870342551 -1.30723843649416e-06 -1.89858027708479e-22 0.000115510226248719 2.41071860368617e-19 0.000115463986830378)
(0.000112858218897139 -1.48003926330808e-06 -2.53600792900017e-20 0.000112952124074312 1.17759098097041e-19 0.0001129096102421)
(0.000110300210609241 -1.63472605725321e-06 -1.23393408079681e-20 0.00011038681975731 -4.70735660210402e-22 0.000110347941244995)
(0.000107733895074952 -1.77166431333335e-06 2.35237178970802e-27 0.000107813357160893 -8.56462530031295e-27 0.00010777802845083)
(0.000105157479889953 -1.89120226501243e-06 -1.19812891405221e-25 0.000105229934076034 2.02058704482074e-24 0.000105198075958817)
(0.00010256962363313 -1.99368667617402e-06 1.17436685151237e-20 0.000102635208196959 5.6529395724727e-22 0.000102606743703852)
(9.99675955366299e-05 -2.0794525398622e-06 1.08375092313106e-20 0.000100026432625164 1.10433767971069e-19 0.000100001291927962)
(9.73460793241182e-05 -2.14871008363208e-06 -1.19723971299859e-20 9.73982682353208e-05 1.064360672317e-19 9.73763977092796e-05)
(9.47002755933282e-05 -2.20169155030672e-06 -1.09871616796755e-20 9.47458951288273e-05 -5.86677133482262e-22 9.47272453671934e-05)
(9.20214377241924e-05 -2.23841367259384e-06 0 9.20605387060968e-05 -2.12677616514244e-24 9.20450854874946e-05)
(8.930385472609e-05 -2.25904442711287e-06 -1.94294794250481e-25 8.93364627069108e-05 2.93409168879881e-24 8.93241779100382e-05)
(8.65337227227216e-05 -2.26330037556637e-06 2.16247713901102e-25 8.6559828297548e-05 -4.67805311299005e-24 8.65507286025552e-05)
(8.37043485257811e-05 -2.25134538553217e-06 -2.97038578891832e-26 8.37238949129918e-05 3.71734349239324e-24 8.37179765029155e-05)
(8.07898757310353e-05 -2.22221824901015e-06 3.03209549116732e-26 8.08027596550389e-05 -1.70411968096603e-24 8.08001141511146e-05)
(7.77870973896723e-05 -2.17639247275428e-06 -2.93291402036219e-26 7.77931443932211e-05 -2.49857837099893e-25 7.77937788761405e-05)
(7.46443205519594e-05 -2.11145146323318e-06 1.97139244891742e-25 7.46433120885057e-05 3.27656632288689e-24 7.46474519098674e-05)
(7.13915829604752e-05 -2.02965075898885e-06 -5.16066545064398e-26 7.13832181030011e-05 -1.61859073704381e-24 7.13908067788454e-05)
(6.81093081318765e-05 -1.93068029002474e-06 -2.81881692626903e-25 6.8093248387364e-05 1.61913624794929e-24 6.81047808971212e-05)
(6.47468577007853e-05 -1.817109722345e-06 2.95527307051319e-25 6.47224678826514e-05 -2.65703063299847e-24 6.47377120861663e-05)
(6.10950614256709e-05 -1.67612140761313e-06 -1.61263238746507e-25 6.10618119098439e-05 1.32293073181236e-24 6.10819010006151e-05)
(5.72872647999268e-05 -1.52223137384426e-06 -2.48864065079303e-25 5.72441188416175e-05 1.42160282295983e-24 5.72681323312819e-05)
(5.29028004544342e-05 -1.32683870474284e-06 1.35906308922911e-25 5.28496468974644e-05 -3.99085603851436e-24 5.28798915745808e-05)
(4.83987108451834e-05 -1.13180347426394e-06 3.45402972440247e-25 4.83343418487838e-05 1.30497378736904e-26 4.83678081186654e-05)
(4.27936706915325e-05 -8.72556028776099e-07 1.16120179757153e-20 4.27205429464869e-05 1.09265120568372e-21 4.27614671916794e-05)
(3.74698798356544e-05 -6.57283257151233e-07 1.00999711094248e-20 3.73874413882686e-05 9.7210138309327e-20 3.74278882241854e-05)
(2.98515015974615e-05 -3.47582372770205e-07 -8.43174089135999e-21 2.97583382240449e-05 7.51875025907121e-20 2.98089072628038e-05)
(3.39382910991962e-05 -2.74174210220464e-07 -9.44420762286654e-21 3.38254567152395e-05 -9.35066009829275e-22 3.3880771865705e-05)
(4.74857877809777e-05 -4.65889227294744e-07 1.12646266576082e-22 4.71719341582941e-05 -2.7903911451918e-22 4.73284733468532e-05)
(6.17107344608355e-05 -7.45276211170994e-07 -4.92515154287781e-23 6.08435674255818e-05 -7.93976664270836e-22 6.12728825694363e-05)
(7.50348624210725e-05 -1.03849946974535e-06 6.91808618826281e-22 7.31967420806975e-05 -1.40100680346566e-21 7.41110127775297e-05)
(8.7520868552469e-05 -1.27707333339268e-06 3.92315075756496e-22 8.42822338120985e-05 -2.15874077952919e-22 8.58997204982391e-05)
(9.85896339926751e-05 -1.43086303750337e-06 -2.05621018414975e-22 9.35554109006428e-05 -2.50811672423295e-22 9.60788005880341e-05)
(0.00010458277343397 -1.46441809529288e-06 -7.10524668772953e-22 9.77623575094811e-05 1.13627960978735e-21 0.000101193758344226)
(0.000106356262163439 -1.43601167006735e-06 -8.12020375678573e-22 9.8036946757852e-05 1.03115198345036e-21 0.000102231497562003)
(0.000104491588979454 -1.40304159293891e-06 -1.68263551666722e-22 9.51243643185694e-05 1.79446375440285e-22 9.98526380504173e-05)
(9.879333326319e-05 -1.35647767001036e-06 1.32138897688696e-21 8.90554172513105e-05 -1.60284710951014e-21 9.39731766615737e-05)
(9.37858299364697e-05 -1.27922659890891e-06 -5.16299587839046e-22 8.39435090927402e-05 5.8574449531078e-22 8.89125580806478e-05)