/*--------------------------------*- C++ -*----------------------------------*\
  =========                 |
  \\      /  F ield         | OpenFOAM: The Open Source CFD Toolbox
   \\    /   O peration     | Website:  https://openfoam.org
    \\  /    A nd           | Version:  7
     \\/     M anipulation  |
\*---------------------------------------------------------------------------*/
FoamFile
{
    version     2.0;
    format      ascii;
    class       volVectorField;
    location    "20000";
    object      U;
}
// * * * * * * * * * * * * * * * * * * * * * * * * * * * * * * * * * * * * * //

dimensions      [0 1 -1 0 0 0 0];

internalField   nonuniform List<vector> 
15600
(
(0.0198470642403375 -0.000168470253049775 1.94673147294478e-24)
(0.024696178182625 -0.00166459553285539 2.23825503368585e-23)
(-0.00168461323681647 -1.17978846011586e-05 -2.40625458684747e-23)
(-0.0209498959188136 0.00949888445666486 3.8932675566572e-23)
(-0.0163176125033523 0.0104788750202775 -3.77789096403016e-23)
(-0.0102591843378054 0.0077362176383192 -3.07226465984846e-18)
(-0.00754682574464034 0.00609857317080371 -4.26949976824253e-22)
(-0.00539379798462746 0.00444488355225892 4.54776425470757e-22)
(-0.00429932318130555 0.00348009068003006 0)
(-0.00376866762402702 0.00301254688822736 -9.01134773399309e-18)
(-0.00382855735480804 0.00302203361143368 -4.82595546636501e-18)
(-0.00431087024704776 0.00337314028474314 0)
(-0.00519603802373196 0.00400649108577262 -5.31185267972261e-21)
(-0.00612261608547045 0.0045640691789191 5.7528671157531e-18)
(-0.00701281115768929 0.00489724027855851 0)
(-0.00753730841535407 0.00475529865198534 1.31955117889555e-17)
(-0.00764793621951032 0.00414542642986142 -6.95402746345801e-21)
(-0.00740502755509568 0.00326735606776812 7.56145260517808e-18)
(-0.00680630114869149 0.00227381022212463 0)
(-0.0057907320324032 0.00126893580968807 0)
(-0.00480111490105885 0.000460857712169107 0)
(-0.00867713742191595 9.88569776294635e-05 -6.31165057656414e-20)
(-0.0151496545318061 6.77052389212964e-05 0)
(-0.0197922395949318 8.78713571037972e-05 0)
(-0.0240952368388578 9.77403190823019e-05 0)
(-0.0275603849798469 0.000109156250795103 0)
(-0.0305244104063269 0.000116824021639375 -4.44915086436062e-16)
(-0.032990228206139 0.000123993856769712 -4.63050296925836e-16)
(-0.0350847510265082 0.000129379168831756 0)
(-0.0368463305847923 0.000133796542455369 0)
(-0.0383272790122589 0.000136911016604618 9.54832044314198e-21)
(-0.0395517746393195 0.000138946994359291 -5.4992185452774e-16)
(-0.0405430645347884 0.000139831145496633 -5.79194948216252e-16)
(-0.0413156133084039 0.000139684540764217 0)
(-0.0418827036607072 0.000138538012531849 0)
(-0.0422543429645269 0.000136472341447437 5.89117620626755e-21)
(-0.042439838289817 0.000133508028676588 -5.89029055866728e-21)
(-0.0424476764353693 0.00012970358387196 9.13694163422284e-32)
(-0.0422861121386384 0.000125141982761317 7.12710323111594e-16)
(-0.0419638257263212 0.000119921098395695 7.48559688769681e-16)
(-0.0414906154844951 0.000114144684741754 -7.24298208486266e-21)
(-0.0408770635815438 0.000107906988502326 -2.82392936825497e-22)
(-0.0401339624957202 0.000101298811337576 1.5352694114382e-20)
(-0.0392721485393549 9.44026884021001e-05 -7.8247176780518e-21)
(-0.0383023721843829 8.7298045064495e-05 0)
(-0.0372353272569683 8.00594153532673e-05 0)
(-0.0360816261034077 7.2757674891554e-05 -1.00241027874112e-15)
(-0.0348517753620239 6.54581305794862e-05 -1.04059010684199e-15)
(-0.033556084907015 5.82197916131133e-05 0)
(-0.0322045813398988 5.10945451416283e-05 0)
(-0.030806949941164 4.41288735423282e-05 0)
(-0.0293723969207485 3.73583500457717e-05 0)
(-0.0279096438805501 3.08180101406212e-05 -1.15249976792352e-15)
(-0.0264267463282217 2.45254839717012e-05 -1.18541164085817e-15)
(-0.0249311097568756 1.85045150486719e-05 0)
(-0.0234293949047069 1.27569512708811e-05 -2.87052122087621e-21)
(-0.0219274932016881 7.29093507621175e-06 1.40800746769304e-21)
(-0.0204314250766199 2.12365270805284e-06 1.46947651072142e-21)
(-0.018946948306393 -2.74631587585956e-06 -7.64385245985033e-22)
(-0.017479293701722 -7.31570224159551e-06 7.6560053654615e-22)
(-0.016032959094027 -1.16000863452688e-05 0)
(-0.0146116094380867 -1.5606482721877e-05 0)
(-0.0132181883367141 -1.93545288095058e-05 1.64354824287175e-21)
(-0.0118548347980453 -2.28587748924732e-05 -1.64601082605488e-21)
(-0.0105236399566652 -2.61271166708765e-05 0)
(-0.00922685772224445 -2.91668011317191e-05 0)
(-0.00796659739135584 -3.19911932913155e-05 0)
(-0.00674470007717435 -3.46099747737699e-05 0)
(-0.00556255163476837 -3.70443396428161e-05 0)
(-0.00442094797370801 -3.93320116460584e-05 -2.10445623401711e-31)
(-0.00332092159825701 -4.14858806041613e-05 0)
(-0.00226340855441685 -4.35208334106604e-05 0)
(-0.00124938272009189 -4.54456975770705e-05 1.6426017566752e-15)
(-0.000279650759046244 -4.72593579528832e-05 3.31341484809588e-15)
(0.00064524145314592 -4.89530909922319e-05 1.66803688306335e-15)
(0.00152452905143661 -5.05432709348877e-05 -1.55016555451507e-20)
(0.00235739348833864 -5.20574185926083e-05 -1.38672929739304e-22)
(0.0031429193709104 -5.35080728366603e-05 3.13645996238064e-20)
(0.00387999903861319 -5.49097633618274e-05 -1.57382924389058e-20)
(0.00456763075420299 -5.62794517495973e-05 1.74723019896837e-15)
(0.00520414514617181 -5.76222130041332e-05 1.74702686748801e-15)
(0.00578809031616197 -5.89673750858648e-05 0)
(0.00631676997515946 -6.03046056245754e-05 0)
(0.00678834411573026 -6.16886071081643e-05 1.64555360758435e-20)
(0.00719811997695793 -6.30709112304873e-05 -4.9590520649708e-20)
(0.00754436030097002 -6.45726878014153e-05 3.31309699604425e-20)
(0.00781768068581037 -6.60344216831218e-05 -3.36044586480222e-20)
(0.00801841422494177 -6.77744231385239e-05 3.35995941830707e-20)
(0.00812594982411031 -6.93068437896281e-05 3.40780615257548e-20)
(0.00814993524930263 -7.1529775029166e-05 2.41335167052525e-22)
(0.00804189171152631 -7.29837961362586e-05 2.44088532983739e-22)
(0.00784382923090048 -7.6181050297597e-05 -6.93945422239912e-20)
(0.00742768850958568 -7.69095285131496e-05 3.48324406552346e-20)
(0.00693878916450159 -8.24501166594943e-05 0)
(0.00603070670171875 -8.05381191746728e-05 -3.56583706335143e-20)
(0.00517364999363882 -9.2106831523852e-05 -2.75014782839473e-22)
(0.00341577626018905 -8.18627135076512e-05 3.60180825844725e-20)
(0.00220443428845263 -0.000109161410743533 4.10295065844215e-15)
(-0.00101177394777492 -6.89035071116003e-05 4.07124842425553e-15)
(-0.00345006672136289 -0.000366700327208426 3.74920263072278e-20)
(-0.00195438151794857 -0.000348012173382468 3.80338696196387e-17)
(0.000250688798675593 0.000227645287689149 0)
(0.00352244641675286 0.00170455780155129 -3.59195004819814e-17)
(0.00758308085122524 0.00419638992002884 3.41039458330794e-17)
(0.0127854708595022 0.00795108627489472 3.20586460295976e-17)
(0.0186614610711086 0.0125722967229441 3.00697630143947e-17)
(0.0245678129778249 0.0173948223573623 2.81680869660411e-17)
(0.0303117022062197 0.0219844167077715 -2.63191834620204e-17)
(0.0351200341642904 0.0257233768981396 -2.44954999837189e-17)
(0.038963306636506 0.0289545061371797 2.26053878207058e-17)
(0.0433834059477513 0.032844352433414 2.05699621335445e-17)
(0.0486733784417167 0.0377455973666427 -2.10999153778404e-20)
(0.0577695006516306 0.0456470441840296 -2.94128025669237e-20)
(0.072774325169943 0.0564828807317608 6.8719613560645e-22)
(0.0956178924260795 0.0688462386796417 9.28050161473445e-18)
(0.128276003528875 0.0790260766863673 -4.69307325236405e-18)
(0.166472289121658 0.0743416924971931 1.06876134336365e-18)
(0.147727943804239 0.0341715684057492 3.53659981567957e-18)
(0.0655172416020008 0.00466106110612624 1.49770032933264e-18)
(0.0135531144576289 0.00010404284124254 6.34237655463059e-22)
(0.0821266788237232 -0.000596953036590295 0)
(0.085250685601496 -0.00467636386198904 0)
(0.0118100195720166 -0.0011197622506703 -8.35827662135452e-23)
(-0.0518207770915886 0.0259061769010249 2.23825238552234e-23)
(-0.0445363067589903 0.0296267873179068 5.7212650491721e-23)
(-0.028692144367041 0.0222127444724134 4.67490948728183e-18)
(-0.0212698606298848 0.0176513582668539 6.20100096362639e-22)
(-0.015586242930136 0.0130437014674853 0)
(-0.0126735637273654 0.0103275989954559 -6.40169139635695e-18)
(-0.0113354123898025 0.00905118236447722 5.01864005521019e-22)
(-0.011633777013798 0.00915187031925446 7.40414705548886e-18)
(-0.0131088371623354 0.0102426361497792 -3.8386019023357e-21)
(-0.0156354711502085 0.0121046854324995 -4.08404396549882e-21)
(-0.018294521849086 0.0137326738303664 8.47413366033201e-21)
(-0.0208439249841937 0.0146721742288886 9.28042891489859e-18)
(-0.0225332871662204 0.0142606742717252 -7.50698512843702e-22)
(-0.0232706030560037 0.0125267032241744 -1.04418241515292e-20)
(-0.0231812840002831 0.0100062971264931 1.15555686508367e-20)
(-0.0222331206793148 0.00710599073483175 0)
(-0.0204607400386638 0.00417133920104801 1.19460039474134e-20)
(-0.0200460181457486 0.00200955957752582 -1.20210828812812e-20)
(-0.0314878446250379 0.00100435259059077 9.10656955375398e-20)
(-0.0485359874746211 0.000815595936122874 0)
(-0.0608985040088935 0.000700968041405718 0)
(-0.0718535887509323 0.000585004569004089 0)
(-0.0805692754732768 0.000491246165334736 0)
(-0.0878747911269803 0.00041066952089715 6.12176076417717e-16)
(-0.0938681805110098 0.000347195148434199 6.1697411191796e-16)
(-0.0988658049562316 0.000293618502078502 1.18839686605614e-20)
(-0.102984780467127 0.000248670715756431 -1.18050388550828e-20)
(-0.106357291869554 0.000208952444853039 0)
(-0.109051749215947 0.000173339845342654 7.36530571739128e-16)
(-0.111130126739286 0.000140486868904657 7.57076931690166e-16)
(-0.1126339847965 0.000109953336561103 -2.79122618909032e-20)
(-0.113600346041444 8.12168458589664e-05 1.42250532953742e-20)
(-0.114058403290037 5.40123419882727e-05 0)
(-0.114035333601859 2.80801639795493e-05 0)
(-0.113556702881632 3.41275843885311e-06 -1.19822499415817e-31)
(-0.112647203050512 -1.99922060327446e-05 -9.41817998533168e-16)
(-0.111332772982386 -4.20420627127235e-05 -9.7326835833144e-16)
(-0.109641154318499 -6.26048980058412e-05 -9.49716413637032e-21)
(-0.107601251893373 -8.16317581444034e-05 9.51046807171839e-21)
(-0.105241972428688 -9.91124260946375e-05 0)
(-0.10259192497911 -0.000115065427620907 0)
(-0.0996792111445776 -0.000129508710051828 0)
(-0.0965315080588695 -0.00014246178850574 0)
(-0.0931760258477627 -0.000153943544325443 1.33600055659095e-15)
(-0.0896394479337704 -0.000163980889534214 1.37741029292812e-15)
(-0.0859477417539601 -0.00017261148481072 -6.01536883880194e-21)
(-0.0821259884026703 -0.000179883880873808 -1.30158074423195e-20)
(-0.0781982417896771 -0.000185853785675349 6.63495808188792e-21)
(-0.0741872763816671 -0.000190598074189853 7.03223133356167e-21)
(-0.0701145286383894 -0.000194184627162825 1.56787978250353e-15)
(-0.0659997722273409 -0.000196724324950546 1.61131030947753e-15)
(-0.0618611258831493 -0.000198292073091326 0)
(-0.0577149189750884 -0.000199014721197523 -3.94973743471225e-21)
(-0.0535759091041756 -0.000198936890536786 3.97564806474295e-21)
(-0.0494590047164965 -0.000198048531286658 -2.0822171953066e-21)
(-0.0453783188096477 -0.000196422351304741 1.02849194085548e-21)
(-0.0413465888817878 -0.00019412267503182 1.07490582673035e-21)
(-0.0373747396689912 -0.000191278514765117 0)
(-0.0334717287883707 -0.000187976894597378 0)
(-0.0296447669589039 -0.000184335601599149 0)
(-0.0258993364269155 -0.000180412105467924 0)
(-0.0222409175371862 -0.000176195991210277 0)
(-0.0186752961664418 -0.000171678583277272 0)
(-0.0152078498126187 -0.000166891671468174 0)
(-0.0118432339185994 -0.000161883379071425 0)
(-0.00858499206450791 -0.000156744753849555 0)
(-0.00543535601238321 -0.000151584244639943 1.07363779085943e-20)
(-0.00239717547211509 -0.000146381877243927 -1.07999641376742e-20)
(0.000526952939298322 -0.000141050697408306 0)
(0.0033343443599655 -0.000135556584633807 -2.4194757302329e-15)
(0.00602277794942245 -0.000129947702488747 -4.88210976217886e-15)
(0.00859057126705534 -0.00012419988918422 -2.46349456234004e-15)
(0.0110355050042152 -0.000118297270021545 -2.25119244998851e-20)
(0.013355178413602 -0.00011224780684609 0)
(0.0155469209512651 -0.000106029387551879 -2.29928542902938e-20)
(0.0176075989722952 -9.96313144504993e-05 2.29361553560368e-20)
(0.0195342188329847 -9.30322640384629e-05 -2.52294191559351e-15)
(0.0213221862516628 -8.61608762001274e-05 -2.55828974869531e-15)
(0.0229672132814489 -7.90136124654585e-05 0)
(0.0244620552194486 -7.14493437095139e-05 0)
(0.0258011322045736 -6.35103738989291e-05 0)
(0.0269722604245814 -5.48980930368245e-05 4.79963971295445e-20)
(0.0279693542278382 -4.57865153278956e-05 -4.79685768367163e-20)
(0.0287689621212871 -3.54539355061434e-05 4.86547763902368e-20)
(0.0293682117066344 -2.45710986921547e-05 -4.8662834859855e-20)
(0.0297173105691702 -1.12720200110744e-05 4.93894014868186e-20)
(0.0298314977509027 2.08474648823618e-06 -9.92210825597643e-20)
(0.0295972116099648 2.05986719893846e-05 4.98244052420739e-20)
(0.0290970286474839 3.74093524808513e-05 0)
(0.0280360091990274 6.68410131682646e-05 -5.10715899403005e-20)
(0.0267153314726084 8.74715345192903e-05 5.12199235793096e-20)
(0.0243422421991722 0.00013963030423641 5.21702135751428e-20)
(0.0219233210526848 0.000158753257426538 4.04009197696635e-22)
(0.0172741733170779 0.000258470278159538 -1.06753759544693e-19)
(0.0135852630229002 0.000247736761366055 -6.01312409844605e-15)
(0.0048527784061276 0.000518052303944022 -6.1995824732851e-15)
(-0.0012759590473687 -0.000102196103843181 5.67104075251844e-20)
(0.00251140465236296 0.000275183343871526 -5.74142942472433e-17)
(0.00845175167294813 0.00234061176684135 -2.76856979563112e-17)
(0.0167909566796522 0.00675003976504577 5.2629361273016e-17)
(0.0269093937744657 0.013787877738422 -4.94508724723929e-17)
(0.0394829059174008 0.0239999792831291 -4.6107798471935e-17)
(0.0535489619435897 0.0364084095933759 4.29819813097286e-17)
(0.0678929596684604 0.049403108838761 -4.0114885356382e-17)
(0.0821189686445547 0.0618799308790334 3.7465769897015e-17)
(0.0946360087928521 0.0723707635292044 -1.72445648706488e-20)
(0.105122965689244 0.0816719813679889 -1.54796327232531e-20)
(0.116559975348813 0.092562397020131 2.94024369057557e-17)
(0.129936527249087 0.106127742034389 -5.23062415520142e-17)
(0.151582536416426 0.127179988593963 -2.24363620529338e-17)
(0.18683052540863 0.155452388285192 0)
(0.2410517492179 0.187115880847131 -2.96631951312195e-22)
(0.319012880904706 0.212251730159492 6.39475107182569e-18)
(0.415101418814963 0.200719461979851 3.91813496521693e-23)
(0.402971205997606 0.101906881767758 -4.64051207024439e-18)
(0.232056905578838 0.0197572012691275 -2.02444575483274e-18)
(0.088132284486808 0.00165720165922413 -8.19576520935527e-22)
(0.170696796372919 -0.00048504459306993 1.29175821221525e-24)
(0.159818599994521 -0.00752868142929509 -4.61906160838964e-20)
(0.0431243503874273 -0.00494171305442147 0)
(-0.0723138853100498 0.0377054837995842 -5.91624957350133e-23)
(-0.0694777296301821 0.0458140294043704 -7.85110270274003e-23)
(-0.0458849122962813 0.0349703052761678 -4.77664919113351e-18)
(-0.0342667526195578 0.0280652550043216 0)
(-0.0255516069341042 0.021122826532533 -5.97608517920805e-18)
(-0.0210464434711337 0.0169980919053288 2.15126605542295e-21)
(-0.0190624369246455 0.0151630680320309 7.13995808236806e-18)
(-0.0196820540975181 0.0155043988444856 -7.611277378896e-18)
(-0.0221725697687433 0.0174164550929685 0)
(-0.0262552446073566 0.0204562974629534 -8.24895760698607e-21)
(-0.030565949590628 0.0230765037340554 1.72822619016612e-20)
(-0.0347011680617233 0.0245270860181517 -1.87509713774398e-17)
(-0.0376734956400125 0.0238811755749214 -9.95990044780373e-18)
(-0.0394219722855388 0.0212041530453442 -1.03267488726767e-20)
(-0.0401360351526696 0.017262956236338 -1.12516890314353e-17)
(-0.0397775017072438 0.0126317045668714 -5.85313520728565e-18)
(-0.0387275545536343 0.00791847353277312 0)
(-0.0411926388119295 0.00445115644461504 -1.14734377503852e-20)
(-0.0596182475095738 0.00260596119971247 1.07377656111055e-20)
(-0.084687613572171 0.00222223234603059 0)
(-0.102815680592003 0.00184939125578358 0)
(-0.118222741234767 0.00152132952716741 0)
(-0.130259923622158 0.00125315006733914 0)
(-0.140108070185986 0.00103282305768031 0)
(-0.148015840464565 0.000857099353350217 0)
(-0.154434170534403 0.000710007095924811 0)
(-0.159555579834191 0.000585208334134704 0)
(-0.163571832177804 0.000474811439902437 0)
(-0.166591962887361 0.000375273619297501 -1.10998017761125e-20)
(-0.168711169658139 0.000283435331261891 1.09823659807973e-20)
(-0.169997329494504 0.000197907333458684 0)
(-0.170509614018326 0.000117323186546475 0)
(-0.170295650367391 4.09746364882011e-05 0)
(-0.16939916015769 -3.13234820859062e-05 -1.31794643514954e-20)
(-0.167867099974178 -9.95718891145733e-05 1.30880877467261e-20)
(-0.165742304378811 -0.000163913124634498 0)
(-0.163066662508543 -0.00022413062213926 0)
(-0.159883339291129 -0.000279956455030293 7.6007497449837e-21)
(-0.156235689468447 -0.000331313603195142 -7.58397680732769e-21)
(-0.15216607419631 -0.000378215474899202 8.16690464192537e-21)
(-0.147715652128412 -0.000420731104792816 2.97038989449318e-22)
(-0.142924276470416 -0.000458927922846657 -8.47053658591826e-21)
(-0.13783066103846 -0.000492876345968168 0)
(-0.132472384565637 -0.000522650100889773 0)
(-0.126885852060904 -0.000548344864210965 0)
(-0.121106119403011 -0.000570083870610333 0)
(-0.115166742603258 -0.000588017646320941 0)
(-0.109099644302943 -0.000602318505767998 0)
(-0.102934868315723 -0.000613203755697165 0)
(-0.0967005342985784 -0.000620883485595275 -5.72339853321969e-21)
(-0.0904224913451546 -0.000625649552788672 5.7671223085209e-21)
(-0.084124407256429 -0.000627728182297767 0)
(-0.0778276547874876 -0.00062742132602956 3.1354014672482e-21)
(-0.0715518785052251 -0.000624837983319287 6.50198992207067e-23)
(-0.0653168297143592 -0.000619995705748505 -3.25923713911891e-21)
(-0.0591410153059438 -0.000613102054598695 0)
(-0.0530410905692623 -0.000604367070293275 0)
(-0.0470313086237822 -0.000594127804295265 0)
(-0.0411234795099911 -0.00058263724503767 1.85441142926966e-21)
(-0.0353271726304442 -0.0005701920427951 1.93254030265481e-21)
(-0.0296499815947096 -0.000556925405207052 -7.75340239746525e-21)
(-0.0240997085257466 -0.000542810354245302 3.94809779554119e-21)
(-0.0186844941314908 -0.000527844043861954 0)
(-0.013411905125812 -0.000512140728080035 8.40638719791587e-21)
(-0.00828849456767585 -0.000495904745062631 -8.50005140031219e-21)
(-0.00331938294966792 -0.000479387936640606 0)
(0.00149193174571273 -0.00046251975039932 0)
(0.00614099773057411 -0.000445188518216615 0)
(0.0106237328533647 -0.000427457638244648 0)
(0.0149359283505706 -0.000409313746725701 0)
(0.0190740299130898 -0.000390901540595525 0)
(0.0230350909562879 -0.000372209131028463 0)
(0.0268154337027522 -0.000353179177527201 0)
(0.0304110439464752 -0.000333782598503297 0)
(0.0338174896417422 -0.000313958884230245 0)
(0.0370297119171266 -0.000293673302912968 0)
(0.0400426707506064 -0.000272848390326447 0)
(0.0428492061119735 -0.000251307376507805 -1.96795240715217e-20)
(0.0454422302621582 -0.000228978767659833 1.97004876181862e-20)
(0.047810794470458 -0.000205545547373692 4.00717002359217e-20)
(0.0499455404998111 -0.000180981070813311 -4.01475913751721e-20)
(0.0518287387298833 -0.000154663408954334 4.08444773167274e-20)
(0.0534492302559562 -0.000126701695467868 -4.09627948907712e-20)
(0.054774276746975 -9.56853803757049e-05 0)
(0.055794392251867 -6.24163440341789e-05 4.21771289542819e-20)
(0.0564426031095174 -2.34433221825522e-05 -4.23903035615069e-20)
(0.0567269694210456 1.78815709696257e-05 4.32420026550402e-20)
(0.0564968944035745 7.04403285955011e-05 -4.34619038334766e-20)
(0.0558378709924296 0.000123919477819007 0)
(0.0543729626013579 0.000203283450244395 0)
(0.0524366490181206 0.000275266224782624 -4.57130841928039e-20)
(0.049021385181472 0.000408217121683456 9.27202151383612e-20)
(0.0452986633339069 0.000499547280989525 3.63142425786615e-22)
(0.0384799261079049 0.000737960268957293 -4.82453856765444e-20)
(0.0324246278758324 0.00081619503475876 0)
(0.01926988301809 0.00139264476033205 -4.62906287124635e-19)
(0.0107389396691864 0.00104804943882876 5.31930773578489e-20)
(0.0158628020165177 0.00257267309182571 5.23045701158849e-17)
(0.0245178375445166 0.00674364896825542 2.46135716051605e-17)
(0.0361698800067832 0.0140964243971108 -3.40991671896402e-22)
(0.0501815392389861 0.0249785512492553 4.32303783250871e-17)
(0.0673917245444089 0.0399935380869356 4.02186791163617e-17)
(0.0867724651254914 0.0579151443032424 -1.69738232391533e-20)
(0.106972254510282 0.0767515236810817 0)
(0.127465765241125 0.0950534843858313 -3.35061900984363e-17)
(0.146276795528306 0.111029184492635 3.1658196726334e-17)
(0.16269807366503 0.125633115484033 0)
(0.180156503988885 0.142255683569575 -2.72008128618786e-17)
(0.200249444441565 0.162563054033934 2.43194330025576e-17)
(0.231162145578804 0.192511161160766 -5.26400679199256e-21)
(0.280493794213165 0.231470010641914 0)
(0.355723524789746 0.273691795177516 0)
(0.462239402777292 0.304881134626466 0)
(0.595169431037132 0.28736042674279 -1.41384992223643e-18)
(0.612148471098216 0.159170093056466 4.10012184124507e-18)
(0.416955876713497 0.0400024801887052 8.87649336954112e-19)
(0.208116246748891 0.00537729721840297 7.50233204843086e-22)
(0.28246866306669 0.000834565269805988 -1.14642637837881e-24)
(0.248433017514975 -0.00987529267385322 8.35719645622091e-20)
(0.0926705189209538 -0.0109326200013911 -8.75156494993739e-19)
(-0.0805983963795165 0.0449053837715877 -8.0406057920537e-23)
(-0.0905529532459521 0.0591914347276615 4.30756062067374e-18)
(-0.061550392033382 0.0460356480414896 6.11081608555254e-22)
(-0.0463521939370702 0.0373573907231667 7.19202048073646e-22)
(-0.0351769082004859 0.0286738353467354 6.12473785819748e-18)
(-0.0293566401762637 0.023481684111953 1.35441734460981e-17)
(-0.0269166194759712 0.0213314850572758 0)
(-0.0279473722793747 0.0220565720648476 -3.8160690515866e-21)
(-0.0314629893078449 0.0248522072926034 -8.15147185722594e-18)
(-0.0369886905347562 0.0290066164023184 -7.57419216925369e-23)
(-0.0428292490820603 0.0325230089650198 -9.10470095365599e-23)
(-0.0484485119596722 0.0343925220507277 9.28171907109823e-18)
(-0.0527958180863144 0.0335521673477783 9.47950655578464e-21)
(-0.0559093367306623 0.0301092208034895 1.02602590596118e-17)
(-0.0580470885920194 0.0249716264552063 -1.0679497375371e-17)
(-0.0592353831424948 0.0188277500188036 5.47326727976907e-18)
(-0.0603824515815629 0.0125430167096361 0)
(-0.0671041688470366 0.00774596812274807 0)
(-0.0908440187754657 0.0048234037626061 7.44983729783822e-20)
(-0.120351048055672 0.004170120193376 0)
(-0.141075853181446 0.00338237914501766 0)
(-0.157837585805205 0.00273881991714032 8.01621836332321e-21)
(-0.170481280721996 0.00221767459125928 1.71060978143778e-22)
(-0.180441377537577 0.0018010748291786 -7.52798105655509e-21)
(-0.188124314204064 0.00146790574382431 0)
(-0.194063718072931 0.00119066468646068 0)
(-0.198511487437312 0.000954661794928644 -7.78312601082566e-21)
(-0.201696418066031 0.000746357607555771 7.56981964739246e-21)
(-0.203758158554175 0.000558731539071838 -8.00910246595862e-21)
(-0.20481478616926 0.000386313124709162 -3.40587962793079e-22)
(-0.204953661449597 0.00022628270988757 -3.52219301674165e-22)
(-0.204249085107212 7.62130381896098e-05 8.18204518962503e-21)
(-0.2027615513531 -6.47474200059183e-05 0)
(-0.200557596278668 -0.000197055180764263 0)
(-0.197689247983547 -0.000321174086152965 -9.19758613822002e-21)
(-0.19420682209528 -0.000437342924921845 9.06522497484582e-21)
(-0.190159127215263 -0.000545366672467663 0)
(-0.185594917161194 -0.000644955749825108 0)
(-0.180561822193369 -0.000736121775668094 5.14386309931377e-21)
(-0.175105548613271 -0.00081900487727016 -5.10506447740281e-21)
(-0.169269910429214 -0.000893810667456014 5.45693795573551e-21)
(-0.163096918726914 -0.000960730863026491 -5.43210831309787e-21)
(-0.156627029002318 -0.00101995253745041 -5.79350751472969e-21)
(-0.149899211672885 -0.00107166431115001 5.78300931512825e-21)
(-0.142950955228139 -0.00111608521541699 0)
(-0.135818146923891 -0.00115347349939192 0)
(-0.128534972250192 -0.00118412616251586 0)
(-0.121133824380215 -0.00120837344084803 -3.36424767816296e-21)
(-0.113645094478916 -0.00122660871223143 -1.0106003328051e-15)
(-0.106097174072526 -0.00123922102724503 -1.04489539596778e-15)
(-0.0985161113378907 -0.00124670957164122 3.58966511639169e-21)
(-0.0909258057317742 -0.00124948014057634 0)
(-0.0833478773210948 -0.0012480159297661 0)
(-0.0758024247296807 -0.00124248755636665 0)
(-0.0683096958348905 -0.00123295281940152 0)
(-0.060888545312917 -0.00121977301084933 0)
(-0.0535559477661985 -0.00120333368279858 0)
(-0.0463264278111751 -0.00118419937872556 0)
(-0.0392121490701501 -0.00116281453316012 0)
(-0.0322230497421668 -0.00113966639509569 0)
(-0.0253672434293105 -0.00111495628467766 0)
(-0.0186532478135578 -0.00108862481981905 4.99251294560871e-21)
(-0.012089969737622 -0.00106067907395964 6.87921395776994e-23)
(-0.00568574530744675 -0.00103135250284244 -1.04550812768243e-20)
(0.000552078355050475 -0.00100084102986192 1.5851209606186e-15)
(0.00661758532997544 -0.000969421293026871 1.60683612583166e-15)
(0.0125064777311406 -0.000937126387101646 0)
(0.0182134601899219 -0.000903885938977009 0)
(0.0237335124787712 -0.000869857600509104 0)
(0.0290614831040894 -0.000835050756274212 0)
(0.0341928226556741 -0.000799657139720092 0)
(0.0391235435910949 -0.000763647332917531 0)
(0.0438488668875006 -0.000726914559897708 0)
(0.0483635356826791 -0.000689393560503777 -1.22517684058886e-20)
(0.0526617757810204 -0.00065097498088982 -1.07014899036108e-22)
(0.0567370949548914 -0.00061159030593342 -1.05494749761692e-22)
(0.0605828527998445 -0.00057108092573084 1.26848034949455e-20)
(0.0641901888123956 -0.000529142786713386 0)
(0.0675499399850657 -0.000485581187797779 0)
(0.0706489862410604 -0.000439882021792486 0)
(0.0734751545070164 -0.000391849786616574 0)
(0.0760079775479613 -0.000340531091428538 0)
(0.0782321903445512 -0.000285752479090216 2.80768382907928e-20)
(0.0801115901373607 -0.000225463151246456 2.04135761128679e-22)
(0.0816298980393768 -0.000160091998251315 2.06088147863894e-22)
(0.0827159205103798 -8.48810564597155e-05 2.09187692870708e-22)
(0.0833650942403344 -2.7425593520926e-06 2.13075401334248e-22)
(0.0834163561255274 9.78982382675512e-05 2.18427195521127e-22)
(0.0829304944598614 0.000206253404043271 -3.13774635281543e-20)
(0.0815284794814527 0.000354469778748463 3.23606250892243e-20)
(0.0794892722346492 0.000506598752926556 -6.6176012161379e-20)
(0.0758013273197298 0.000748257760135944 3.39601522743385e-20)
(0.0715087976925273 0.000964451083924528 0)
(0.0637883235437511 0.00138516203651857 0)
(0.0562526564180882 0.00166192518535611 -3.85806743909978e-20)
(0.0406953308753298 0.00255407289904915 8.17600915199042e-20)
(0.0308411817301501 0.00296967043587403 1.06701677908959e-17)
(0.035689229881543 0.00602757527126073 -1.95072380754387e-17)
(0.0452153257094402 0.0123346666986243 -3.49411301787076e-20)
(0.0580313897168577 0.022124089259973 3.29379749929771e-17)
(0.0735906256484315 0.0357450966501766 0)
(0.0927401528566495 0.0537500191173428 -2.865815485575e-17)
(0.114672086294793 0.0749447381185454 -2.72663802280852e-17)
(0.138148209183047 0.0973505239756127 0)
(0.162629584746404 0.119466950723226 2.52737704201251e-17)
(0.186156925473597 0.139596646405185 -2.45405039114965e-17)
(0.207632642255215 0.158675590577176 -2.34828318459519e-17)
(0.230214694163366 0.180018327152916 2.20408363443751e-17)
(0.255777803695766 0.205527450053442 0)
(0.292887578391914 0.240984071411355 1.71615252030686e-17)
(0.350474796910644 0.285203558096976 0)
(0.436826030055557 0.330838147510418 0)
(0.556554474634956 0.360800676186678 0)
(0.70622328816497 0.336283818164328 1.12072145670476e-18)
(0.760042479388132 0.199157207938908 -3.25299680291805e-18)
(0.589206706300373 0.0606963951955015 0)
(0.355709478675306 0.011295340284324 -7.22366355507411e-22)
(0.401509981733134 0.00352046736197326 0)
(0.344536301988157 -0.011220005781407 -3.52089162255221e-20)
(0.157415186307919 -0.0180099055187853 1.50998509060282e-18)
(-0.0742360924577732 0.0469848543066043 -1.50222720893632e-22)
(-0.107057376874468 0.0697506136718991 -1.36610170261027e-20)
(-0.0754305449300195 0.0553795374355629 -4.77832269096987e-18)
(-0.0573881081241358 0.0455115955185719 6.51846623239234e-22)
(-0.0443656512856156 0.035675278499204 0)
(-0.0375408187028494 0.0297573791946172 -6.9109283310984e-18)
(-0.0348407513290554 0.0275249105997366 3.67567096702424e-21)
(-0.0363589819779879 0.028756138457681 3.56816901383472e-23)
(-0.0408669287525 0.0324559835242984 8.16304152548556e-18)
(-0.0476620420676616 0.0376146981752251 8.40640246394757e-18)
(-0.0548170030913416 0.0418704314330867 -1.68391973423962e-20)
(-0.0617038506128025 0.0440116270373287 8.58651640294871e-21)
(-0.0673358437032692 0.0429445238960739 0)
(-0.0718850243625857 0.0388263172855228 -1.84573553374984e-17)
(-0.0756932356154674 0.0326631492948787 9.32864048631466e-18)
(-0.0789684278908328 0.0252579729262504 -1.82680868611015e-20)
(-0.0831266958110408 0.0176645342402346 4.67834009646181e-18)
(-0.0940337057120138 0.0115235259269878 -3.42068190924582e-20)
(-0.120268628103304 0.00737041039044285 -2.99641778498372e-20)
(-0.149615809500913 0.00631392915975819 -1.34806051950441e-20)
(-0.169191166009905 0.00497358403189556 0)
(-0.184352527276862 0.00394611736642164 0)
(-0.19539489987292 0.00313251931059643 0)
(-0.203811612605502 0.00249807812916254 -5.38246435567924e-21)
(-0.210054247402667 0.00199335296002644 5.09512187332382e-21)
(-0.214636219110237 0.00157687773982919 0)
(-0.217805054697952 0.00122342223331015 0)
(-0.219775489195239 0.000913200171112369 0)
(-0.220681322007097 0.000635121061081881 0)
(-0.220633887787121 0.000381134677526449 0)
(-0.21971670231939 0.000146748513346257 0)
(-0.218001089316274 -7.14482675165547e-05 0)
(-0.215552937824969 -0.000274934523944347 0)
(-0.212426533660381 -0.000464919378831313 0)