/*--------------------------------*- C++ -*----------------------------------*\
  =========                 |
  \\      /  F ield         | OpenFOAM: The Open Source CFD Toolbox
   \\    /   O peration     | Website:  https://openfoam.org
    \\  /    A nd           | Version:  7
     \\/     M anipulation  |
\*---------------------------------------------------------------------------*/
FoamFile
{
    version     2.0;
    format      ascii;
    class       volScalarField;
    location    "20000";
    object      walldist;
}
// * * * * * * * * * * * * * * * * * * * * * * * * * * * * * * * * * * * * * //

dimensions      [0 1 0 0 0 0 0];

internalField   nonuniform List<scalar> 
15600
(
0.00195549459667574
0.00195698385274877
0.00193145547011927
0.00184521300229411
0.00179205244334578
0.00181242812764786
0.00188880543338645
0.00201115301209985
0.00216138081585702
0.00230811076088677
0.0024474466744432
0.00257925636244048
0.0027069916528002
0.00284966728744174
0.00301379564498419
0.00319896994993697
0.00340018467709338
0.00359255479319448
0.00375463052961835
0.00386968837537494
0.00392031448209784
0.00391206446788283
0.00391100650445386
0.0039110065044539
0.00391100650445395
0.00391100650445394
0.003911006504454
0.00391100650445394
0.003911006504454
0.00391100650445394
0.00391100650445398
0.00391100650445392
0.00391100650445383
0.00391100650445398
0.00391100650445394
0.00391100650445391
0.00391100650445383
0.00391100650445401
0.00391100650445394
0.00391100650445386
0.00391100650445389
0.00391100650445403
0.00391100650445406
0.003911006504454
0.00391100650445394
0.00391100650445398
0.00391100650445386
0.00391100650445384
0.00391100650445394
0.00391100650445392
0.00391100650445391
0.00391100650445401
0.00391100650445388
0.00391100650445394
0.003911006504454
0.003911006504454
0.00391100650445389
0.00391100650445384
0.00391100650445389
0.00391100650445389
0.00391100650445387
0.00391100650445386
0.0039110065044539
0.00391100650445388
0.003911006504454
0.00391100650445406
0.00391100650445397
0.00391100650445403
0.00391100650445401
0.00391100650445395
0.00391100650445383
0.00391100650445388
0.00391100650445389
0.00391100650445395
0.0039110065044539
0.00391100650445389
0.00391100650445399
0.00391100650445406
0.00391100650445397
0.00391100650445391
0.00391100650445407
0.00391100650445387
0.0039110065044539
0.00391100650445389
0.00391100650445389
0.00391100650445391
0.00391100650445397
0.00391100650445395
0.00391100650445394
0.00391100650445399
0.00391100650445396
0.00391100650445398
0.00391100650445391
0.00391100650445399
0.00391100650445395
0.00391100650445379
0.00391100650445383
0.00391100650445393
0.00391206446788294
0.00392031448209767
0.00386968837537377
0.00375463052961398
0.00359255479319871
0.00340018467710161
0.00319896994993657
0.00301379564498107
0.00284966728744427
0.00270699165281378
0.00257925636244785
0.00244744667443972
0.00230811076089585
0.00216138081587492
0.00201115301209894
0.00188880543337978
0.00181242812763896
0.00179205244334083
0.00184521300230159
0.00193145547012684
0.00195698385275052
0.00195549459667641
0.00593825811215187
0.00595523881601118
0.00600601279836468
0.00609513711868437
0.00629394064142954
0.00660884458053397
0.00699777796330958
0.00742980703953258
0.00787445139579038
0.00830602049211311
0.0087247311387765
0.00913355890664624
0.00953635798086208
0.00993904802474064
0.0103366820849197
0.010719202840625
0.0110732234551041
0.0113806207735685
0.0116283292297534
0.0118064348456813
0.0119057267440864
0.0119320447607283
0.0119302032993588
0.0119273850571934
0.0119246423444381
0.0119219752132198
0.0119193837142756
0.0119168678969482
0.0119144278091795
0.0119120634975072
0.0119097750070603
0.0119075623815551
0.0119054256632896
0.0119033648931408
0.0119013801105613
0.0118994713535739
0.0118976386587697
0.0118958820613037
0.011894201594891
0.0118925972918032
0.0118910691828689
0.0118896172974665
0.0118882416635227
0.0118869423075101
0.0118857192544452
0.0118845725278855
0.0118835021499266
0.0118825081412011
0.0118815905208762
0.0118807493066517
0.011879984514758
0.0118792961599559
0.0118786842555331
0.011878148813305
0.0118776898436123
0.0118773073553202
0.0118770013558178
0.0118767718510171
0.0118766188453529
0.0118765423417814
0.0118765423417814
0.0118766188453529
0.0118767718510169
0.0118770013558178
0.0118773073553203
0.0118776898436123
0.0118781488133051
0.0118786842555332
0.0118792961599558
0.0118799845147579
0.0118807493066514
0.0118815905208763
0.0118825081412013
0.0118835021499268
0.0118845725278854
0.0118857192544452
0.0118869423075101
0.0118882416635226
0.0118896172974667
0.0118910691828695
0.0118925972918032
0.0118942015948908
0.0118958820613038
0.0118976386587697
0.0118994713535739
0.0119013801105611
0.0119033648931406
0.0119054256632894
0.0119075623815551
0.0119097750070603
0.0119120634975074
0.0119144278091792
0.0119168678969483
0.0119193837142757
0.0119219752132194
0.0119246423444378
0.0119273850571938
0.0119302032993597
0.0119320447607274
0.0119057267440855
0.011806434845681
0.0116283292297482
0.0113806207735629
0.0110732234551182
0.0107192028406286
0.0103366820849026
0.00993904802471687
0.00953635798091279
0.00913355890664263
0.00872473113876247
0.00830602049208852
0.00787445139585186
0.00742980703953805
0.00699777796327614
0.00660884458055718
0.00629394064141574
0.00609513711867098
0.00600601279836495
0.00595523881601246
0.00593825811215294
0.010066915462737
0.0100984217066169
0.0102142916584246
0.010447750719645
0.0108624550702301
0.0114348272411079
0.0121013073900157
0.0128181796940341
0.0135463236914079
0.0142567197712538
0.0149501932165392
0.0156309291584509
0.0163037758617804
0.016973218619647
0.0176296892104827
0.0182567012265857
0.0188326621398975
0.0193311630509351
0.019732557566795
0.0200212428087315
0.0201830359851538
0.0202278564477232
0.0202248449591959
0.0202200672945223
0.020215417672143
0.0202108961804279
0.0202065029053895
0.0202022379306765
0.0201981013375634
0.0201940932049436
0.0201902136093229
0.0201864626248109
0.0201828403231149
0.0201793467735327
0.0201759820429454
0.0201727461958134
0.0201696392941672
0.0201666613976036
0.0201638125632787
0.0201610928459029
0.0201585022977369
0.0201560409685854
0.0201537089057917
0.020151506154234
0.0201494327563217
0.020147488751991
0.0201456741786999
0.0201439890714258
0.0201424334626624
0.0201410073824152
0.0201397108581996
0.0201385439150382
0.0201375065754583
0.0201365988594893
0.0201358207846615
0.0201351723660042
0.0201346536160436
0.0201342645448019
0.0201340051597973
0.0201338754660419
0.0201338754660419
0.0201340051597973
0.020134264544802
0.0201346536160435
0.0201351723660043
0.0201358207846617
0.0201365988594895
0.0201375065754583
0.020138543915038
0.0201397108581994
0.020141007382415
0.0201424334626623
0.0201439890714261
0.0201456741787
0.0201474887519911
0.0201494327563216
0.0201515061542338
0.0201537089057916
0.0201560409685856
0.0201585022977374
0.020161092845903
0.0201638125632785
0.0201666613976037
0.0201696392941672
0.0201727461958133
0.0201759820429451
0.0201793467735325
0.020182840323115
0.0201864626248109
0.0201902136093228
0.0201940932049437
0.0201981013375635
0.0202022379306768
0.0202065029053897
0.0202108961804278
0.0202154176721427
0.0202200672945229
0.0202248449591965
0.0202278564477224
0.0201830359851511
0.0200212428087266
0.019732557566798
0.0193311630509384
0.0188326621398857
0.0182567012265732
0.0176296892105133
0.0169732186196591
0.0163037758617374
0.0156309291584748
0.0149501932165447
0.0142567197712886
0.013546323691365
0.0128181796940034
0.0121013073900641
0.0114348272410779
0.0108624550702178
0.0104477507196454
0.0102142916584277
0.0100984217066161
0.0100669154627367
0.0143468174330072
0.0143934530224755
0.0145776035515054
0.0149626159043077
0.0156024256603951
0.0164418953102358
0.017395719128614
0.0184072641346975
0.0194286799666667
0.0204276489373142
0.0214055992323527
0.0223679379632408
0.0233205135069277
0.0242662730898079
0.0251908491207541
0.0260710925931342
0.026876907281001
0.0275733190025363
0.0281338715592545
0.0285370693918535
0.028763583373543
0.028827567656917
0.0288233432522462
0.0288165343857699
0.0288099079981707
0.0288034642153884
0.0287972031600041
0.0287911249512285
0.0287852297048897
0.0287795175334228
0.0287739885458591
0.0287686428478161
0.0287634805414865
0.0287585017256299
0.0287537064955622
0.0287490949431479
0.0287446671567901
0.0287404232214225
0.0287363632185012
0.0287324872259966
0.0287287953183877
0.0287252875666528
0.0287219640382634
0.0287188247971778
0.0287158699038355
0.0287130994151504
0.0287105133845069
0.0287081118617526
0.0287058948931949
0.028703862521597
0.0287020147861717
0.0287003517225801
0.0286988733629268
0.0286975797357569
0.0286964708660533
0.0286955467752348
0.0286948074811533
0.028694252998092
0.0286938833367651
0.0286936985043157
0.0286936985043157
0.0286938833367651
0.0286942529980919
0.0286948074811532
0.0286955467752349
0.0286964708660535
0.0286975797357569
0.0286988733629268
0.02870035172258
0.0287020147861715
0.0287038625215967
0.0287058948931951
0.0287081118617526
0.0287105133845073
0.0287130994151507
0.0287158699038353
0.0287188247971777
0.0287219640382634
0.0287252875666529
0.0287287953183884
0.0287324872259967
0.0287363632185009
0.0287404232214225
0.0287446671567901
0.0287490949431477
0.0287537064955621
0.0287585017256297
0.0287634805414863
0.0287686428478161
0.028773988545859
0.0287795175334229
0.0287852297048899
0.0287911249512288
0.0287972031600042
0.0288034642153881
0.0288099079981704
0.0288165343857703
0.0288233432522466
0.0288275676569151
0.0287635833735404
0.0285370693918486
0.0281338715592561
0.0275733190025333
0.0268769072810004
0.0260710925931246
0.0251908491207589
0.0242662730897824
0.0233205135069555
0.0223679379632325
0.0214055992323651
0.0204276489372897
0.0194286799666769
0.0184072641347213
0.0173957191286035
0.0164418953102638
0.015602425660366
0.0149626159043264
0.0145776035514975
0.014393453022476
0.0143468174330076
0.0187835045419296
0.0188458480676893
0.0191010507515413
0.0196438079753468
0.0205173848656929
0.0216337949669081
0.0228853681397653
0.0242021864565419
0.0255274201159054
0.0268253811950402
0.0280981147043736
0.0293522846653939
0.0305947665649385
0.0318268965523328
0.033029328870749
0.0341720083859028
0.0352160244267663
0.0361175318207145
0.0368430193440328
0.0373648846412725
0.0376584665006984
0.037742311069005
0.03773682930812
0.0377279148310674
0.0377192392636436
0.0377108027707347
0.0377026055128296
0.0376946476460045
0.0376869293219061
0.03767945068774
0.0376722118862552
0.0376652130557303
0.0376584543299608
0.0376519358382474
0.0376456577053824
0.0376396200516385
0.0376338229927568
0.0376282666399368
0.0376229510998244
0.0376178764745019
0.0376130428614807
0.0376084503536888
0.0376040990394629
0.0375999890025401
0.0375961203220505
0.037592493072509
0.0375891073238075
0.0375859631412097
0.0375830605853437
0.0375803997121959
0.0375779805731066
0.0375758032147643
0.0375738676792018
0.0375721740037918
0.0375707222212432
0.0375695123595981
0.0375685444422291
0.0375678184878368
0.0375673345104483
0.0375670925194159
0.0375670925194159
0.0375673345104483
0.0375678184878367
0.0375685444422292
0.0375695123595982
0.0375707222212433
0.0375721740037919
0.0375738676792018
0.037575803214764
0.0375779805731064
0.0375803997121957
0.0375830605853437
0.03758596314121
0.0375891073238076
0.037592493072509
0.0375961203220504
0.03759998900254
0.0376040990394627
0.037608450353689
0.0376130428614812
0.0376178764745019
0.0376229510998241
0.0376282666399367
0.0376338229927569
0.0376396200516384
0.0376456577053822
0.0376519358382473
0.0376584543299606
0.03766521305573
0.0376722118862553
0.0376794506877406
0.0376869293219062
0.0376946476460045
0.0377026055128296
0.0377108027707344
0.0377192392636433
0.037727914831068
0.0377368293081205
0.037742311069003
0.0376584665006955
0.0373648846412699
0.0368430193440288
0.0361175318207206
0.0352160244267723
0.0341720083858946
0.0330293288707523
0.0318268965523205
0.0305947665649297
0.0293522846654125
0.0280981147043205
0.026825381195105
0.0255274201159027
0.0242021864565257
0.0228853681397789
0.0216337949668946
0.0205173848657093
0.0196438079753555
0.0191010507515406
0.0188458480676886
0.01878350454193
0.0233827202728871
0.0234613584417265
0.0237903408816459
0.0244969138148399
0.0256130076268383
0.0270165279696556
0.0285767031823885
0.0302098907902045
0.0318499834251859
0.0334578210255454
0.035036084543217
0.0365927366491603
0.038135713281676
0.039664672980922
0.0411551080720176
0.0425698044918087
0.0438607145294396
0.0449748007597137
0.0458712405103205
0.0465161018037124
0.0468791973642591
0.0469836271995657
0.0469768420201319
0.0469657447979262
0.0469549449833211
0.0469444427815766
0.046934238392478
0.0469243320103171
0.0469147238238725
0.0469054140163933
0.0468964027655804
0.0468876902435715
0.0468792766169222
0.0468711620465926
0.0468633466879315
0.0468558306906604
0.0468486141988602
0.046841697350958
0.0468350802797124
0.0468287631122014
0.0468227459698115
0.0468170289682251
0.0468116122174086
0.0468064958216023
0.0468016798793113
0.046797164483296
0.0467929497205622
0.046789035672353
0.0467854224141413
0.0467821100156228
0.0467790985407079
0.0467763880475174
0.0467739785883761
0.0467718702098074
0.046770062952529
0.0467685568514491
0.0467673519356636
0.0467664482284515
0.046765845747275
0.046765544503776
0.046765544503776
0.046765845747275
0.0467664482284515
0.0467673519356635
0.0467685568514491
0.0467700629525291
0.0467718702098075
0.046773978588376
0.0467763880475173
0.0467790985407078
0.0467821100156225
0.0467854224141414
0.046789035672353
0.0467929497205622
0.0467971644832961
0.0468016798793113
0.0468064958216018
0.0468116122174082
0.0468170289682253
0.046822745969812
0.0468287631122013
0.046835080279712
0.0468416973509579
0.0468486141988602
0.0468558306906602
0.0468633466879315
0.0468711620465925
0.046879276616922
0.0468876902435711
0.0468964027655807
0.0469054140163935
0.0469147238238728
0.046924332010317
0.0469342383924781
0.0469444427815765
0.0469549449833207
0.0469657447979264
0.0469768420201323
0.0469836271995641
0.0468791973642567
0.0465161018037105
0.0458712405103221
0.0449748007597229
0.0438607145294445
0.0425698044918022
0.0411551080719979
0.0396646729809548
0.038135713281675
0.0365927366491579
0.0350360845432102
0.0334578210255063
0.0318499834252014
0.0302098907902359
0.028576703182334
0.0270165279697064
0.0256130076268311
0.0244969138148426
0.0237903408816416
0.0234613584417262
0.0233827202728877
0.0281504185087276
0.0282459544288991
0.0286514876758085
0.0295280360721521
0.030895630516342
0.0325967911217669
0.0344768435996841
0.0364379433905771
0.0384043818452452
0.0403334108857668
0.0422283689060105
0.0440985625427824
0.0459530247631111
0.0477896710223052
0.0495786418595982
0.0512753020921439
0.0528221323817654
0.0541565683344987
0.055230209140778
0.0560025618633529
0.0564377115140917
0.0565634793280617
0.056555342982716
0.0565419830551213
0.0565289811760493
0.0565163375926115
0.056504052545329
0.0564921262681093
0.056480558988223
0.0564693509262831
0.0564585022962243
0.0564480133052816
0.0564378841539719
0.0564281150360745
0.0564187061386133
0.0564096576418382
0.0564009697192077
0.0563926425373741
0.0563846762561652
0.05637707102857
0.0563698270007259
0.0563629443119021
0.0563564230944867
0.0563502634739754
0.0563444655689583
0.0563390294911087
0.0563339553451732
0.05632924322896
0.0563248932333312
0.0563209054421931
0.0563172799324871
0.0563140167741851
0.0563111160302807
0.0563085777567832
0.0563064020027129
0.0563045888100956
0.0563031382139594
0.0563020502423306
0.0563013249162314
0.0563009622496775
0.0563009622496775
0.0563013249162315
0.0563020502423307
0.0563031382139593
0.0563045888100957
0.056306402002713
0.0563085777567835
0.0563111160302808
0.056314016774185
0.0563172799324867
0.0563209054421927
0.0563248932333313
0.0563292432289602
0.0563339553451735
0.056339029491109
0.056344465568958
0.056350263473975
0.0563564230944866
0.0563629443119023
0.0563698270007264
0.05637707102857
0.056384676256165
0.0563926425373741
0.0564009697192077
0.0564096576418381
0.0564187061386135
0.0564281150360745
0.0564378841539717
0.0564480133052812
0.0564585022962244
0.0564693509262836
0.0564805589882233
0.0564921262681095
0.0565040525453289
0.0565163375926112
0.0565289811760486
0.0565419830551218
0.0565553429827165
0.0565634793280593
0.0564377115140893
0.0560025618633516
0.055230209140775
0.0541565683344968
0.0528221323817697
0.051275302092155
0.0495786418595982
0.0477896710223091
0.0459530247630797
0.0440985625428253
0.0422283689059857
0.0403334108857929
0.0384043818452406
0.0364379433905778
0.0344768435996733
0.0325967911217698
0.0308956305163057
0.0295280360721468
0.0286514876758172
0.0282459544288986
0.0281504185087278
0.0330927712392134
0.0332058277095049
0.0336907577200465
0.0347436044898055
0.0363719722080817
0.0383816832246075
0.0405933128311907
0.0428943092956221
0.0451990203702951
0.0474609850774843
0.0496842222970141
0.0518794305466481
0.0540567786719063
0.0562123728009793
0.0583108051528851
0.0602997475686778
0.0621118621556615
0.0636747097799152
0.0649320346248192
0.0658365428156263
0.0663463823497353
0.0664942689825129
0.0664847319760252
0.0664690264536376
0.066453741842145
0.0664388784320455
0.0664244365060876
0.0664104163392455
0.0663968181986922
0.066383642343773
0.0663708890259829
0.0663585584889418
0.0663466509683705
0.066335166692071
0.0663241058799017
0.0663134687437592
0.0663032554875565
0.0662934663072046
0.0662841013905924
0.0662751609175689
0.0662666450599283
0.0662585539813919
0.0662508878375909
0.0662436467760541
0.0662368309361926
0.0662304404492862
0.0662244754384712
0.0662189360187286
0.0662138222968727
0.0662091343715409
0.0662048723331841
0.0662010362640586
0.0661976262382178
0.0661946423215043
0.0661920845715449
0.0661899530377442
0.0661882477612799
0.066186968775099
0.0661861161039141
0.0661856897642024
0.0661856897642025
0.0661861161039141
0.0661869687750989
0.0661882477612798
0.0661899530377441
0.066192084571545
0.0661946423215044
0.0661976262382177
0.0662010362640583
0.0662048723331839
0.0662091343715407
0.0662138222968725
0.0662189360187286
0.0662244754384715
0.0662304404492863
0.0662368309361925
0.066243646776054
0.0662508878375909
0.0662585539813921
0.0662666450599288
0.0662751609175688
0.066284101390592
0.0662934663072045
0.0663032554875567
0.066313468743759
0.0663241058799013
0.0663351666920708
0.0663466509683704
0.0663585584889416
0.0663708890259829
0.0663836423437729
0.0663968181986922
0.0664104163392456
0.0664244365060874
0.0664388784320453
0.0664537418421443
0.0664690264536378
0.0664847319760254
0.0664942689825103
0.066346382349729
0.065836542815622
0.0649320346248176
0.0636747097799132
0.0621118621556565
0.0602997475686798
0.0583108051528891
0.0562123728009404
0.0540567786719591
0.0518794305466061
0.0496842222970775
0.0474609850774565
0.0451990203702867
0.0428943092956354
0.0405933128311887
0.0383816832245904
0.0363719722080905
0.0347436044897992
0.0336907577200503
0.0332058277095043
0.0330927712392137
0.038216176550834
0.0383473978990208
0.0389146606633696
0.0401503270683163
0.0420490591086438
0.0443786273884492
0.0469339687141981
0.0495872952963453
0.052242652872674
0.0548497355710032
0.0574132670370674
0.0599453878339105
0.062457443452427
0.0649436628947965
0.0673628864789632
0.0696548112205297
0.0717419209900013
0.073541540978391
0.0749892731311469
0.0760307737802493
0.0766180367986307
0.0767888519929726
0.0767778630177664
0.076759725974709
0.0767420750077489
0.0767249104523586
0.076708232635062
0.0766920418734049
0.0766763384759228
0.076661122742114
0.0766463949624085
0.0766321554181438
0.0766184043815356
0.0766051421156527
0.0765923688743938
0.0765800849024594
0.0765682904353329
0.0765569856992564
0.0765461709112073
0.0765358462788788
0.0765260120006624
0.0765166682656261
0.0765078152534967
0.0764994531346423
0.0764915820700581
0.0764842022113488
0.0764773137007141
0.0764709166709367
0.0764650112453675
0.0764595975379151
0.0764546756530342
0.0764502456857154
0.0764463077214774
0.0764428618363566
0.0764399080969013
0.0764374465601649
0.0764354772737003
0.0764340002755552
0.0764330155942685
0.0764325232488681
0.076432523248868
0.0764330155942686
0.0764340002755551
0.0764354772737002
0.0764374465601649
0.0764399080969013
0.0764428618363566
0.0764463077214773
0.0764502456857154
0.0764546756530339
0.076459597537915
0.0764650112453675
0.0764709166709368
0.0764773137007142
0.0764842022113487
0.0764915820700581
0.0764994531346422
0.0765078152534964
0.0765166682656264
0.0765260120006629
0.0765358462788789
0.0765461709112071
0.0765569856992565
0.0765682904353329
0.0765800849024592
0.0765923688743936
0.0766051421156528
0.0766184043815355
0.0766321554181437
0.0766463949624081
0.0766611227421134
0.0766763384759226
0.0766920418734051
0.0767082326350623
0.0767249104523586
0.0767420750077485
0.0767597259747089
0.0767778630177663
0.07678885199297
0.0766180367986258
0.0760307737802452
0.0749892731311504
0.0735415409783859
0.0717419209900061
0.0696548112205261
0.0673628864789411
0.0649436628948131
0.0624574434524021
0.0599453878339427
0.0574132670370221
0.0548497355710235
0.0522426528726986
0.0495872952963025
0.0469339687142008
0.0443786273884477
0.042049059108701
0.0401503270683115
0.0389146606633668
0.0383473978990207
0.0382161765508335
0.0435272669092646
0.0436773203147212
0.0443299510648266
0.0457551778547801
0.0479342042264251
0.0505953490789843
0.0535069847842083
0.0565255361756442
0.059544373357353
0.062509207242227
0.0654254916359115
0.0683068614355287
0.0711658813258976
0.0739948334101161
0.0767465951550623
0.0793525965542653
0.0817247703537262
0.0837698316642015
0.0854149423146207
0.0865984508233551
0.0872659717958264
0.0874605551334909
0.087448061003047
0.0874274033657367
0.087407299356914
0.087387749358674
0.0873687537429196
0.0873503128713268
0.0873324270953103
0.0873150967559904
0.087298322184161
0.0872821037002572
0.0872664416143265
0.0872513362259978
0.087236787824454
0.0872227966884047
0.0872093630860586
0.0871964872750996
0.0871841695026599
0.087172410005297
0.0871612090089733
0.0871505667290331
0.0871404833701801
0.0871309591264602
0.0871219941812421
0.0871135887071997
0.0871057428662959
0.0870984568097656
0.087091730678103
0.0870855646010473
0.0870799586975692
0.0870749130758615
0.0870704278333269
0.0870665030565695
0.0870631388213861
0.087060335192759
0.0870580922248497
0.0870564099609936
0.0870552884336962
0.0870547276646291
0.0870547276646291
0.0870552884336961
0.0870564099609937
0.0870580922248498
0.087060335192759
0.0870631388213863
0.0870665030565695
0.087070427833327
0.0870749130758612
0.0870799586975692
0.0870855646010472
0.087091730678103
0.0870984568097658
0.0871057428662958
0.0871135887071998
0.0871219941812419
0.0871309591264598
0.08714048337018
0.0871505667290331
0.0871612090089737
0.087172410005297
0.0871841695026596
0.0871964872750997
0.0872093630860587
0.0872227966884047
0.0872367878244539
0.0872513362259976
0.0872664416143263
0.0872821037002569
0.0872983221841606
0.0873150967559902
0.0873324270953102
0.0873503128713269
0.0873687537429196
0.0873877493586738
0.0874072993569137
0.0874274033657368
0.087448061003047
0.0874605551334891
0.0872659717958224
0.0865984508233514
0.0854149423146224
0.0837698316642039
0.0817247703537325
0.0793525965542516
0.0767465951550588
0.0739948334101319
0.0711658813259015
0.0683068614355237
0.0654254916359066
0.0625092072422214
0.0595443733573643
0.0565255361756785
0.0535069847841798
0.0505953490789776
0.0479342042264074
0.0457551778547828
0.0443299510648222
0.0436773203147213
0.0435272669092648
0.0490329177452618
0.049202494358309
0.0499436343232147
0.0515653970686459
0.0540350038017561
0.0570398727288441
0.060320848604341
0.063717995471917
0.0671136191933008
0.0704493031330429
0.0737312577200113
0.0769746665692729
0.0801933578477595
0.0833775947514209
0.0864740732726185
0.0894056534657611
0.0920733303841543
0.0943728207821488
0.0962225375054217
0.097553253759141
0.09830397144358
0.09852319337384
0.0985091389537704
0.0984858683856077
0.0984632214729612
0.0984411986462566
0.0984198003244363
0.0983990269149251
0.0983788788135872
0.0983593564046901
0.0983404600608684
0.0983221901430891
0.0983045470006159
0.0982875309709777
0.0982711423799355
0.0982553815414518
0.09824024875766
0.0982257443188382
0.0982118685033774
0.0981986215777572
0.0981860037965212
0.0981740154022513
0.0981626566255449
0.0981519276849912
0.0981418287871529
0.0981323601265457
0.0981235218856177
0.0981153142347341
0.0981077373321595
0.0981007913240431
0.0980944763444045
0.0980887925151211
0.098083739945916
0.0980793187343472
0.0980755289657992
0.098072370713474
0.0980698440383837
0.0980679489893447
0.0980666856029743
0.0980660539036856
0.0980660539036858
0.0980666856029745
0.0980679489893448
0.0980698440383835
0.0980723707134742
0.0980755289657994
0.0980793187343471
0.0980837399459157
0.0980887925151208
0.0980944763444043
0.0981007913240429
0.0981077373321596
0.0981153142347343
0.098123521885618
0.098132360126546
0.0981418287871526
0.0981519276849906
0.0981626566255446
0.0981740154022514
0.0981860037965215
0.098198621577757
0.0982118685033771
0.0982257443188383
0.0982402487576601
0.0982553815414518
0.0982711423799354
0.0982875309709775
0.0983045470006159
0.0983221901430888
0.0983404600608684
0.0983593564046901
0.098378878813587
0.0983990269149251
0.0984198003244362
0.0984411986462562
0.0984632214729609
0.0984858683856078
0.0985091389537704
0.0985231933738376
0.0983039714435763
0.0975532537591355
0.0962225375054231
0.0943728207821481
0.0920733303841467
0.0894056534657792
0.0864740732726183
0.0833775947514052
0.0801933578477777
0.0769746665692716
0.0737312577200218
0.0704493031330409
0.0671136191932815
0.0637179954718987
0.0603208486043702
0.0570398727288493
0.0540350038017485
0.0515653970686447
0.0499436343232222
0.0492024943583085
0.0490329177452624
0.0547402563550732
0.054930072336054
0.0557629744024188
0.0575884962371523
0.060359341044953
0.0637205257726474
0.0673843669382592
0.0711739721358369
0.0749601792693737
0.0786802938946647
0.0823413105880395
0.0859600181780948
0.0895515543451646
0.0931040889463462
0.0965579099020117
0.099826993300315
0.102800995756467
0.105364233066069
0.107426048862653
0.108909363724443
0.109746324829567
0.109991087763261
0.109975415899909
0.109949436681746
0.109924153711419
0.109899567469453
0.109875678423557
0.109852487028576
0.109829993726454
0.109808198946187
0.109787103103782
0.109766706602223
0.109747009831428
0.109728013168211
0.109709716976253
0.109692121606061
0.109675227394937
0.109659034666944
0.10964354373288
0.109628754890241
0.1096146684232
0.109601284602574
0.109588603685801
0.109576625916915
0.109565351526521
0.109554780731777
0.109544913736368
0.109535750730488
0.109527291890823
0.109519537380535
0.109512487349244
0.109506141933011
0.109500501254333
0.109495565422123
0.109491334531704
0.109487808664797
0.109484987889518
0.109482872260366
0.109481461818218
0.10948075659033
0.10948075659033
0.109481461818218
0.109482872260365
0.109484987889518
0.109487808664798
0.109491334531704
0.109495565422123
0.109500501254333
0.109506141933011
0.109512487349243
0.109519537380536
0.109527291890823
0.109535750730487
0.109544913736368
0.109554780731777
0.109565351526521
0.109576625916915
0.109588603685801
0.109601284602574
0.1096146684232
0.109628754890241
0.10964354373288
0.109659034666944
0.109675227394937
0.109692121606061
0.109709716976253
0.109728013168211
0.109747009831427
0.109766706602223
0.109787103103782
0.109808198946187
0.109829993726454
0.109852487028576
0.109875678423556
0.109899567469453
0.109924153711418
0.109949436681746
0.109975415899909
0.109991087763259
0.109746324829562
0.108909363724437
0.10742604886265
0.105364233066073
0.102800995756466
0.0998269933003008
0.0965579099020105
0.0931040889463664
0.08955155434513
0.0859600181781236
0.0823413105880518
0.0786802938946322
0.0749601792693959
0.071173972135867
0.0673843669382298
0.063720525772627
0.0603593410449614
0.0575884962371703
0.0557629744024103
0.0549300723360541
0.0547402563550733
0.06065667112687
0.0608674686598095
0.061795502537661
0.0638322657249503
0.0669153931902843
0.0706459461448078
0.0747066741459561
0.0789031100099893
0.0830942045646455
0.0872128293349102
0.0912667916404534
0.0952745441723108
0.0986114917935392
0.101801488115377
0.106107802205437
0.110630105080864
0.113921652579378
0.116758296515414
0.119039979320648
0.120681481466809
0.121607844511088
0.121879083969352
0.121861735415804
0.121832948322033
0.121804932727681
0.121777689165211
0.121751218152879
0.121725520194696
0.121700595780367
0.121676445385257
0.121653069470336
0.121630468482143
0.121608642852736
0.12158759299966
0.121567319325901
0.121547822219849
0.121529102055263
0.121511159191232
0.121493993972143
0.121477606727648
0.121461997772633
0.121447167407186
0.121433115916569
0.121419843571191
0.121407350626584
0.121395637323372
0.121384703887257
0.12137455052899
0.121365177444354
0.121356584814145
0.121348772804152
0.121341741565146
0.12133549123286
0.12133002192798
0.121325333756132
0.121321426807869
0.121318301158669
0.121315956868921
0.121314393983921
0.121313612533871
0.121313612533871
0.121314393983921
0.121315956868921
0.121318301158669
0.12132142680787
0.121325333756132
0.12133002192798
0.12133549123286
0.121341741565146
0.121348772804152
0.121356584814145
0.121365177444354
0.12137455052899
0.121384703887257
0.121395637323372
0.121407350626584
0.121419843571191
0.121433115916569
0.121447167407186
0.121461997772633
0.121477606727648
0.121493993972143
0.121511159191231
0.121529102055263
0.121547822219849
0.121567319325901
0.12158759299966
0.121608642852736
0.121630468482142
0.121653069470336
0.121676445385257
0.121700595780367
0.121725520194696
0.121751218152879
0.12177768916521
0.121804932727681
0.121832948322033
0.121861735415804
0.121879083969351
0.121607844511086
0.120681481466806
0.119039979320646
0.116758296515415
0.113921652579371
0.11063010508087
0.106107802205425
0.101801488115388
0.0986114917935438
0.0952745441722976
0.0912667916404642
0.0872128293349208
0.0830942045646393
0.0789031100099674
0.0747066741459826