3 	0.00391112967796255 	3.46944695195361e-18 	-0.0420243416945048 	-0.000359639703748403 	1.37218583351487e-21
3 	0.0118766651674914 	1.04083408558608e-17 	-0.110665878171177 	-0.00152473482706261 	3.33801689692296e-22
3 	0.0201340015485761 	1.73472347597681e-17 	-0.155906877235762 	-0.0040102478206825 	-3.11804835938572e-21
3 	0.0286938283423949 	2.77555756156289e-17 	-0.18134080958097 	-0.00726668919793893 	2.34711814824171e-21
3 	0.0375672266585909 	3.46944695195361e-17 	-0.193585130285769 	-0.0104999608940663 	5.78281130469719e-25
3 	0.0467656835403032 	3.46944695195361e-17 	-0.199029301294264 	-0.013490523378953 	-2.64668059784198e-21
3 	0.0526479212582088 	3.64291929955129e-17 	-0.200826228639792 	-0.0152587116338908 	-3.19993553363879e-21
3 	0.0575013897627896 	3.98986399474666e-17 	-0.2013979454469 	-0.0165939343026434 	-2.40278988812279e-21
3 	0.0661858406082648 	4.5102810375397e-17 	-0.201722011190596 	-0.018840630191169 	-7.26376777338842e-22
3 	0.0764326811267815 	5.89805981832114e-17 	-0.200992288772097 	-0.0212298765101944 	-7.64035253477886e-22
3 	0.0870548934207258 	6.93889390390723e-17 	-0.199353895005709 	-0.0234509565162134 	-1.16107544061099e-21
3 	0.0980662284574839 	5.89805981832114e-17 	-0.196972999859089 	-0.0255246615905158 	-3.09751316682176e-22
3 	0.109480940942647 	5.20417042793042e-17 	-0.193960174269793 	-0.0274676631115023 	7.83142224551053e-24
3 	0.121313807773417 	5.89805981832114e-17 	-0.190394951653163 	-0.0292919854699529 	3.3730763872705e-22
3 	0.13358014716801 	5.89805981832114e-17 	-0.186336588718269 	-0.0310059162301613 	-2.25973856393635e-21
3 	0.146295838495838 	5.55111512312578e-17 	-0.181829660350434 	-0.0326149035121597 	-2.18060568750562e-21
3 	0.159477342834115 	6.07153216591882e-17 	-0.176907441492205 	-0.0341222422942616 	-3.45285645488303e-22
3 	0.173141724277517 	6.59194920871187e-17 	-0.171594174958968 	-0.035529588620301 	-1.61472642367212e-21
3 	0.18730667202848 	6.93889390390723e-17 	-0.165906678525805 	-0.0368373424460956 	2.22411878950136e-21
3 	0.201990523296728 	7.63278329429795e-17 	-0.159855506601724 	-0.0380449325465884 	2.26870976353354e-22
3 	0.217212287037676 	8.06646416329215e-17 	-0.153445786164839 	-0.0391510318975748 	8.61324230117676e-24
3 	0.232991668560441 	8.32667268468867e-17 	-0.146677802440631 	-0.0401537258524201 	-1.01760455281038e-22
3 	0.249349095037321 	9.08561420542853e-17 	-0.13954738553711 	-0.0410506498820519 	2.16330552026954e-21
3 	0.266305741947753 	9.34582272682505e-17 	-0.132046133859466 	-0.0418391093995889 	-2.34416423813976e-21
3 	0.283883560490999 	9.36750677027476e-17 	-0.124150289610929 	-0.042542898345134 	2.18022510760472e-21
3 	0.30210530600303 	9.36750677027476e-17 	-0.115851504538044 	-0.0431387787207985 	-1.61347334203555e-22
3 	0.320994567414413 	9.36750677027476e-17 	-0.107131952504039 	-0.0436146366518737 	-2.64198340928523e-22
3 	0.340575797787321 	1.00613961606655e-16 	-0.0979651802483583 	-0.0439677719356174 	1.60674102659536e-22
3 	0.360874345971201 	1.00613961606655e-16 	-0.0883196973460984 	-0.044195786813987 	2.42809127580549e-21
3 	0.38191648941809 	9.36750677027476e-17 	-0.0781584633949305 	-0.0442967463757665 	-3.86148894543714e-21
3 	0.403729468200046 	8.67361737988404e-17 	-0.0674382534018875 	-0.0442693615029836 	8.83426413816547e-24
3 	0.426341520272734 	8.32667268468867e-17 	-0.0561088876961325 	-0.044113194382261 	1.06455110772861e-21
3 	0.449781918030829 	7.63278329429795e-17 	-0.0441123115967218 	-0.0438288847338245 	1.70750397291803e-21
3 	0.470050820755539 	7.45931094670027e-17 	-0.0335183171565538 	-0.043495999630653 	5.84370762465734e-22
3 	0.482418898762182 	7.80625564189563e-17 	-0.0269687498095418 	-0.04325886887124 	1.39191317307923e-22
3 	0.499270241132364 	6.59194920871187e-17 	-0.0178849400673817 	-0.0428900477555346 	3.16769422767042e-25
3 	0.525382231502763 	6.93889390390723e-17 	-0.00351077442093089 	-0.0422438917465714 	1.02517802096533e-21
3 	0.552450780547768 	8.50014503228635e-17 	0.0118475996966662 	-0.0414853782447989 	-1.14864871285343e-21
3 	0.58051092981285 	8.15320033709099e-17 	0.0283026736878345 	-0.0406230191298138 	2.6457472515299e-23
3 	0.609599004517911 	7.37257477290143e-17 	0.0459844934850707 	-0.0396669008588551 	5.66001208215424e-21
3 	0.639752660582033 	7.45931094670027e-17 	0.0650402687669241 	-0.0386284143990087 	1.84002090922655e-22
3 	0.671010933370887 	7.37257477290143e-17 	0.0856349626597305 	-0.0375210325898517 	0
3 	0.703414288229901 	6.93889390390723e-17 	0.108040692800691 	-0.036397029443626 	6.92170338699623e-19
3 	0.737004672868607 	6.93889390390723e-17 	0.132767375414177 	-0.0351948133108555 	3.02411514725313e-17
3 	0.771825571663977 	6.93889390390723e-17 	0.160710541620862 	-0.0339279556238297 	-3.08255261871629e-17
3 	0.807922061953055 	6.93889390390723e-17 	0.192242111388467 	-0.0325902960488007 	-4.45543455891949e-18
3 	0.845340872387744 	7.63278329429795e-17 	0.226948525749593 	-0.0312360297719748 	2.18764723343657e-21
3.00000000000001 	0.866676392750136 	8.32667268468867e-17 	0.247251383406093 	-0.030468514924193 	1.05969879570542e-21
3.00000000000001 	0.886455402111195 	8.67361737988404e-17 	0.266409987224921 	-0.0297803305444792 	4.01933448547228e-21
3.00000000000001 	0.92445065876506 	9.19403442267708e-17 	0.303496012959005 	-0.0284346138500152 	7.12844057359868e-21
3.00000000000001 	0.966210582287602 	9.54097911787244e-17 	0.34461340393924 	-0.026927866831977 	1.15475173960269e-22
3.00000000000001 	1.00949415586823 	1.06685493772574e-16 	0.387132704772814 	-0.0253142170519387 	2.70684053755474e-20
3.00000000000001 	1.05435664465128 	1.10154940724527e-16 	0.430574319281763 	-0.0235848730761399 	-1.6394502232004e-20
3.00000000000001 	1.10085528468405 	1.00613961606655e-16 	0.474465346669029 	-0.0217251394956547 	2.1145193450514e-20
3.00000000000001 	1.14904934932428 	1.00613961606655e-16 	0.517752667598123 	-0.0197834352987166 	-3.19988479982452e-21
3.00000000000001 	1.19900021737469 	1.11022302462516e-16 	0.559676874903187 	-0.0177993227538688 	9.91485639919527e-21
3.00000000000001 	1.22713389413205 	1.22298005056365e-16 	0.582186193542927 	-0.0166993775979937 	1.07860806700444e-20
3.00000000000001 	1.25366308516615 	1.22298005056365e-16 	0.601745065915146 	-0.0157186988148532 	9.54623317629983e-21
3.00000000000001 	1.30497068633627 	1.21430643318376e-16 	0.637617100573196 	-0.0138911583141633 	2.40397629262518e-21
3.00000000000001 	1.36091955943679 	1.23599047663348e-16 	0.672838501510564 	-0.0120795659705238 	2.27142721640499e-20
3.00000000000001 	1.41883962727306 	1.27068494615301e-16 	0.705300041915948 	-0.0104368212789764 	-1.74768563924998e-20
3.00000000000001 	1.47879577048623 	1.35308431126191e-16 	0.735136646990098 	-0.00899301637733286 	-3.1440497426429e-21
3.00000000000001 	1.53641771586125 	1.28369537222284e-16 	0.760952994272509 	-0.00781843553909043 	-7.86437200891842e-21
3.00000000000001 	1.56800193463397 	1.14491749414469e-16 	0.774330928186115 	-0.00723304391682233 	-1.07181412765233e-20
3.00000000000001 	1.60525271041419 	1.17961196366423e-16 	0.788883418740668 	-0.0066301938756822 	-9.70131654109993e-21
3.00000000000001 	1.67193277963729 	1.24466409401336e-16 	0.813377626570481 	-0.00567150254598357 	1.43294154990964e-20
3.00000000000001 	1.74083042492046 	1.17527515497429e-16 	0.836303877991711 	-0.00485993418908558 	9.09969398544814e-22
3.00000000000001 	1.81200624734564 	1.14491749414469e-16 	0.857764461803037 	-0.00418547630458936 	6.11511856364581e-21
3.00000000000001 	1.86045129005489 	1.07552855510562e-16 	0.871450742104916 	-0.00378940643654914 	1.90068608272748e-21
3.00000000000001 	1.89781873885847 	1.07552855510562e-16 	0.881436256191692 	-0.00352376913136185 	3.18635165293876e-21
3.00000000000001 	1.96145309574692 	1.1666015375944e-16 	0.89769459252801 	-0.00312253541323115 	1.17470493033564e-21
3.00000000000001 	2.04004996790234 	1.18828558104411e-16 	0.916266071177547 	-0.00269302457687763 	0
3.00000000000001 	2.11873460271875 	1.18828558104411e-16 	0.933338461813637 	-0.00234099871389085 	0
3.00000000000001 	2.19463865000285 	1.11889664200504e-16 	0.948583633000966 	-0.00204321678688319 	0
3.00000000000001 	2.26786037121376 	1.15359111152458e-16 	0.962217529556457 	-0.00178407811671355 	0
3.00000000000001 	2.33849455540975 	1.18828558104411e-16 	0.97441525110457 	-0.00156531125581455 	0
3.00000000000001 	2.40663264195737 	1.18828558104411e-16 	0.985331645489019 	-0.00138026067447517 	0
3.00000000000001 	2.47236283890405 	1.22298005056365e-16 	0.99510641740889 	-0.0012249209901205 	0
3.00000000000001 	2.53577023716771 	1.22298005056365e-16 	1.00386898660723 	-0.00109410199578876 	0
3.00000000000001 	2.59693692069108 	1.32706345912226e-16 	1.01173384886201 	-0.000982926183333282 	4.87464760326161e-18
3.00000000000001 	2.65594207270334 	1.43114686768087e-16 	1.01879727532288 	-0.000887340816416006 	1.25109848851479e-16
3.00000000000001 	2.71286207822659 	1.43114686768087e-16 	1.02513920392953 	-0.000804386975011438 	-1.29625471043885e-16
3.00000000000001 	2.76777062296 	1.43114686768087e-16 	1.03082674436994 	-0.000731887632080376 	-5.02399939151603e-18
3.00000000000001 	2.8207387886695 	1.4658413372004e-16 	1.03591692623866 	-0.000668186822991498 	0
3.00000000000001 	2.87183514520655 	1.50053580671994e-16 	1.04045855436578 	-0.000611967185592256 	0
3.00000000000001 	2.92112583927515 	1.50053580671994e-16 	1.04449343526995 	-0.000562144915677794 	0
3.00000000000001 	2.9686746800619 	1.50053580671994e-16 	1.0480572224186 	-0.000517810736453627 	0
