2 	0.00391112967796261 	1.10588621593521e-17 	0.0727087098958429 	2.10663042546975e-06 	920.062279963176 	2.04612345400087e-07 	4.38539589048977e-39
2 	0.0118766651674913 	1.95156391047391e-17 	0.0727186201637477 	5.05704406179535e-05 	174.47134517368 	1.22998766322394e-05 	0
2 	0.0201340015485761 	2.16840434497101e-17 	0.0727273126864683 	0.000338628955483307 	56.4488154214516 	0.000160631799532769 	0
2 	0.028693828342395 	1.69135538907739e-17 	0.0727325955969284 	0.00110646319151973 	26.8220524849612 	0.000568050542842639 	0
2 	0.0375672266585909 	8.23993651088983e-18 	0.0727377704138673 	0.00226086426236734 	15.4258049447047 	0.000697455886187262 	0
2 	0.0467656835403032 	2.60208521396521e-18 	0.0727472761637895 	0.00350345505197381 	10.0869510376731 	0.000418063757592217 	0
2 	0.0563011068347007 	-2.60208521396521e-18 	0.0727617520940258 	0.00468597229553757 	7.30674725486935 	0.000166207416370039 	0
2 	0.0661858406082648 	-6.07153216591882e-18 	0.0727785276182435 	0.00577546482156403 	5.71096724653051 	5.36924131518825e-05 	0
2 	0.0764326811267815 	-6.07153216591882e-18 	0.0727949317668773 	0.00677845050503225 	4.70904495769165 	3.05903001556111e-05 	0
2 	0.0870548934207258 	-8.67361737988404e-19 	0.0728093346896234 	0.0077097775511347 	4.03189474308717 	5.25227526269036e-05 	0
2 	0.0980662284574839 	-2.60208521396521e-18 	0.0728207624967312 	0.00858341545040983 	3.54731265667245 	9.67597251239992e-05 	0
2 	0.109480940942647 	-1.21430643318376e-17 	0.0728285286358697 	0.00941064283277719 	3.18501759304699 	0.000152593304998868 	0
2 	0.121313807773417 	-1.04083408558608e-17 	0.0728320975819226 	0.0102002225448493 	2.90488285982568 	0.000214919271910943 	0
2 	0.13358014716801 	-3.46944695195361e-18 	0.0728310368728468 	0.0109589400710171 	2.68256034042881 	0.000281258139736672 	0
2 	0.146295838495838 	1.73472347597681e-18 	0.072824989533562 	0.0116920972250914 	2.50250511253313 	0.00035042214954893 	0
2 	0.159477342834115 	1.73472347597681e-18 	0.0728136571952864 	0.0124038921090362 	2.35436365505968 	0.000421899572194229 	0
2 	0.173141724277517 	3.46944695195361e-18 	0.0727967921223374 	0.0130976981627563 	2.23099301526675 	0.00049555810316429 	0
2 	0.18730667202848 	1.38777878078145e-17 	0.0727741952503338 	0.0137762679442072 	2.12731889054881 	0.00057149707267367 	0
2 	0.201990523296728 	1.73472347597681e-17 	0.0727457180884887 	0.0144418839173971 	2.0396484641978 	0.000649972957580175 	0
2 	0.217212287037676 	3.46944695195361e-18 	0.0727112674693585 	0.0150964729407191 	1.96524145078882 	0.00073136334583561 	0
2 	0.232991668560441 	-1.04083408558608e-17 	0.0726708127704946 	0.0157416965515719 	1.90203393022319 	0.000816152778591382 	0
2 	0.249349095037321 	-1.04083408558608e-17 	0.0726243955782954 	0.0163790259332596 	1.84845604264401 	0.000904932582252029 	0
2 	0.266305741947753 	-1.38777878078145e-17 	0.0725721420364611 	0.0170098083980325 	1.80330942058639 	0.000998411259410136 	0
2 	0.283883560490999 	-1.38777878078145e-17 	0.0725142784074906 	0.0176353310442832 	1.76568402260618 	0.00109743457508793 	0
2 	0.30210530600303 	-1.73472347597681e-17 	0.0724511507245528 	0.0182568867386981 	1.73490200524345 	0.00120301624175698 	0
2 	0.320994567414414 	-3.12250225675825e-17 	0.0723832498775739 	0.0188758476123364 	1.71048107186673 	0.00131638163176382 	0
2 	0.340575797787321 	-3.46944695195361e-17 	0.0723112441290969 	0.0194937517923053 	1.69211277500985 	0.00143902855568771 	0
2 	0.360874345971201 	-3.46944695195361e-17 	0.0722360219799755 	0.0201124101281583 	1.67965329775761 	0.00157281106714267 	0
2 	0.379381853751547 	-3.81639164714898e-17 	0.0721679855697256 	0.0206602750148456 	1.67354570373914 	0.00170177628911107 	0
2 	0.390092168053834 	-4.16333634234434e-17 	0.0721289551897192 	0.0209719543105756 	1.67175180375478 	0.00177895936288863 	0
2 	0.403729468200046 	-3.46944695195361e-17 	0.0720808894593568 	0.021361203961118 	1.67260275622774 	0.00188329379869767 	0
2 	0.426341520272734 	-2.77555756156289e-17 	0.0720043371128808 	0.0219974232978765 	1.67854521176809 	0.00206634105431324 	0
2 	0.449781918030829 	-3.12250225675825e-17 	0.0719316209602264 	0.022647342521185 	1.69163388029168 	0.00227411388976637 	0
2 	0.474081006202548 	-3.46944695195361e-17 	0.0718660415812989 	0.0233169846616224 	1.71281076867236 	0.00251287280217998 	0
2 	0.499270241132364 	-3.46944695195361e-17 	0.071811939947008 	0.0240143053773687 	1.74340593598413 	0.0027908260265279 	0
2 	0.525382231502763 	-3.12250225675825e-17 	0.0717750236719586 	0.0247498471236893 	1.78525139635642 	0.00311874444420335 	0
2 	0.552450780547767 	-2.42861286636753e-17 	0.0717627240222854 	0.0255376055275787 	1.8408311880753 	0.00351068964077117 	0
2 	0.58051092981285 	-1.73472347597681e-17 	0.0717847437840291 	0.0263961750217862 	1.91346980650903 	0.00398475630618975 	0
2 	0.609599004517911 	-3.46944695195361e-18 	0.0718547288289061 	0.0273496472618605 	2.0075429945173 	0.00456343388552326 	0
2 	0.639752660582033 	1.04083408558608e-17 	0.0719931341163271 	0.0284262616448445 	2.12858886875945 	0.00527987759325602 	0
2 	0.671010933370887 	1.04083408558608e-17 	0.0722175685086261 	0.0296659488201776 	2.28252624283027 	0.00620890902000383 	0
2 	0.703414288229901 	1.73472347597681e-17 	0.0724888887100262 	0.0311127830576217 	2.46868054272067 	0.00751809900906851 	0
2 	0.737004672868606 	2.08166817117217e-17 	0.0727735721909275 	0.0328303297459435 	2.6785989449898 	0.00923579300235404 	0
2 	0.771825571663976 	1.75640751942652e-17 	0.0731243251923242 	0.0349036583838705 	2.9086950778355 	0.011547318857848 	0
2 	0.807922061953053 	1.84314369322536e-17 	0.0735892786480637 	0.0373667938631885 	3.15630540891562 	0.0142875691706502 	0
2 	0.845340872387742 	1.38777878078145e-17 	0.0741491500012827 	0.0401135898671444 	3.4056415019519 	0.017146619385459 	0
2 	0.884130443427309 	6.07153216591882e-18 	0.0747545247544683 	0.042855461631409 	3.62540901768447 	0.0198152161183321 	0
2 	0.924340990046898 	1.73472347597681e-18 	0.0753834019341442 	0.0452998138845943 	3.79312810230333 	0.0220985955902734 	0
2 	0.966024566743242 	0 	0.0760543486098263 	0.0471933696499846 	3.89906042273876 	0.0238463351047879 	0
2 	1.00923513492173 	-1.73472347597681e-18 	0.0768048024137698 	0.0483175560755896 	3.93343316222972 	0.0248053855788278 	0
2 	1.05402863275206 	0 	0.077663493134171 	0.0485231989723859 	3.88458845739611 	0.0246156784782152 	0
2 	1.10046304758287 	0 	0.0786672350728311 	0.047802629751776 	3.7437926043748 	0.0230153239560754 	0
2 	1.14859849100923 	0 	0.0798944682957289 	0.0463427905891947 	3.51354395829197 	0.0200637106507222 	0
2 	1.1731499461078 	0 	0.080578356532037 	0.0454653731045425 	3.3768961544432 	0.0182663169054792 	0
2 	1.19854810382362 	-3.46944695195361e-18 	0.0813380328014059 	0.0444861880597616 	3.2140131429313 	0.0162336871929925 	0
2 	1.25022400101563 	-1.04083408558608e-17 	0.0828604425295423 	0.0425860969648349 	2.87697654796147 	0.0123373647681883 	0
2 	1.30384562673186 	-1.04083408558608e-17 	0.0843563197004782 	0.0409149730961426 	2.54018499105323 	0.00907918908652207 	0
2 	1.35943156962566 	-6.93889390390723e-18 	0.0858109764144941 	0.039570781148204 	2.2367074540074 	0.00673122451017239 	0
2 	1.41705378838763 	-1.04083408558608e-17 	0.087241988605564 	0.0384832239473842 	1.98147687694552 	0.00519817445898161 	0
2 	1.47678687776592 	-1.04083408558608e-17 	0.0886670063634968 	0.0375098590595861 	1.77476019925042 	0.00423847459311182 	0
2 	1.53870816513278 	-1.21430643318376e-17 	0.0901033641595418 	0.0365074253068445 	1.60798745418681 	0.00362072104199191 	0
2 	1.60289781058851 	-1.38777878078145e-17 	0.0915791590018786 	0.0353418244967524 	1.46879045014858 	0.00318386572049873 	0
2 	1.66943891073267 	-6.93889390390723e-18 	0.0930940346475233 	0.0339464502297418 	1.34523591771565 	0.00280921700069905 	0
2 	1.73841760623657 	-5.20417042793042e-18 	0.0946437346427176 	0.0323109928644535 	1.2345674368817 	0.00244739096004745 	0
2 	1.8099231933566 	-1.04083408558608e-17 	0.0962176241604575 	0.030459530867867 	1.13550277359332 	0.00208352652529683 	0
2 	1.87639343533151 	-1.38777878078145e-17 	0.0976386726770298 	0.0286463555789334 	1.05490590295757 	0.00175847752391508 	0
2 	1.91412260223978 	-1.73472347597681e-17 	0.0984268512595728 	0.0275966401657692 	1.01249796368817 	0.00158004070259542 	0
2 	1.96088870322038 	-1.73472347597681e-17 	0.0992883834624707 	0.0263961828556001 	0.969105615161661 	0.00138730286628384 	0
2 	2.02025965173185 	-1.38777878078145e-17 	0.100482365337884 	0.0247199101461997 	0.913995997865735 	0.00113084762471246 	0
2 	2.06006301192217 	-1.38777878078145e-17 	0.101300484767199 	0.0235228417390964 	0.878911217600278 	0.000966422973511759 	0
2 	2.09845978584128 	-1.38777878078145e-17 	0.102005338791357 	0.0224716583383949 	0.850869759176372 	0.000831252003535581 	0
2 	2.13549967996946 	-1.38777878078145e-17 	0.102670742997272 	0.0214799989505369 	0.826808113647623 	0.000710668023336739 	0
2 	2.17123064424048 	-1.38777878078145e-17 	0.103292760795497 	0.020547364738244 	0.806451723834133 	0.00060412624442818 	0
2 	2.20569893411516 	-2.08166817117217e-17 	0.103873296380861 	0.019672009612883 	0.789554007985207 	0.000510251473829614 	0
2 	2.23894917046123 	-2.77555756156289e-17 	0.104414862255937 	0.0188513488538969 	0.775900327760978 	0.000427769620495916 	0
2 	2.27102439731726 	-2.77555756156289e-17 	0.104919683940824 	0.0180823023276586 	0.765310733120087 	0.000355479997597343 	0
2 	2.30196613761522 	-3.12250225675825e-17 	0.105389882327662 	0.0173615642330046 	0.757641416073997 	0.00029228289378975 	0
2 	2.33181444693392 	-3.46944695195361e-17 	0.105827521336367 	0.016685801612481 	0.75278519129514 	0.000237197137453946 	0
2 	2.3606079653529 	-3.81639164714898e-17 	0.106234590960971 	0.0160517915830272 	0.750671430337126 	0.000189367605062871 	0
2 	2.38838396747391 	-3.81639164714898e-17 	0.106612996800787 	0.0154565098766436 	0.751265823466238 	0.000148067317067636 	0
2 	2.41517841067461 	-3.46944695195361e-17 	0.106964556005286 	0.0148971828585377 	0.75457024782947 	0.000112696381134126 	0
2 	2.44102598165722 	-3.81639164714898e-17 	0.107290995510108 	0.014371313436912 	0.760622934282688 	8.27791121830306e-05 	0
2 	2.46596014135208 	-4.16333634234434e-17 	0.107593951883072 	0.0138766891552727 	0.769499059488928 	5.79604253581397e-05 	0
2 	2.49001316823444 	-4.16333634234434e-17 	0.107874972529392 	0.0134113787256744 	0.781311842356695 	3.80023591467028e-05 	0
2 	2.51321620011054 	-4.16333634234434e-17 	0.108135517878998 	0.0129737215086038 	0.796214188772257 	2.27813357278551e-05 	0
2 	2.535599274427 	-4.16333634234434e-17 	0.108376964208723 	0.0125623130172902 	0.814400900238731 	1.22865341931172e-05 	0
2 	2.55719136715571 	-3.81639164714898e-17 	0.108600606832078 	0.0121759883979208 	0.836111435714547 	6.61953692913833e-06 	0
2 	2.57802043030466 	-3.81639164714898e-17 	0.108807663460201 	0.0118138049639741 	0.861633187891833 	5.99520061178801e-06 	0
2 	2.59811342810315 	-4.16333634234434e-17 	0.108999277596229 	0.0114750241906925 	0.89130520269134 	1.07434914118043e-05 	0
2 	2.61749637190832 	-3.81639164714898e-17 	0.109176521873668 	0.0111590930600358 	0.925522232585689 	2.13118023210568e-05 	0
2 	2.63619435387806 	-3.46944695195361e-17 	0.109340401288081 	0.0108656242561542 	0.964738971294936 	3.82670393920915e-05 	0
2 	2.65423157945406 	-3.81639164714898e-17 	0.109491856301505 	0.0105943744324019 	1.00947427342941 	6.22965367780236e-05 	0
2 	2.67163139869691 	-4.16333634234434e-17 	0.109631765821706 	0.010345219608108 	1.06031512646743 	9.42066710538046e-05 	0
2 	2.68841633651388 	-4.16333634234434e-17 	0.109760950074504 	0.0101181267304034 	1.11792012899836 	0.000134917951655403 	0
2 	2.70460812181851 	-4.16333634234434e-17 	0.109880173397643 	0.009913120592117 	1.18302226077557 	0.000185455450726796 	0
2 	2.72022771565972 	-4.16333634234434e-17 	0.109990146989108 	0.00973024567558409 	1.25643083625833 	0.000246933804885741 	0
2 	2.73529533835695 	-4.16333634234434e-17 	0.110091531641565 	0.00956952312785481 	1.33903274754283 	0.000320536772834928 	0
2 	2.74983049567626 	-3.81639164714898e-17 	0.110184940487516 	0.00943090396414615 	1.43179345564823 	0.000407492524775461 	0
2 	2.76385200408157 	-3.46944695195361e-17 	0.110270941767152 	0.00931422068003522 	1.5357586977788 	0.00050904744028568 	0
2 	2.77737801509344 	-3.81639164714898e-17 	0.110350061613507 	0.0092191405812805 	1.65205853135171 	0.000626443033009429 	0
2 	2.79042603878708 	-3.81639164714898e-17 	0.110422786829157 	0.00914512507932986 	1.78191608270642 	0.000760902384388912 	0
2 	2.80301296646003 	-3.46944695195361e-17 	0.110489567608092 	0.00909139966169812 	1.92666411732395 	0.000913633727328152 	0
2 	2.81515509249873 	-3.46944695195361e-17 	0.11055082013921 	0.00905693895618332 	2.08777318031794 	0.00108585914992574 	0
2 	2.82686813547238 	-3.46944695195361e-17 	0.110606929017891 	0.00904047010501559 	2.26689546069724 	0.00127887552717725 	0
2 	2.83816725848143 	-3.12250225675825e-17 	0.110658249392606 	0.0090404955884125 	2.46592865773525 	0.0014941527794105 	0
2 	2.84906708878692 	-2.77555756156289e-17 	0.110705108786347 	0.00905533396176077 	2.68710402387964 	0.00173347180378287 	0
2 	2.85958173674617 	-2.77555756156289e-17 	0.11074780855832 	0.00908317416039764 	2.93310260436725 	0.00199910159931926 	0
2 	2.86972481407933 	-2.77555756156289e-17 	0.110786625008511 	0.00912213660590568 	3.20720378190759 	0.00229401291476967 	0
2 	2.87950945149043 	-2.42861286636753e-17 	0.11082181016714 	0.00917033274395047 	3.51347092916435 	0.00262212464948908 	0
2 	2.88894831566567 	-2.08166817117217e-17 	0.110853592332493 	0.00922591405619921 	3.85698065893461 	0.00298857919065024 	0
2 	2.89805362567107 	-2.08166817117217e-17 	0.1108821764636 	0.00928710195736502 	4.24410524271581 	0.00340004321066893 	0
2 	2.90683716877067 	-2.08166817117217e-17 	0.110907744859747 	0.00935219107186752 	4.68286274411889 	0.0038650298895472 	0
2 	2.9153103156857 	-2.08166817117217e-17 	0.110930459025115 	0.00941951994614221 	5.18335714119519 	0.0043942352670963 	0
2 	2.92348403531449 	-2.08166817117217e-17 	0.110950460682783 	0.00948740533077614 	5.75834292424831 	0.00500087380490373 	0
2 	2.9313689089323 	-1.73472347597681e-17 	0.110967860203407 	0.00955403941330304 	6.42396880676669 	0.00570099801616104 	0
2 	2.93897514388925 	-1.73472347597681e-17 	0.11098272058285 	0.00961735491906032 	7.2007890041331 	0.00651703817601458 	0
2 	2.94631258682425 	-2.08166817117217e-17 	0.110995225655797 	0.00967474892156534 	8.11546925452053 	0.00748493323126887 	0
2 	2.95339073641193 	-1.73472347597681e-17 	0.111005904471505 	0.00972234186420029 	9.20405212308196 	0.00864867181219435 	0
2 	2.96021875565916 	-1.38777878078145e-17 	0.111014866272658 	0.00975375408470475 	10.5152944150716 	0.0100481077446938 	0
2 	2.96680548376697 	-1.38777878078145e-17 	0.1110216737159 	0.00975884668937028 	12.1095264549985 	0.011733729008965 	0
2 	2.97315944757337 	-1.38777878078145e-17 	0.111026138458568 	0.00972174722611186 	14.0577770474207 	0.013725688055115 	0
2 	2.97928887259171 	-1.38777878078145e-17 	0.111028329352359 	0.0096197936510802 	16.4484485157237 	0.016028488842673 	0
2 	2.98520169365903 	-1.38777878078145e-17 	0.11102842281575 	0.00942215882956977 	19.3989651979123 	0.018621115514465 	0
2 	2.99090556520807 	-1.38777878078145e-17 	0.111026681590656 	0.00908781086042585 	23.0751268931945 	0.0214203032787546 	0
2 	2.99640787117633 	-1.38777878078145e-17 	0.111023466150157 	0.00856342609501631 	27.7269935347404 	0.0242078287222181 	0
2 	3.00171573456492 	-1.38777878078145e-17 	0.111019225161759 	0.00778401271862355 	33.7635252180761 	0.0265303546583215 	0
2 	3.00683602665963 	-1.73472347597681e-17 	0.111014428155733 	0.00668172974000666 	41.9413948143101 	0.0275755122588254 	0
2 	3.01177537592613 	-2.42861286636753e-17 	0.111009562665285 	0.00521013115998874 	53.9287821532545 	0.0257085462465989 	0
2 	3.01654017659085 	-2.77555756156289e-17 	0.11100528984091 	0.00343647852497759 	74.2607016750724 	0.0187306218836505 	0
2 	3.02113659691864 	-2.77555756156289e-17 	0.111002108812559 	0.00173512540368107 	118.597775240794 	0.00903001636976088 	0
2 	3.02557058719784 	-3.12250225675825e-17 	0.110999837051795 	0.000602559290624659 	258.33739757626 	0.00244394978346861 	0
2 	3.02984788744324 	-3.46944695195361e-17 	0.110997944214802 	0.000126794146160545 	1051.88003879994 	0.000314369730115458 	0
