2 	0.00391112967796261 	1.10588621593521e-17 	-0.0241673247831783 	0.000107891226616809 	-3.79891724187454e-16
2 	0.0118766651674913 	1.95156391047391e-17 	-0.0717240034834269 	0.00055254089564912 	5.05326243955444e-16
2 	0.0201340015485761 	2.16840434497101e-17 	-0.11743167819424 	0.00141935707508476 	1.51257616965215e-17
2 	0.028693828342395 	1.69135538907739e-17 	-0.155966546246984 	0.0025440635404136 	-1.12781158855515e-22
2 	0.0375672266585909 	8.23993651088983e-18 	-0.181484536852047 	0.00366037213903902 	-6.10176786921403e-21
2 	0.0467656835403032 	2.60208521396521e-18 	-0.195108563625939 	0.00463617328973391 	8.34793882874138e-21
2 	0.0563011068347007 	-2.60208521396521e-18 	-0.201508074136066 	0.00549055211639464 	2.51770583034676e-18
2 	0.0661858406082648 	-6.07153216591882e-18 	-0.204047106453005 	0.00627024303873023 	3.46570245546807e-18
2 	0.0764326811267815 	-6.07153216591882e-18 	-0.204464608639059 	0.00700408904824694 	-1.64382225664014e-18
2 	0.0870548934207258 	-8.67361737988404e-19 	-0.203611972243899 	0.00770770793703144 	-2.62016754028333e-18
2 	0.0980662284574839 	-2.60208521396521e-18 	-0.201922851879627 	0.00839026528322652 	3.53380929313572e-22
2 	0.109480940942647 	-1.21430643318376e-17 	-0.199631643918978 	0.00905740150932287 	3.15632337118057e-23
2 	0.121313807773417 	-1.04083408558608e-17 	-0.196871745688471 	0.00971254604957293 	-1.6206244060422e-21
2 	0.13358014716801 	-3.46944695195361e-18 	-0.193721703147852 	0.0103576587979605 	-7.25558261097533e-18
2 	0.146295838495838 	1.73472347597681e-18 	-0.190228242904576 	0.0109936716667524 	-9.73953544901894e-17
2 	0.159477342834115 	1.73472347597681e-18 	-0.186418465341799 	0.0116207439395883 	8.80445679710446e-17
2 	0.173141724277517 	3.46944695195361e-18 	-0.182306638136035 	0.0122384055327744 	8.67024922111513e-18
2 	0.18730667202848 	1.38777878078145e-17 	-0.177898140631678 	0.0128456326867832 	1.35156859175119e-21
2 	0.201990523296728 	1.73472347597681e-17 	-0.173191822853202 	0.0134408802696133 	2.86129627709047e-21
2 	0.217212287037676 	3.46944695195361e-18 	-0.168181437003163 	0.0140220836859865 	5.48041484238968e-24
2 	0.232991668560441 	-1.04083408558608e-17 	-0.162856498257251 	0.0145866374580726 	-1.45361609231913e-23
2 	0.249349095037321 	-1.04083408558608e-17 	-0.157202774251555 	0.0151313541535768 	6.17364635906736e-22
2 	0.266305741947753 	-1.38777878078145e-17 	-0.151202515943781 	0.015652405241682 	1.36190685358839e-21
2 	0.283883560490999 	-1.38777878078145e-17 	-0.144834491802584 	0.016145244101931 	2.25806728022935e-22
2 	0.30210530600303 	-1.73472347597681e-17 	-0.138073855100086 	0.0166045105265635 	0
2 	0.320994567414414 	-3.12250225675825e-17 	-0.130891851123258 	0.017023915535062 	4.70391933813792e-22
2 	0.340575797787321 	-3.46944695195361e-17 	-0.123255351920638 	0.0173961051809986 	1.51716881683529e-21
2 	0.360874345971201 	-3.46944695195361e-17 	-0.115126187109014 	0.0177125024367023 	-2.03996321161989e-23
2 	0.379381853751547 	-3.81639164714898e-17 	-0.107518560181606 	0.0179376243178474 	-1.47348277171783e-21
2 	0.390092168053834 	-4.16333634234434e-17 	-0.103048290550252 	0.0180456496738865 	-2.19489880630081e-21
2 	0.403729468200046 	-3.46944695195361e-17 	-0.0972190750176815 	0.0181383177127019 	-1.09844045832465e-17
2 	0.426341520272734 	-2.77555756156289e-17 	-0.0873380913925417 	0.0182242501469375 	-9.71115401774076e-18
2 	0.449781918030829 	-3.12250225675825e-17 	-0.0767429689711001 	0.0182051670625747 	1.10098888315144e-17
2 	0.474081006202548 	-3.46944695195361e-17 	-0.0653496068244372 	0.0180637435392114 	9.67626629312447e-18
2 	0.499270241132364 	-3.46944695195361e-17 	-0.0530559181176189 	0.0177804416843663 	2.17624802951428e-21
2 	0.525382231502763 	-3.12250225675825e-17 	-0.0397363376379429 	0.0173336305833833 	2.30154411512375e-21
2 	0.552450780547767 	-2.42861286636753e-17 	-0.0252344991186109 	0.0167000011344558 	2.91896485963446e-21
2 	0.58051092981285 	-1.73472347597681e-17 	-0.00935370148220635 	0.0158555230461626 	6.90372915574458e-21
2 	0.609599004517911 	-3.46944695195361e-18 	0.00815507311117717 	0.014778167379743 	5.74256720670268e-22
2 	0.639752660582033 	1.04083408558608e-17 	0.0276075508481597 	0.0134561275124015 	1.08867475922253e-21
2 	0.671010933370887 	1.04083408558608e-17 	0.0494176517261328 	0.0118945482278217 	9.95810090668775e-21
2 	0.703414288229901 	1.73472347597681e-17 	0.0742324213044463 	0.0100456147824145 	1.16827967842542e-17
2 	0.737004672868606 	2.08166817117217e-17 	0.103376499618588 	0.00782590265085638 	2.58322428512106e-16
2 	0.771825571663976 	1.75640751942652e-17 	0.138642167061702 	0.0050743247761477 	-3.03888587052924e-16
2 	0.807922061953053 	1.84314369322536e-17 	0.18132122151401 	0.00175639306418404 	-3.11529191298576e-18
2 	0.845340872387742 	1.38777878078145e-17 	0.23124329276309 	-0.00196324828837706 	-5.98590444622406e-18
2 	0.884130443427309 	6.07153216591882e-18 	0.287084951389199 	-0.00584785993687332 	-1.37479242234542e-16
2 	0.924340990046898 	1.73472347597681e-18 	0.347461947516864 	-0.00968907358448443 	1.04091952694353e-16
2 	0.966024566743242 	0 	0.411282033695855 	-0.0132944806009279 	1.723662006321e-17
2 	1.00923513492173 	-1.73472347597681e-18 	0.47761307666327 	-0.0164401717311677 	1.42823518851448e-23
2 	1.05402863275206 	0 	0.545234977425659 	-0.0188822508797847 	7.25146090027033e-21
2 	1.10046304758287 	0 	0.612312598540179 	-0.0204086935320153 	4.22037258576437e-21
2 	1.14859849100923 	0 	0.676548188393222 	-0.0209093601388407 	-5.88203313218744e-21
2 	1.1731499461078 	0 	0.707722042926569 	-0.0209009719334333 	-9.86945240042307e-21
2 	1.19854810382362 	-3.46944695195361e-18 	0.736055331860818 	-0.0205400826456178 	-1.62066590944849e-20
2 	1.25022400101563 	-1.04083408558608e-17 	0.789150701145121 	-0.0196190219779756 	-2.65194265029218e-20
2 	1.30384562673186 	-1.04083408558608e-17 	0.835071177783699 	-0.0185346549831502 	-1.25469248754802e-20
2 	1.35943156962566 	-6.93889390390723e-18 	0.874297356638584 	-0.0175976020494995 	5.89864245567103e-21
2 	1.41705378838763 	-1.04083408558608e-17 	0.908214382665584 	-0.0169138090058597 	5.44787524043799e-21
2 	1.47678687776592 	-1.04083408558608e-17 	0.938356464177736 	-0.016451686170168 	2.55721462067826e-20
2 	1.53870816513278 	-1.21430643318376e-17 	0.96598056426841 	-0.01612259285602 	-2.7261715893277e-20
2 	1.60289781058851 	-1.38777878078145e-17 	0.991800932756393 	-0.0158227107204342 	-1.07404669441725e-21
2 	1.66943891073267 	-6.93889390390723e-18 	1.01634929700147 	-0.0154630148343022 	1.69086151890376e-20
2 	1.73841760623657 	-5.20417042793042e-18 	1.03973984725203 	-0.0149943638156508 	-1.50186457151995e-20
2 	1.8099231933566 	-1.04083408558608e-17 	1.06193833999077 	-0.0143980970454505 	-2.66757172351591e-20
2 	1.87639343533151 	-1.38777878078145e-17 	1.08078629246783 	-0.0137596939611367 	-3.6108293236817e-21
2 	1.91412260223978 	-1.73472347597681e-17 	1.09090971239062 	-0.0133783947516147 	-5.85510594717403e-22
2 	1.96088870322038 	-1.73472347597681e-17 	1.10153858993269 	-0.0129132538854111 	0
2 	2.02025965173185 	-1.38777878078145e-17 	1.11535678103794 	-0.0122614625580263 	0
2 	2.06006301192217 	-1.38777878078145e-17 	1.12449482718674 	-0.011776230719268 	0
2 	2.09845978584128 	-1.38777878078145e-17 	1.13211967540908 	-0.0113386509033725 	0
2 	2.13549967996946 	-1.38777878078145e-17 	1.13899540842541 	-0.0109211579057831 	0
2 	2.17123064424048 	-1.38777878078145e-17 	1.14518865784355 	-0.010521063236479 	0
2 	2.20569893411516 	-2.08166817117217e-17 	1.15075909372783 	-0.0101394822908427 	0
2 	2.23894917046123 	-2.77555756156289e-17 	1.15575985533673 	-0.00977672409829898 	0
2 	2.27102439731726 	-2.77555756156289e-17 	1.16023802580165 	-0.00943251690767429 	0
2 	2.30196613761522 	-3.12250225675825e-17 	1.16423509607924 	-0.00910628484035235 	0
2 	2.33181444693392 	-3.46944695195361e-17 	1.1677874004951 	-0.00879724921256874 	0
2 	2.3606079653529 	-3.81639164714898e-17 	1.17092651833373 	-0.00850449414763919 	0
2 	2.38838396747391 	-3.81639164714898e-17 	1.17367963954401 	-0.0082270251852186 	0
2 	2.41517841067461 	-3.46944695195361e-17 	1.1760698937964 	-0.00796381618022802 	0
2 	2.44102598165722 	-3.81639164714898e-17 	1.1781166426147 	-0.00771384443623096 	0
2 	2.46596014135208 	-4.16333634234434e-17 	1.17983573471309 	-0.00747611606849856 	0
2 	2.49001316823444 	-4.16333634234434e-17 	1.18123972523327 	-0.00724968346015152 	0
2 	2.51321620011054 	-4.16333634234434e-17 	1.18233806033528 	-0.0070336564427404 	0
2 	2.535599274427 	-4.16333634234434e-17 	1.18313722952535 	-0.00682720865335452 	0
2 	2.55719136715571 	-3.81639164714898e-17 	1.18364088918276 	-0.00662958031781446 	0
2 	2.57802043030466 	-3.81639164714898e-17 	1.18384996197085 	-0.00644007849294426 	0
2 	2.59811342810315 	-4.16333634234434e-17 	1.18376271818574 	-0.00625807559129781 	0
2 	2.61749637190832 	-3.81639164714898e-17 	1.18337484659463 	-0.00608300681871117 	0
2 	2.63619435387806 	-3.46944695195361e-17 	1.18267952388221 	-0.00591436698107209 	0
2 	2.65423157945406 	-3.81639164714898e-17 	1.18166749331755 	-0.00575170696051186 	0
2 	2.67163139869691 	-4.16333634234434e-17 	1.18032716442104 	-0.00559463001992562 	0
2 	2.68841633651388 	-4.16333634234434e-17 	1.17864474585725 	-0.00544278796545609 	-2.54097391298687e-16
2 	2.70460812181851 	-4.16333634234434e-17 	1.17660442296939 	-0.00529587707820704 	-6.07965287754861e-16
2 	2.72022771565972 	-4.16333634234434e-17 	1.17418858866748 	-0.00515363362114546 	6.57942051572253e-16
2 	2.73529533835695 	-4.16333634234434e-17 	1.17137813115887 	-0.00501582864150159 	2.65298909930411e-16
2 	2.74983049567626 	-3.81639164714898e-17 	1.16815277383734 	-0.00488226173432464 	0
2 	2.76385200408157 	-3.46944695195361e-17 	1.16449145155317 	-0.00475275342413362 	0
2 	2.77737801509344 	-3.81639164714898e-17 	1.16037269421203 	-0.00462713587424177 	0
2 	2.79042603878708 	-3.81639164714898e-17 	1.15577497480374 	-0.00450524175811166 	0
2 	2.80301296646003 	-3.46944695195361e-17 	1.15067696691882 	-0.00438689132406927 	0
2 	2.81515509249873 	-3.46944695195361e-17 	1.14505764928272 	-0.00427187793820662 	0
2 	2.82686813547238 	-3.46944695195361e-17 	1.13889619411509 	-0.00415995266794591 	0
2 	2.83816725848143 	-3.12250225675825e-17 	1.1321715832258 	-0.00405080872647939 	0
2 	2.84906708878692 	-2.77555756156289e-17 	1.12486190982431 	-0.00394406679135833 	0
2 	2.85958173674617 	-2.77555756156289e-17 	1.11694334223488 	-0.0038392623065044 	0
2 	2.86972481407933 	-2.77555756156289e-17 	1.10838874394769 	-0.00373583586623118 	0
2 	2.87950945149043 	-2.42861286636753e-17 	1.09916595834926 	-0.00363312768691631 	0
2 	2.88894831566567 	-2.08166817117217e-17 	1.08923577267451 	-0.00353037708094568 	0
2 	2.89805362567107 	-2.08166817117217e-17 	1.07854957256391 	-0.00342672785625529 	0
2 	2.90683716877067 	-2.08166817117217e-17 	1.06704668632456 	-0.00332124030927877 	0
2 	2.9153103156857 	-2.08166817117217e-17 	1.05465139809261 	-0.003212908791151 	0
2 	2.92348403531449 	-2.08166817117217e-17 	1.04126958297746 	-0.00310068467525119 	0
2 	2.9313689089323 	-1.73472347597681e-17 	1.02678488341155 	-0.00298352789097754 	0
2 	2.93897514388925 	-1.73472347597681e-17 	1.01105426770878 	-0.00286056390960324 	0
2 	2.94631258682425 	-2.08166817117217e-17 	0.993895011217239 	-0.0027308182458241 	0
2 	2.95339073641193 	-1.73472347597681e-17 	0.975043407885655 	-0.0025921177573527 	0
2 	2.96021875565916 	-1.38777878078145e-17 	0.954111933348402 	-0.00244193629299986 	0
2 	2.96680548376697 	-1.38777878078145e-17 	0.930630210655847 	-0.00227759765241906 	0
2 	2.97315944757337 	-1.38777878078145e-17 	0.904099632663295 	-0.00209831899598069 	0
2 	2.97928887259171 	-1.38777878078145e-17 	0.873962896422754 	-0.00190491401616691 	0
2 	2.98520169365903 	-1.38777878078145e-17 	0.839557285836238 	-0.00169937976313863 	0
2 	2.99090556520807 	-1.38777878078145e-17 	0.800065058337154 	-0.00148482679061921 	0
2 	2.99640787117633 	-1.38777878078145e-17 	0.754449773551989 	-0.00126529859445356 	0
2 	3.00171573456492 	-1.38777878078145e-17 	0.701397311359924 	-0.00104559379215656 	0
2 	3.00683602665963 	-1.73472347597681e-17 	0.639288428548816 	-0.000831406605140746 	0
2 	3.01177537592613 	-2.42861286636753e-17 	0.56610934619569 	-0.000628995458358126 	0
2 	3.01654017659085 	-2.77555756156289e-17 	0.479612924924983 	-0.000443228033154379 	0
2 	3.02113659691864 	-2.77555756156289e-17 	0.379696279795776 	-0.000280170516978568 	0
2 	3.02557058719784 	-3.12250225675825e-17 	0.271242254050008 	-0.000149172998184141 	0
2 	3.02984788744324 	-3.46944695195361e-17 	0.161177606943717 	-5.87646005184091e-05 	0
