/*--------------------------------*- C++ -*----------------------------------*\
  =========                 |
  \\      /  F ield         | OpenFOAM: The Open Source CFD Toolbox
   \\    /   O peration     | Website:  https://openfoam.org
    \\  /    A nd           | Version:  7
     \\/     M anipulation  |
\*---------------------------------------------------------------------------*/
FoamFile
{
    version     2.0;
    format      ascii;
    class       volVectorField;
    location    "20000";
    object      C;
}
// * * * * * * * * * * * * * * * * * * * * * * * * * * * * * * * * * * * * * //

dimensions      [0 1 0 0 0 0 0];

internalField   nonuniform List<vector> 
15600
(
(0.0460106565101097 0.998816232152446 7.33263928732293e-18)
(0.132920257573707 0.9755810887613 1.06114891882612e-17)
(0.203228240093845 0.918725728352859 4.64796255561689e-17)
(0.257854755675657 0.844852822876588 1.4791302509567e-17)
(0.306261849904099 0.766782728552919 7.54913355875525e-18)
(0.352988940826617 0.687718729757728 4.29767305148405e-18)
(0.400299476340993 0.608975122162997 7.29158684933865e-18)
(0.448832864922957 0.530913311842971 6.34500881658595e-18)
(0.498309082027707 0.453398056874577 0)
(0.548392825995845 0.376240728585928 0)
(0.599346069965161 0.299652984576221 9.38845096284381e-18)
(0.652461869806705 0.224577685702256 4.30768259878915e-18)
(0.709969767643677 0.15291571744449 3.73710843574212e-18)
(0.774909279653127 0.0882125096781423 4.88553574962945e-18)
(0.85021651462088 0.0368281477793585 -2.75501494294163e-18)
(0.936037956918793 0.00912084856456569 -5.60360638458341e-18)
(1.02739652766098 0.00273763134254549 0)
(1.11953683736992 0.0027376313425455 -2.89451158485099e-18)
(1.21167714707887 0.0027376313425455 -8.58716122778326e-18)
(1.30381745678781 0.00273763134254552 0)
(1.39595776649676 0.00273763134254542 5.78902316970233e-18)
(1.4880980762057 0.00273763134254557 -5.78902316970212e-18)
(1.58023838591464 0.00273763134254559 -1.59181608258049e-18)
(1.67237869562359 0.00273763134254566 0)
(1.76451900533253 0.0027376313425455 -5.98177022324213e-18)
(1.85665931504147 0.0027376313425456 0)
(1.94879962475042 0.00273763134254552 1.00826037835934e-17)
(2.04093993445936 0.00273763134254547 4.29358061389168e-18)
(2.13308024416831 0.0027376313425456 0)
(2.22522055387725 0.00273763134254545 -2.99088511162112e-18)
(2.31736086358619 0.00273763134254552 0)
(2.40950117329513 0.00273763134254561 0)
(2.50164148300407 0.00273763134254558 7.18809219874302e-18)
(2.59378179271302 0.00273763134254547 -1.4954425558105e-18)
(2.68592210242196 0.00273763134254545 0)
(2.7780624121309 0.00273763134254569 -1.49544255581046e-18)
(2.87020272183985 0.0027376313425455 -5.78902316970217e-18)
(2.96234303154879 0.00273763134254549 -5.78902316970259e-18)
(3.05448334125773 0.00273763134254555 -3.48989657482457e-16)
(3.14662365096667 0.00273763134254564 -3.50978320873369e-16)
(3.23876396067562 0.00273763134254566 1.59181608258043e-18)
(3.33090427038456 0.00273763134254564 -9.63735267699738e-20)
(3.4230445800935 0.00273763134254561 0)
(3.51518488980244 0.00273763134254567 0)
(3.60732519951139 0.00273763134254561 1.59181608258041e-18)
(3.69946550922033 0.00273763134254555 -3.47686961980222e-16)
(3.79160581892928 0.00273763134254552 -3.47240518341213e-16)
(3.88374612863822 0.00273763134254558 1.49544255581044e-18)
(3.97588643834717 0.00273763134254561 9.63735267699778e-20)
(4.06802674805611 0.00273763134254542 0)
(4.16016705776505 0.00273763134254547 -4.38995414066143e-18)
(4.25230736747399 0.00273763134254555 0)
(4.34444767718294 0.00273763134254547 0)
(4.43658798689188 0.00273763134254547 -1.49544255581065e-18)
(4.52872829660082 0.00273763134254561 -2.89451158485101e-18)
(4.62086860630977 0.00273763134254567 -2.79813805808124e-18)
(4.71300891601871 0.0027376313425455 4.38995414066162e-18)
(4.80514922572765 0.00273763134254555 4.29358061389171e-18)
(4.89728953543659 0.0027376313425455 5.78902316970219e-18)
(4.98942984514554 0.00273763134254555 0)
(5.08157015485448 0.00273763134254555 -3.54875054178962e-16)
(5.17371046456342 0.0027376313425455 -3.49043510369541e-16)
(5.26585077427236 0.00273763134254555 -5.78902316970226e-18)
(5.35799108398131 0.0027376313425455 -2.79813805808112e-18)
(5.45013139369025 0.00273763134254571 0)
(5.54227170339919 0.00273763134254556 0)
(5.63441201310813 0.00273763134254552 0)
(5.72655232281708 0.00273763134254558 2.8945115848512e-18)
(5.81869263252602 0.00273763134254556 0)
(5.91083294223496 0.00273763134254554 0)
(6.0029732519439 0.00273763134254545 0)
(6.09511356165284 0.00273763134254566 1.4954425558105e-18)
(6.18725387136179 0.00273763134254556 3.50485100038276e-16)
(6.27939418107073 0.00273763134254557 3.41686641516692e-16)
(6.37153449077967 0.00273763134254542 0)
(6.46367480048862 0.00273763134254551 0)
(6.55581511019756 0.00273763134254571 0)
(6.6479554199065 0.00273763134254562 1.3990690290405e-18)
(6.74009572961544 0.00273763134254564 -5.78902316970227e-18)
(6.83223603932438 0.00273763134254558 3.51691422013767e-16)
(6.92437634903333 0.00273763134254561 3.47385092420448e-16)
(7.01651665874227 0.0027376313425456 1.5918160825804e-18)
(7.10865696845121 0.0027376313425455 5.78902316970258e-18)
(7.20079727816016 0.00273763134254556 -9.63735267699747e-20)
(7.2929375878691 0.00273763134254567 -2.9908851116211e-18)
(7.38507789757804 0.00273763134254558 -7.18809219874221e-18)
(7.47721820728699 0.00273763134254546 0)
(7.56935851699593 0.0027376313425456 0)
(7.66149882670487 0.00273763134254566 2.99088511162081e-18)
(7.75363913641381 0.0027376313425455 9.63735267699815e-20)
(7.84577944612276 0.0027376313425455 2.79813805808101e-18)
(7.9379197558317 0.00273763134254559 3.5029235298475e-16)
(8.03006006554065 0.00273763134254551 3.42464122230113e-16)
(8.12220037524959 0.00273763134254561 -1.49544255581052e-18)
(8.21434068495853 0.00273763134254543 0)
(8.30648099466747 0.00273763134254543 0)
(8.39862130437641 0.00273763134254549 0)
(8.49076161408535 0.00273763134254562 6.8919940668362e-16)
(8.5829019237943 0.00273763134254553 6.68244770755825e-16)
(8.67504223350324 0.00273763134254554 0)
(8.76718254321219 0.0027376313425456 0)
(8.85932285292113 0.00273763134254556 2.99088511162103e-18)
(8.95146316263007 0.00273763134254548 -4.197207087122e-18)
(9.04360347233901 0.00273763134254549 0)
(9.134973901688 0.00905161518572186 0)
(9.22083523076427 0.0366356842954198 4.27332932063813e-18)
(9.29619592708396 0.0879372527468032 8.07847497530134e-18)
(9.36117735941054 0.152596242664221 0)
(9.41871206749645 0.224235300710332 0)
(9.47184207305701 0.299299699605188 -2.29949161805883e-18)
(9.52280130612393 0.375882890167011 7.73641080866057e-18)
(9.5728877468996 0.453038553728053 -4.12704027627826e-18)
(9.62236752612651 0.530551861122003 4.75567524993716e-18)
(9.67090600965092 0.608610489311192 -5.56658702063787e-18)
(9.71822183124923 0.687351065380416 0)
(9.7649480084339 0.766416062323289 -1.27182520933738e-17)
(9.8133395574509 0.844496040164532 4.51366954794272e-18)
(9.86791887443963 0.918404199560305 -1.04972948005462e-19)
(9.93813711568551 0.975390483666576 1.07209994461882e-17)
(10.0249921170138 0.998774341551762 -5.08193751793506e-18)
(0.045994775221019 1.00041718018981 2.35865025311121e-18)
(0.132894944748353 0.977274834080297 1.29814635354531e-17)
(0.203258626767617 0.920648140904125 2.22419966740297e-17)
(0.258002025157004 0.847070998340136 -1.78275801225838e-18)
(0.306550560859333 0.769312114310353 2.20584690983858e-17)
(0.353425699014007 0.690562935346944 1.26022652891648e-17)
(0.400881956862179 0.612132976194752 -1.94306153247722e-18)
(0.449556262910609 0.534382329179289 0)
(0.499169699977527 0.457176194741516 0)
(0.549388287549215 0.380326634453737 0)
(0.600472912264359 0.304044386718676 0)
(0.653711447396015 0.229268530974337 0)
(0.711324519355558 0.157892382656363 3.70391861554264e-18)
(0.776339490669967 0.0934472668755631 -3.65397759421709e-18)
(0.851680704030016 0.0422679312432713 5.50098034835795e-18)
(0.937493967167449 0.0146712324610751 -2.65761978113813e-18)
(1.02882261892836 0.00831349422935793 0)
(1.12093014493 0.00831349422935791 0)
(1.21303767093165 0.00831349422935807 -3.08574228162672e-18)
(1.3051451969333 0.00831349422935783 0)
(1.39725272293495 0.00831349422935788 -5.59319684570626e-18)
(1.48936024893659 0.00831349422935797 -1.92762572515814e-19)
(1.58146777493824 0.00831349422935803 1.92762572515817e-19)
(1.67357530093989 0.00831349422935802 -2.89297970911087e-18)
(1.76568282694154 0.00831349422935797 -8.67893912733333e-18)
(1.85779035294319 0.00831349422935797 0)
(1.94989787894484 0.00831349422935791 -1.92762572515818e-19)
(2.04200540494648 0.00831349422935796 -1.11863936914126e-17)
(2.13411293094813 0.00831349422935789 0)
(2.22622045694978 0.00831349422935783 0)
(2.31832798295142 0.00831349422935794 -1.92762572515817e-19)
(2.41043550895307 0.00831349422935797 0)
(2.50254303495471 0.00831349422935805 -3.0857422816268e-18)
(2.59465056095636 0.00831349422935785 2.94511807097255e-16)
(2.68675808695801 0.00831349422935797 2.98596622177653e-16)
(2.77886561295966 0.00831349422935808 0)
(2.8709731389613 0.00831349422935796 0)
(2.96308066496295 0.00831349422935791 2.70021713659525e-18)
(3.0551881909646 0.008313494229358 6.30105158960969e-16)
(3.14729571696624 0.00831349422935802 6.23255766497707e-16)
(3.23940324296789 0.00831349422935797 -1.11863936914124e-17)
(3.33151076896953 0.00831349422935805 -1.92762572515814e-19)
(3.42361829497118 0.00831349422935813 1.9276257251581e-19)
(3.51572582097283 0.00831349422935803 0)
(3.60783334697448 0.00831349422935802 -2.89297970911088e-18)
(3.69994087297613 0.00831349422935802 9.13623334939408e-16)
(3.79204839897777 0.00831349422935799 9.2730620861923e-16)
(3.88415592497942 0.00831349422935795 0)
(3.97626345098107 0.00831349422935802 1.92762572515813e-19)
(4.06837097698272 0.00831349422935796 0)
(4.16047850298436 0.00831349422935786 -3.08574228162675e-18)
(4.25258602898601 0.00831349422935796 0)
(4.34469355498766 0.00831349422935789 1.9276257251581e-19)
(4.4368010809893 0.00831349422935788 5.78595941822207e-18)
(4.52890860699095 0.00831349422935791 5.40043427319033e-18)
(4.6210161329926 0.00831349422935802 -2.70021713659533e-18)
(4.71312365899424 0.00831349422935802 -2.89297970911098e-18)
(4.80523118499589 0.00831349422935786 0)
(4.89733871099754 0.00831349422935797 -5.78595941822226e-18)
(4.98944623699918 0.00831349422935797 0)
(5.08155376300083 0.00831349422935801 3.35978877008782e-16)
(5.17366128900247 0.00831349422935802 3.39676123287555e-16)
(5.26576881500412 0.00831349422935791 0)
(5.35787634100577 0.00831349422935797 -1.92762572515818e-19)
(5.44998386700742 0.00831349422935803 -5.7859594182222e-18)
(5.54209139300906 0.00831349422935802 0)
(5.63419891901071 0.00831349422935794 0)
(5.72630644501236 0.00831349422935799 1.92762572515819e-19)
(5.818413971014 0.00831349422935803 3.08574228162699e-18)
(5.91052149701565 0.00831349422935792 2.50745456407915e-18)
(6.0026290230173 0.00831349422935791 0)
(6.09473654901894 0.00831349422935797 -1.92762572515821e-19)
(6.18684407502059 0.00831349422935802 -3.35786114436281e-16)
(6.27895160102224 0.00831349422935799 -3.36428721527347e-16)
(6.37105912702388 0.00831349422935793 -5.78595941822197e-18)
(6.46316665302553 0.00831349422935797 0)
(6.55527417902717 0.00831349422935808 -1.92762572515814e-19)
(6.64738170502882 0.00831349422935808 -5.78595941822244e-18)
(6.73948923103047 0.00831349422935806 -2.89297970911119e-18)
(6.83159675703211 0.00831349422935795 -3.33278659872181e-16)
(6.92370428303376 0.00831349422935807 -3.35318445536081e-16)
(7.01581180903541 0.00831349422935797 5.78595941822204e-18)
(7.10791933503705 0.00831349422935791 0)
(7.2000268610387 0.00831349422935792 1.92762572515822e-19)
(7.29213438704035 0.00831349422935818 1.11863936914124e-17)
(7.384241913042 0.00831349422935802 -2.91618827388152e-16)
(7.47634943904364 0.00831349422935797 -2.93003425331928e-16)
(7.56845696504528 0.00831349422935808 0)
(7.66056449104693 0.00831349422935795 0)
(7.75267201704858 0.00831349422935789 0)
(7.84477954305023 0.00831349422935791 0)
(7.93688706905188 0.008313494229358 -6.24511962115264e-16)
(8.02899459505353 0.00831349422935798 -6.27768124315056e-16)
(8.12110212105517 0.00831349422935791 0)
(8.21320964705682 0.00831349422935791 -2.89297970911109e-18)
(8.30531717305847 0.00831349422935791 0)
(8.39742469906011 0.00831349422935798 -2.89297970911112e-18)
(8.48953222506176 0.00831349422935795 -6.46691986925614e-16)
(8.5816397510634 0.0083134942293579 -6.55017158392327e-16)
(8.67374727706505 0.00831349422935807 -2.89297970911092e-18)
(8.7658548030667 0.00831349422935801 1.92762572515825e-19)
(8.85796232906835 0.00831349422935804 -3.08574228162693e-18)
(8.95006985506999 0.00831349422935798 0)
(9.04217738107164 0.00831349422935787 0)
(9.13351784688824 0.014602275466138 -1.93113436598199e-19)
(9.21937083718821 0.0420762358568049 2.74925571007865e-18)
(9.29476529781718 0.093173108020607 9.62805677230787e-18)
(9.35982202185756 0.157574182067715 -3.70677050762154e-18)
(9.41746179684968 0.228927511505339 -8.33381924634849e-18)
(9.47071448092338 0.303692510798011 1.96211482200232e-19)
(9.52180507077714 0.379970223306532 1.96622083018232e-19)
(9.57202634453964 0.456818125280299 1.06679879911208e-17)
(9.62164332977666 0.534022319361815 -4.58243743558994e-18)
(9.67032271078835 0.611769796025788 1.40380323479689e-17)
(9.71778423386693 0.690196734314402 -4.33460406809619e-18)
(9.76465846162454 0.768946907595834 1.24451195267377e-17)
(9.81319151340501 0.846715638732153 7.27471048511044e-18)
(9.86788789930405 0.920327903662445 2.86107713405485e-17)
(9.93816218722058 0.97708499232262 -2.04857401194297e-17)
(10.0250079814527 1.00037545671792 2.55179423843424e-18)
(0.0459783121549073 1.00207677552188 -2.37250093828865e-18)
(0.132868704648147 0.979030625710233 -1.27152194472454e-17)
(0.203290126264362 0.922640956187605 2.03428811498963e-17)
(0.258154687241359 0.8493703972831 -1.36259081575119e-17)
(0.306849844717492 0.77193412887035 2.71756574846466e-15)
(0.353878453828042 0.693511312297409 2.3716029651884e-15)
(0.401485773040765 0.61540649914464 1.87861884162864e-18)
(0.450306159361008 0.537978418512256 1.15940444302262e-17)
(0.50006184355125 0.46109273101563 5.42652790136203e-18)
(0.550420214711049 0.384562214654114 4.92025574745167e-18)
(0.601641033329583 0.30859665579141 2.13784334661446e-18)
(0.65500680024562 0.234131214045976 0)
(0.712728899468533 0.163051357242799 -3.38872139038618e-18)
(0.777822094521685 0.0988737886211694 1.4864408845767e-18)
(0.853198530934901 0.0479069897194215 0)
(0.939003315196735 0.0204249426452708 2.75726187194312e-18)
(1.03030095197717 0.0140936168412596 0)
(1.12237449331102 0.0140936168412596 0)
(1.21444803464488 0.0140936168412597 -2.60575727854976e-18)
(1.30652157597874 0.0140936168412596 0)
(1.3985951173126 0.0140936168412596 5.40427770408351e-18)
(1.49066865864646 0.0140936168412595 -1.92763146983505e-19)
(1.58274219998032 0.0140936168412595 -5.59704085106697e-18)
(1.67481574131418 0.0140936168412594 0)
(1.76688928264804 0.0140936168412595 -2.99128357251698e-18)
(1.8589628239819 0.0140936168412595 0)
(1.95103636531576 0.0140936168412595 -1.92763146983504e-19)
(2.04310990664961 0.0140936168412595 -5.21151455710002e-18)
(2.13518344798347 0.0140936168412593 0)
(2.22725698931733 0.0140936168412594 0)
(2.31933053065119 0.0140936168412595 0)
(2.41140407198504 0.0140936168412596 0)
(2.5034776133189 0.0140936168412595 2.60575727854978e-18)
(2.59555115465276 0.0140936168412595 -2.8932507510974e-16)
(2.68762469598662 0.0140936168412595 -2.82346421866326e-16)
(2.77969823732048 0.0140936168412594 -1.92763146983507e-19)
(2.87177177865434 0.0140936168412595 0)
(2.96384531998819 0.0140936168412594 0)
(3.05591886132205 0.0140936168412595 -2.86526554684177e-16)
(3.14799240265591 0.0140936168412595 -2.77248340168726e-16)
(3.24006594398977 0.0140936168412595 0)
(3.33213948532362 0.0140936168412594 0)
(3.42421302665748 0.0140936168412595 1.92763146983502e-19)
(3.51628656799134 0.0140936168412594 2.79852042553364e-18)
(3.6083601093252 0.0140936168412595 0)
(3.70043365065906 0.0140936168412595 -5.70447352089866e-16)
(3.79250719199292 0.0140936168412595 -5.57508157243746e-16)
(3.88458073332678 0.0140936168412595 0)
(3.97665427466064 0.0140936168412594 2.79852042553363e-18)
(4.0687278159945 0.0140936168412595 -2.99128357251685e-18)
(4.16080135732836 0.0140936168412594 0)
(4.25287489866221 0.0140936168412595 -1.92763146983498e-19)
(4.34494843999607 0.0140936168412594 1.92763146983508e-19)
(4.43702198132993 0.0140936168412595 2.79852042553349e-18)
(4.52909552266379 0.0140936168412595 1.92763146983504e-19)
(4.62116906399764 0.0140936168412596 0)
(4.7132426053315 0.0140936168412596 0)
(4.80531614666536 0.0140936168412597 -2.60575727854987e-18)
(4.89738968799922 0.0140936168412596 2.79852042553348e-18)
(4.98946322933308 0.0140936168412596 5.40427770408297e-18)
(5.08153677066694 0.0140936168412597 2.60575727855003e-18)
(5.17361031200079 0.0140936168412597 -1.92763146983501e-19)
(5.26568385333465 0.0140936168412596 -5.40427770408296e-18)
(5.35775739466851 0.0140936168412595 1.92763146983502e-19)
(5.44983093600237 0.0140936168412595 -2.99128357251698e-18)
(5.54190447733622 0.0140936168412594 2.60575727855015e-18)
(5.63397801867008 0.0140936168412595 -2.99128357251685e-18)
(5.72605156000394 0.0140936168412595 0)
(5.8181251013378 0.0140936168412595 -2.99128357251699e-18)
(5.91019864267166 0.0140936168412594 0)
(6.00227218400552 0.0140936168412595 2.79852042553349e-18)
(6.09434572533937 0.0140936168412595 1.92763146983502e-19)
(6.18641926667323 0.0140936168412595 -1.927631469835e-19)
(6.27849280800709 0.0140936168412594 0)
(6.37056634934094 0.0140936168412595 1.92763146983501e-19)
(6.4626398906748 0.0140936168412595 -1.92763146983498e-19)
(6.55471343200866 0.0140936168412595 -1.92763146983504e-19)
(6.64678697334252 0.0140936168412595 0)
(6.73886051467638 0.0140936168412595 2.99128357251712e-18)
(6.83093405601023 0.0140936168412595 0)
(6.92300759734409 0.0140936168412594 -1.92763146983506e-19)
(7.01508113867795 0.0140936168412595 -5.59704085106695e-18)
(7.10715468001181 0.0140936168412594 1.92763146983502e-19)
(7.19922822134566 0.0140936168412595 0)
(7.29130176267952 0.0140936168412595 2.79852042553354e-18)
(7.38337530401338 0.0140936168412596 2.76103525569995e-16)
(7.47544884534724 0.0140936168412595 2.82539185013321e-16)
(7.5675223866811 0.0140936168412595 0)
(7.65959592801496 0.0140936168412594 0)
(7.75166946934881 0.0140936168412594 2.79852042553344e-18)
(7.84374301068268 0.0140936168412595 -1.92763146983505e-19)
(7.93581655201654 0.0140936168412594 2.81507803274077e-16)
(8.0278900933504 0.0140936168412595 2.83981415690507e-16)
(8.11996363468425 0.0140936168412595 0)
(8.21203717601811 0.0140936168412595 1.92763146983501e-19)
(8.30411071735197 0.0140936168412595 -2.99128357251689e-18)
(8.39618425868582 0.0140936168412595 1.92763146983504e-19)
(8.48825780001968 0.0140936168412595 0)
(8.58033134135354 0.0140936168412595 0)
(8.6724048826874 0.0140936168412596 -2.60575727854976e-18)
(8.76447842402126 0.0140936168412596 0)
(8.85655196535511 0.0140936168412596 0)
(8.94862550668897 0.0140936168412596 0)
(9.04069904802283 0.0140936168412596 0)
(9.13200845267581 0.0203562721590336 0)
(9.2178527986378 0.0477160905657287 5.50027285933694e-18)
(9.2932822603937 0.0986007680688407 -4.45657133168046e-18)
(9.35841703444123 0.162734477527549 -3.58186885042202e-18)
(9.41616572555218 0.233791610129678 1.95764894825158e-19)
(9.46954558255348 0.308246240546254 2.5291540495389e-18)
(9.52077234147417 0.384207283071307 7.29026840689949e-18)
(9.57113338781885 0.46073614777031 1.97046638756065e-19)
(9.62089260571522 0.537619902400372 4.41533346284543e-18)
(9.66971804628672 0.615044824905029 -1.71019473129766e-17)
(9.71733060911204 0.693146628269253 -2.19046823529535e-18)
(9.76435831129416 0.771570435191622 -1.73051065958256e-17)
(9.81303804839156 0.849016512921164 -2.15855888897275e-17)
(9.86785578979649 0.922322057697068 2.46825978319186e-17)
(9.93818817719104 0.978841575230531 7.21196523546652e-18)
(10.0250244270514 1.00203522530165 2.08294768070965e-18)
(0.0459612459997881 1.00379716656169 2.29288026543532e-18)
(0.132841503304916 0.980850736549215 -1.20884179181656e-17)
(0.203322779327142 0.92470675181229 0)
(0.258312939319118 0.85175399280294 -1.04923196719822e-17)
(0.307160088562125 0.774652163457246 -2.69182455361335e-15)
(0.354347791057842 0.69656767531651 -2.22762282533382e-15)
(0.402111706302519 0.618799927426533 5.07539529856389e-18)
(0.451083524868327 0.541706234275595 7.09481293257178e-18)
(0.500986667529734 0.465152735218537 1.02839877153713e-17)
(0.551489943247064 0.388952951882969 -7.0289156259086e-18)
(0.602851945267503 0.313315684605198 0)
(0.656349605206286 0.239172029722379 1.89681634509045e-19)
(0.714184726007316 0.168399319697126 -5.09244507088989e-18)
(0.779359010512523 0.104499099816613 -5.73624166404755e-18)
(0.854771960230278 0.0537526232209506 -2.75312437190528e-18)
(0.940567954915213 0.0263894275143161 0)
(1.03183344056791 0.0200854817751973 0)
(1.12387175227899 0.0200854817751973 0)
(1.21591006399007 0.0200854817751973 -2.70739994483603e-18)
(1.30794837570116 0.0200854817751974 0)
(1.39998668741224 0.0200854817751974 0)
(1.49202499912332 0.0200854817751972 0)
(1.5840633108344 0.0200854817751971 0)
(1.67610162254549 0.0200854817751972 1.92763742943454e-19)
(1.76813993425657 0.0200854817751972 0)
(1.86017824596766 0.0200854817751972 1.92763742943455e-19)
(1.95221655767874 0.0200854817751972 1.92763742943456e-19)
(2.04425486938983 0.0200854817751972 0)
(2.13629318110091 0.0200854817751972 1.92763742943454e-19)
(2.22833149281199 0.0200854817751972 -2.70739994483591e-18)
(2.32036980452307 0.0200854817751973 2.74261987118356e-16)
(2.41240811623415 0.0200854817751974 2.80729859422581e-16)
(2.50444642794524 0.0200854817751973 2.70739994483596e-18)
(2.59648473965632 0.0200854817751972 0)
(2.6885230513674 0.0200854817751973 -2.73876459632434e-16)
(2.78056136307848 0.0200854817751972 -2.77785480888979e-16)
(2.87259967478956 0.0200854817751972 0)
(2.96463798650064 0.0200854817751972 -1.92763742943456e-19)
(3.05667629821173 0.0200854817751972 -5.41479988967187e-18)
(3.14871460992281 0.0200854817751972 0)
(3.24075292163389 0.0200854817751971 2.70739994483586e-18)
(3.33279123334497 0.0200854817751972 -1.92763742943456e-19)
(3.42482954505606 0.0200854817751972 0)
(3.51686785676714 0.0200854817751972 1.92763742943456e-19)
(3.60890616847822 0.0200854817751972 0)
(3.7009444801893 0.0200854817751972 5.22203614672864e-18)
(3.79298279190039 0.0200854817751972 2.70739994483579e-18)
(3.88502110361148 0.0200854817751972 0)
(3.97705941532256 0.0200854817751972 0)
(4.06909772703364 0.0200854817751971 5.41479988967191e-18)
(4.16113603874472 0.0200854817751971 1.92763742943455e-19)
(4.25317435045581 0.0200854817751971 2.70739994483594e-18)
(4.34521266216689 0.0200854817751972 -5.22203614672864e-18)
(4.43725097387797 0.0200854817751972 -2.7073999448359e-18)
(4.52928928558905 0.0200854817751972 -2.90016368777951e-18)
(4.62132759730014 0.0200854817751972 2.70739994483597e-18)
(4.71336590901122 0.0200854817751974 -5.41479988967236e-18)
(4.8054042207223 0.0200854817751973 0)
(4.89744253243339 0.0200854817751974 -5.41479988967231e-18)
(4.98948084414447 0.0200854817751973 1.9276374294346e-19)
(5.08151915585555 0.0200854817751973 -1.92763742943454e-19)
(5.17355746756663 0.0200854817751974 -5.41479988967232e-18)
(5.26559577927771 0.0200854817751973 -5.41479988967206e-18)
(5.35763409098879 0.0200854817751973 -2.70739994483623e-18)
(5.44967240269987 0.0200854817751972 -2.70739994483592e-18)
(5.54171071441096 0.0200854817751972 0)
(5.63374902612204 0.0200854817751972 -2.70739994483592e-18)
(5.72578733783312 0.0200854817751972 0)
(5.8178256495442 0.0200854817751972 0)
(5.90986396125528 0.0200854817751972 -1.92763742943456e-19)
(6.00190227296637 0.0200854817751972 -2.70739994483589e-18)
(6.09394058467745 0.0200854817751972 0)
(6.18597889638853 0.0200854817751972 -2.70739994483589e-18)
(6.27801720809962 0.0200854817751972 0)
(6.3700555198107 0.0200854817751972 0)
(6.46209383152178 0.0200854817751972 -2.70739994483591e-18)
(6.55413214323286 0.0200854817751972 -2.7073999448359e-18)
(6.64617045494395 0.0200854817751972 0)
(6.73820876665502 0.0200854817751972 0)
(6.83024707836611 0.0200854817751972 -2.7073999448359e-18)
(6.92228539007719 0.0200854817751972 0)
(7.01432370178827 0.0200854817751972 -2.70739994483589e-18)
(7.10636201349936 0.0200854817751972 0)
(7.19840032521044 0.0200854817751972 -2.70739994483589e-18)
(7.29043863692152 0.0200854817751972 -1.92763742943456e-19)
(7.3824769486326 0.0200854817751972 -2.70739994483588e-18)
(7.47451526034369 0.0200854817751972 -1.92763742943456e-19)
(7.56655357205477 0.0200854817751972 0)
(7.65859188376585 0.0200854817751972 -2.51463620189257e-18)
(7.75063019547694 0.0200854817751972 -2.7073999448359e-18)
(7.84266850718802 0.0200854817751972 -2.70739994483592e-18)
(7.9347068188991 0.0200854817751972 0)
(8.02674513061018 0.0200854817751972 -2.70739994483591e-18)
(8.11878344232126 0.0200854817751972 0)
(8.21082175403235 0.0200854817751972 1.92763742943455e-19)
(8.30286006574343 0.0200854817751972 -2.70739994483593e-18)
(8.39489837745451 0.0200854817751972 -2.51463620189257e-18)
(8.48693668916559 0.0200854817751971 0)
(8.57897500087668 0.0200854817751973 -2.90016368777958e-18)
(8.67101331258776 0.0200854817751973 -5.41479988967215e-18)
(8.76305162429884 0.0200854817751974 -5.41479988967228e-18)
(8.85508993600992 0.0200854817751973 -5.41479988967204e-18)
(8.94712824772101 0.0200854817751974 -5.41479988967226e-18)
(9.03916655943209 0.0200854817751973 -5.41479988967211e-18)
(9.13044376508234 0.0263210540324768 1.93115167309264e-19)
(9.21627914994439 0.0535625494658386 2.36645465331099e-18)
(9.29174489494795 0.104227259266784 -7.36055831023021e-18)
(9.35696057835052 0.168083809247449 8.55582525025924e-18)
(9.41482217582301 0.238833893221828 -1.95762401280006e-19)
(9.46833386483413 0.312966783552288 -6.17895934807686e-18)
(9.51970178141077 0.388599554073457 6.83671314695341e-18)
(9.57020772090353 0.464797692644768 7.56756699578593e-18)
(9.62011438227641 0.541349266606975 1.81325353721495e-18)
(9.66909123362168 0.618439814315377 4.68635765938051e-18)
(9.71686037006887 0.696204563921555 4.03381634926773e-18)
(9.76404716923772 0.77429003829915 2.4699927581407e-18)
(9.81287896398178 0.851401637739798 -5.44439320601754e-18)
(9.86782250438491 0.924389240994577 -1.04909411879223e-17)
(9.9382151192413 0.980662506310363 0)
(10.0250414750992 1.00375579594033 0)
(0.0459435546628238 1.00558058042427 -4.43214782640423e-18)
(0.1328133055061 0.982737522755363 0)
(0.203356628190017 0.926848199715932 -1.86959917922546e-17)
(0.258476986001647 0.854224866759474 2.29051773809666e-17)
(0.307481693641784 0.777469733394452 8.74463354932823e-18)
(0.354834317937572 0.69973597876356 -7.39040427151224e-18)
(0.4027605666882 0.622317652587181 -3.3260135743918e-18)
(0.451889365574032 0.545570601368274 0)
(0.501945368990223 0.469361462554203 0)
(0.55259885785063 0.393504529661408 -2.00857798487456e-18)
(0.604107215573744 0.318207581826413 -1.60787112612758e-18)
(0.657741600554504 0.244397503397491 9.09217621565419e-18)
(0.715693883595509 0.17394319316305 0)
(0.780952228256566 0.110330482706603 0)
(0.856403028790448 0.0598123991807775 4.94420218307644e-18)
(0.942189911808024 0.0325724083188886 0)
(1.03342206856706 0.0262968457348859 0)
(1.12542386009425 0.0262968457348859 0)
(1.21742565162144 0.0262968457348858 1.92764361216978e-19)
(1.30942744314864 0.0262968457348858 1.92764361216969e-19)
(1.40142923467583 0.0262968457348859 -1.92764361216971e-19)
(1.49343102620303 0.0262968457348859 -1.9276436121697e-19)
(1.58543281773022 0.0262968457348859 -5.23900061612395e-18)
(1.67743460925742 0.0262968457348859 5.04623625490703e-18)
(1.76943640078461 0.026296845734886 0)
(1.86143819231181 0.0262968457348858 0)
(1.953439983839 0.0262968457348858 0)
(2.0454417753662 0.0262968457348859 2.61950030806208e-18)
(2.1374435668934 0.0262968457348859 1.9276436121697e-19)
(2.22944535842059 0.026296845734886 2.61950030806206e-18)
(2.32144714994778 0.0262968457348859 -2.72032028293595e-16)
(2.41344894147498 0.0262968457348859 -2.63608095206807e-16)
(2.50545073300217 0.0262968457348858 -5.23900061612431e-18)
(2.59745252452936 0.0262968457348859 -2.61950030806223e-18)
(2.68945431605656 0.0262968457348859 2.71839263932357e-16)
(2.78145610758375 0.0262968457348861 2.66489863560533e-16)
(2.87345789911094 0.0262968457348859 0)
(2.96545969063813 0.0262968457348858 2.42673594684524e-18)
(3.05746148216533 0.0262968457348859 0)
(3.14946327369252 0.0262968457348859 0)
(3.24146506521972 0.0262968457348859 2.61950030806208e-18)
(3.33346685674691 0.0262968457348858 0)
(3.4254686482741 0.0262968457348859 5.23900061612411e-18)
(3.5174704398013 0.026296845734886 -5.23900061612403e-18)
(3.60947223132849 0.026296845734886 0)
(3.70147402285569 0.0262968457348859 7.85850092418613e-18)
(3.79347581438289 0.0262968457348858 0)
(3.88547760591008 0.0262968457348859 2.42673594684512e-18)
(3.97747939743728 0.0262968457348859 2.81226466927905e-18)
(4.06948118896447 0.0262968457348858 4.85347189369035e-18)
(4.16148298049167 0.0262968457348859 -1.92764361216973e-19)
(4.25348477201886 0.0262968457348858 0)
(4.34548656354605 0.0262968457348858 1.92764361216979e-19)
(4.43748835507325 0.0262968457348859 -2.61950030806209e-18)
(4.52949014660044 0.026296845734886 2.61950030806201e-18)
(4.62149193812764 0.0262968457348859 -2.42673594684505e-18)
(4.71349372965483 0.0262968457348858 -2.61950030806224e-18)
(4.80549552118202 0.0262968457348859 1.92764361216973e-19)
(4.89749731270922 0.0262968457348859 0)
(4.98949910423641 0.0262968457348858 0)
(5.0815008957636 0.0262968457348857 2.81226466927922e-18)
(5.1735026872908 0.0262968457348859 0)
(5.26550447881799 0.0262968457348859 2.61950030806209e-18)
(5.35750627034519 0.026296845734886 -2.81226466927918e-18)
(5.44950806187238 0.0262968457348859 2.42673594684521e-18)
(5.54150985339957 0.026296845734886 0)