/*--------------------------------*- C++ -*----------------------------------*\
  =========                 |
  \\      /  F ield         | OpenFOAM: The Open Source CFD Toolbox
   \\    /   O peration     | Website:  https://openfoam.org
    \\  /    A nd           | Version:  7
     \\/     M anipulation  |
\*---------------------------------------------------------------------------*/
FoamFile
{
    version     2.0;
    format      ascii;
    class       volScalarField;
    location    "20000";
    object      k;
}
// * * * * * * * * * * * * * * * * * * * * * * * * * * * * * * * * * * * * * //

dimensions      [0 2 -2 0 0 0 0];

internalField   nonuniform List<scalar> 
15600
(
1.18192688206951e-06
2.36850663045171e-07
4.21560098051046e-08
8.50152657196649e-08
3.99180214661842e-09
4.14649559032425e-09
8.51177465015768e-09
1.48279412748309e-08
2.67184540354464e-08
4.62886065080201e-08
7.71388746937079e-08
1.2377933107523e-07
1.8191700236179e-07
2.21752618571181e-07
1.82284071210837e-07
7.71337187545212e-08
7.12721697491165e-08
1.39166925707059e-07
2.46957162203453e-07
4.14169350650234e-07
6.48227182648728e-07
9.44747999119519e-07
1.29346906303709e-06
1.6832321143703e-06
2.1045624342184e-06
2.5502382591951e-06
3.01422475371891e-06
3.49135777002662e-06
3.9767883994823e-06
4.46607103392636e-06
4.95499717883914e-06
5.43968202841519e-06
5.91649809028816e-06
6.38218982631594e-06
6.83385513849541e-06
7.26906937184594e-06
7.68593031463049e-06
8.08323744800531e-06
8.4610760750709e-06
8.82192997560065e-06
9.16068548061848e-06
9.47146740066648e-06
9.75288423146694e-06
1.00048347293704e-05
1.02275185021015e-05
1.04213685360894e-05
1.05870450071903e-05
1.07254107001827e-05
1.08375071247701e-05
1.09245303909943e-05
1.09877965546882e-05
1.10287115287781e-05
1.10487086481903e-05
1.10492392817301e-05
1.10316745332887e-05
1.09973512067044e-05
1.09475115751362e-05
1.08834181464749e-05
1.08064442766098e-05
1.07179761715336e-05
1.0619378295708e-05
1.05118801731274e-05
1.0396518480557e-05
1.02741230080262e-05
1.01453311158195e-05
1.00106714410291e-05
9.87077643869587e-06
9.72633591617405e-06
9.57810444008458e-06
9.42668629689337e-06
9.27254840639928e-06
9.11590671514812e-06
8.95688931470002e-06
8.79571730934844e-06
8.63259844616205e-06
8.46776680372509e-06
8.30138567239755e-06
8.13347378855353e-06
7.96388499864594e-06
7.79240599553612e-06
7.61891928571871e-06
7.44313665606741e-06
7.26489582301906e-06
7.08334058266375e-06
6.89853439330661e-06
6.70900973748888e-06
6.51454021674176e-06
6.31378191888536e-06
6.10565791198877e-06
5.88904038301951e-06
5.66203209344252e-06
5.42333623902148e-06
5.17009425869126e-06
4.90094656396877e-06
4.61151202510557e-06
4.30928573578982e-06
3.9966508379291e-06
3.66260397910555e-06
3.29876515382308e-06
2.90998965789793e-06
2.48969091599637e-06
2.06049864556849e-06
1.6178981911242e-06
1.17501662065133e-06
1.22435167352644e-06
2.17703244971867e-06
2.94363285219825e-06
3.6232422790048e-06
3.86304758162996e-06
3.72630156233652e-06
3.39090065078345e-06
2.88178551146252e-06
2.43957336934909e-06
1.99477348586641e-06
1.75501477313657e-06
1.6358408048814e-06
2.09993055963814e-06
3.95135727533186e-06
3.48476714557255e-06
1.60342674711628e-06
3.81329274022627e-05
7.7831666526285e-06
1.39300764413934e-06
2.78363033811954e-06
1.60930922409242e-07
1.34360566999002e-07
2.73828997498675e-07
4.7640323536247e-07
8.57638407897449e-07
1.48617264008095e-06
2.47802330648931e-06
3.98174426992006e-06
5.87047618328052e-06
7.20254959638724e-06
5.9616484501801e-06
2.50941642487688e-06
2.32781080380721e-06
4.54850661158826e-06
8.05940105993159e-06
1.34962754035173e-05
2.1093316030197e-05
3.07034416420846e-05
4.19925242451086e-05
5.45993267596262e-05
6.82178970138981e-05
8.26152215290846e-05
9.75965644486547e-05
0.000112995379629753
0.000128655405479339
0.000144433584893904
0.000160194656624109
0.000175813951939199
0.000191175208212232
0.000206174250875355
0.000220718345419833
0.000234730173879965
0.000248149242430286
0.000260937646535766
0.000273098890425331
0.000284713429381174
0.000295562256870152
0.000305475532494407
0.000314446376831865
0.000322472978717089
0.000329562884716441
0.000335730952299451
0.000340999118265246
0.000345395623348805
0.000348954254033786
0.000351713571974928
0.000353715827171481
0.000355005974374203
0.0003556297781119
0.000355633407008735
0.000355060517790919
0.000353953556115753
0.000352352075651192
0.000350296345319117
0.000347830029810035
0.00034499718026285
0.000341841057110198
0.000338400611874861
0.000334708686540236
0.000330791581066779
0.000326669531442474
0.000322359460134059
0.000317881498868937
0.000313257643558399
0.00030851181161683
0.000303663230666796
0.000298726688314653
0.000293709124502381
0.000288614672950185
0.000283450397810082
0.000278222920729323
0.000272939678987264
0.000267605879788977
0.000262222145550576
0.000256783889228763
0.000251284269737082
0.000245719615986622
0.000240080637499013
0.000234362304730391
0.000228536977166976
0.000222607013106403
0.000216525154383851
0.000210284426023948
0.000203841505718771
0.000197162203876884
0.000190209822941236
0.000182924399526239
0.000175262855642774
0.000167134964940404
0.000158494244417498
0.00014920158895795
0.000139469357432788
0.000129379952512627
0.000118601812841034
0.000106860907045619
9.43138211833169e-05
8.07419885994905e-05
6.68762497902938e-05
5.25725405719049e-05
3.8204555577079e-05
3.9851555668269e-05
7.12978957903328e-05
9.62802426816997e-05
0.000117944305654649
0.000125362051007405
0.000120805875552616
0.000109907735864546
9.35116861350597e-05
7.92457327138837e-05
6.49184984716121e-05
5.72355200458025e-05
5.35541418161487e-05
6.89759468039397e-05
0.000127801307209765
0.000112138298720539
5.16481199071832e-05
0.000278515777337537
5.78360155039772e-05
1.03896881742202e-05
2.05732054469934e-05
1.41635774030378e-06
9.91420261935566e-07
1.99949813413849e-06
3.47168680500682e-06
6.23944585932737e-06
1.08106996178621e-05
1.80284012593203e-05
2.89375625314143e-05
4.26069800004652e-05
5.23782865095665e-05
4.37203619835587e-05
1.84321494025062e-05
1.72315597757774e-05
3.37069558161037e-05
5.95097188683634e-05
9.93250092415021e-05
0.000154659781732643
0.000224231319938256
0.000305446297882401
0.000395569961452006
0.000492327334681797
0.000594004544790017
0.000699193053771481
0.000806709520743745
0.000915467013132841
0.00102449181189699
0.00113288251828094
0.00123982589768139
0.00134457846864135
0.00144648817121893
0.00154498638711169
0.00163961129457404
0.00173001364871187
0.00181598895625727
0.00189759653168684
0.0019748920668465
0.00204572598694332
0.00211035927045641
0.00216877583505842
0.00222101379677185
0.00226716201452146
0.00230734859380767
0.00234173941046564
0.00237053374745184
0.00239396008678497
0.0024122717902474
0.00242574101634219
0.00243465283968919
0.00243929492782917
0.0024399543021959
0.00243690190240396
0.00243039929987977
0.00242069127510724
0.0024080281373911
0.00239268034364425
0.00237492109251405
0.00235501810736104
0.00233321245692174
0.00230970764836465
0.00228466692421862
0.00225821638538585
0.00223046336600864
0.00220153490195826
0.00217157104843512
0.00214072303770232
0.00210911391636767
0.00207683786471511
0.00204394097546753
0.00201045102232083
0.00197641458484804
0.00194187501146726
0.00190688085181535
0.00187146673213762
0.00183563790051809
0.00179936611948271
0.00176260614661446
0.00172533560544253
0.00168749135381848
0.00164904227420507
0.00160979844251793
0.00156978061854972
0.0015286643102257
0.00148640557050662
0.00144272572505083
0.00139735582144308
0.0013500423364461
0.00130038691353927
0.00124806337890793
0.0011924659607622
0.00113320742195213
0.00106934763005452
0.00100170269832333
0.000930880120384498
0.000855000430333758
0.000772103352202074
0.000683145666770029
0.000586597992124471
0.000487437234780327
0.000384654322377493
0.000280228466614845
0.000291825599313661
0.000520361999876102
0.000698134639494083
0.000848335645507583
0.00090074172085403
0.000871098640702312
0.000796106078174272
0.000681710777708199
0.00058024679136688
0.000477394318658013
0.000421812760268678
0.000395458970072081
0.000507674782023579
0.00091537320325992
0.000807460603799134
0.000375573456204009
0.00104613858148696
0.000222646465599781
3.99408696814281e-05
7.81735865370239e-05
6.29484970992986e-06
3.79200408412163e-06
7.53870818907011e-06
1.30538237652027e-05
2.33977420137311e-05
4.04949913935749e-05
6.74255497976438e-05
0.000107614753448431
0.000157102587028671
0.000191940118014623
0.000161720490328257
6.90765708263728e-05
6.60249921856704e-05
0.00012905355678949
0.000225553575500361
0.000371985783029298
0.000570509940319016
0.000813090601381747
0.0010880557452674
0.00138451252125344
0.00169423567710633
0.00201153644219427
0.00233215983736507
0.00265285288798864
0.00297087293826936
0.00328396734152439
0.00359019781546581
0.00388794232605782
0.00417580904603369
0.00445266634075739
0.00471759672317971
0.00496993631157549
0.00520927138975393
0.00543548252272371
0.00564892642490668
0.00584450472196842
0.00602395561571842
0.00618753473602
0.00633547775067621
0.0064681028598239
0.00658579986714347
0.00668901088293729
0.00677823051868772
0.00685400015524348
0.00691690238333051
0.00696755476744348
0.00700659973402453
0.00703469383121144
0.00705248917243882
0.00706062621634612
0.00705970568780609
0.00705030168259175
0.00703295185684183
0.00700820796084708
0.00697666555663047
0.00693892863613687
0.00689558945875609
0.00684718215608215
0.00679415839664022
0.00673688069127431
0.00667562897833342
0.00661064457343939
0.00654221356735476
0.00647065727590823
0.00639632333256958
0.006319499503208
0.00624040551744705
0.00615915335224598
0.0060758081812607
0.00599048139244482
0.00590327478000598
0.00581430355839905
0.00572365160970526
0.00563133251867129
0.005537277234651
0.0054413635884911
0.00534353503849397
0.00524361417888371
0.00514152020860128
0.00503672039374658
0.00492932342947247
0.00481853325386992
0.00470386351562804
0.00458470431566721
0.00446028519915494
0.00432980713391697
0.00419211836761892
0.00404610877140663
0.00388999844782752
0.00372228245665567
0.00354012054956131
0.00334282115394696
0.00313178258389344
0.00290256762465257
0.00264863299359817
0.00237084934120643
0.00206343862012284
0.00173958352908583
0.00139659664681914
0.0010318009018666
0.00106170778793612
0.00182733263827227
0.00241741464149515
0.00291521902930043
0.00312055757194505
0.00306562521638127
0.0028478641988496
0.0024829159772517
0.00214138159696062
0.00178108824284127
0.00158243440217777
0.00148632239579704
0.00188940424886549
0.00326340448752423
0.00290211378792105
0.00139377627482346
0.0027668742253548
0.000611493585785054
0.00010882942753281
0.000209944417469065
1.95377487782024e-05
1.03516292410367e-05
2.02052034541691e-05
3.4863079285571e-05
6.22266714027404e-05
0.000107352503112574
0.000177841938535675
0.000280207787054313
0.000401292461612641
0.000481401928312302
0.000409542068270673
0.000181421987249069
0.000180913100989502
0.000347933766515318
0.000592709319669431
0.000945075131596231
0.00139432887726584
0.00191083436622741
0.00246519258766997
0.00303578028012465
0.00360939874993214
0.00417864460157874
0.00473883188129205
0.00528686481593718
0.00582028405248484
0.00633721480314285
0.00683607933043679
0.00731561531552484
0.00777476170393687
0.00821271660755402
0.00862888186663248
0.00902292422541143
0.0093947880694412
0.00974472530294536
0.0100676114452434
0.010364383934426
0.0106365672948964
0.0108846926551489
0.0111093300642452
0.0113111283381112
0.0114908002437561
0.0116491037462817
0.0117868447152522
0.011904872303458
0.012004073963426
0.0120853689325199
0.0121496965878052
0.0121980030286222
0.0122312196091358
0.0122502522353125
0.012255949929427
0.0122491189900842
0.0122305162726039
0.0122009148538567
0.0121611401211754
0.012112027133641
0.0120543912819242
0.0119889682135158
0.0119163821573116
0.0118371369766917
0.011751624688089
0.0116601856200033
0.0115632146338508
0.0114611565397804
0.0113544889804371
0.0112436128241548
0.0111288335778839
0.0110103159213169
0.0108881517070814
0.0107624971786323
0.0106334899878519
0.0105012863102611
0.010366001800639
0.0102276567394755
0.0100861551432172
0.00994130883559417
0.00979303878660981
0.00964106356185869
0.00948538077148418
0.00932538664009833
0.00916051412620619
0.00898996507132232
0.00881293304752106
0.00862847170681148
0.00843538320279394
0.00823233322823779
0.008017510880082
0.00778896552119087
0.00754385573839779
0.0072793065045107
0.00699065792165035
0.00667331116002201
0.00632758103961759
0.00594692776626141
0.00551903153584326
0.0050397269189933
0.00449531969236356
0.00389770545029808
0.00324053521242456
0.00249138316577679
0.00251131296408603
0.00398255807448685
0.00516308361680175
0.00619354708878284
0.00675326841582085
0.00683693541780198
0.00656571598390502
0.00593964719418395
0.0052834301020879
0.00451249566683832
0.00407335786804188
0.00384894994221571
0.00481769620268837
0.00784241645855064
0.00706041264575103
0.00355288193491658
0.00575962236515336
0.00136625691361414
0.000241188973605697
0.000456595089513589
4.87621927885915e-05
2.31614618272602e-05
4.41947579084632e-05
7.58759037822197e-05
0.000134511540188857
0.00023036539473808
0.000377199458308176
0.000579864698949307
0.000802116191463255
0.000930760819428454
0.000799019730121418
0.000381809286346742
0.000401901825337645
0.000739260185471074
0.00119906943582326
0.00180923958045495
0.00253234032463334
0.00331712395809423
0.0041246665850829
0.004931165930079
0.00572423840355975
0.00649810818707014
0.00724949872558839
0.00797649105448456
0.00867752242840942
0.00935146400101042
0.0099973471787597
0.0106144374539612
0.0112021369601976
0.0117600678738503
0.0122880241130954
0.0127860391974538
0.0132544258491197
0.0136902683296178
0.0140914918727775
0.0144605635879941
0.0147986403323149
0.0151065235464253
0.0153850681107758
0.0156352000641758
0.0158578990905892
0.0160541819965009
0.0162251061979037
0.0163717661847016
0.0164952889685826
0.0165968274035716
0.016677547833891
0.0167386151685307
0.0167811709100216
0.016806319982729
0.0168151001319423
0.016808494383077
0.0167874281538315
0.0167528399190345
0.0167057194473955
0.016647064405473
0.0165778447750794
0.016498936895449
0.0164110885549891
0.0163149091578619
0.0162108789957982
0.0160994169558854
0.0159809953247288
0.0158561433102644
0.0157254235066528
0.0155893140532745
0.015448180801468
0.0153022349526235
0.0151515928882077
0.0149964455004201
0.0148369552156085
0.0146733052874679
0.0145056355265582
0.0143339795161475
0.0141582363023006
0.013978179467474
0.0137937287417825
0.0136049241713137
0.0134113126241611
0.0132121378459151
0.0130067395758906
0.0127942686577248
0.0125737588100212
0.0123440703325995
0.0121037861111526
0.0118512663260783
0.0115843712858683
0.011300657441268
0.0109967687135283
0.010668986158324
0.0103117873677551
0.00991819231670781
0.00948617807529976
0.00900874281663922
0.00847014908099956
0.00786027515998668
0.00715941822946962
0.00636960443247362
0.00547800657450674
0.00441708907144201
0.00437529311889787
0.00634215205625932
0.00806013610668404
0.00962038464220256
0.0106527006421833
0.0110894211003985
0.0110288719328754
0.0104246226570298
0.00968349186652893
0.00863595209599192
0.00804279679989268
0.00772226698884894
0.00950307058204581
0.0144503941741724
0.0133484750426201
0.00699880295968825
0.00984277771309676
0.00263176237099574
0.000465553451223054
0.000858822609695279
0.000104999202155045
4.55037728392935e-05
8.44782005761919e-05
0.000143958807894779
0.000252398184759655
0.000426134494752156
0.000682370956368834
0.00100774099705993
0.00132580852512306
0.00147503879350361
0.00127676647478811
0.000685830978664579
0.000755537721724903
0.00129777252535535
0.0019812339139167
0.00282868686385729
0.00378532098387516
0.00479086045532862
0.00580318462590582
0.00679854994971776
0.00776584968495351
0.00870099873918507
0.00960213463393101
0.0104685125673637
0.011299482454682
0.0120946542269343
0.0128536577722574
0.0135762591940614
0.0142622912495023
0.0149117540784517
0.015524781305205
0.0161017006120078
0.0166422090756782
0.017141851902492
0.017602594028521
0.0180261882072646
0.0184137729767532
0.018766363294374
0.0190850346803126
0.0193709280698619
0.0196252310518927
0.0198491631025609
0.0200439789268205
0.0202109657266541
0.0203514387840484
0.0204667345617293
0.0205581978555422
0.0206271658837326
0.0206749464249356
0.0207028029750257
0.0207119257058001
0.0207034414800573
0.0206784135442053
0.0206379129827182
0.0205830585762827
0.0205149750676894
0.0204347531183866
0.0203433803032464
0.0202417043827674
0.0201304229387971
0.0200100924395953
0.0198811989841586
0.0197442770445688
0.0195999218066945
0.0194487613484098
0.0192913354903329
0.0191280601929126
0.0189591907067373
0.0187848671586249
0.01860531146492
0.0184207070265647
0.0182312595925432
0.0180371312771056
0.0178383733833495
0.0176348908605606
0.0174264318941049
0.0172132871685818
0.0169951792825359
0.0167713883574146
0.0165412333367235
0.0163040066342118
0.0160588153046729
0.0158046079663276
0.0155401329267357
0.0152638577684468
0.0149739693932282
0.0146681659539053
0.014343726393046
0.0139970611750446
0.0136239743871111
0.0132185973794847
0.0127731057777882
0.0122828554521764
0.0117416456722086
0.0111321362657696
0.0104398770125756
0.009642223233606
0.00873156191857273
0.00769110830405461
0.00642993757491515
0.0063034980146907
0.00852328692865813
0.0106464432033711
0.0126402413051555
0.0141061326494961
0.0149395209417121
0.0152200085201054
0.0148765482191122
0.0143443313482593
0.0133615957955803
0.0129189668265259
0.0127157382085881
0.0154398904170353
0.0220278373111508
0.0211986898207023
0.011445888295044
0.0143899109335242
0.00449808893662414
0.000813388947496083
0.00144557343742842
0.000202776475754114
8.15449427827392e-05
0.000146519737281049
0.000246882870925301
0.000425415935899331
0.000701224857982551
0.00108337294261815
0.00151833163519234
0.00189084322288027
0.00202643296316149
0.00176743738193784
0.00108771450574034
0.00122846106083
0.00196332470260236
0.00284231747746649
0.00389140324161098
0.0050451412865982
0.00623576161715757
0.007417309382032
0.00856692105564523
0.00967555376038814
0.0107412116037204
0.0117635368073244
0.0127428787607126
0.0136793668704062
0.0145731895728934
0.0154244255981378
0.0162332022723429
0.0169996601457512
0.0177240662830186
0.018406796878712
0.0190484759663395
0.0196465044052115
0.0201991652847967
0.0207089146067812
0.0211772492121797
0.0216053766497595
0.0219944812276509
0.0223458151683499
0.0226606930063161
0.0229404722226933
0.0231865392790562
0.0234003123216615
0.0235832389408207
0.0237367916539877
0.0238624607384902
0.0239617409460268
0.0240361148826791
0.024087031392695
0.0241158896159837
0.0241240113501394
0.0241126485229201
0.0240829840478469
0.0240362023474267
0.0239735312263069
0.0238962028017614
0.0238054101971978
0.0237022365382134
0.0235876169721528
0.0234623278525862
0.0233269948490381
0.0231821641774967
0.0230284237873029
0.0228664246322289
0.0226968503371777
0.0225202942809641
0.0223372173789998
0.0221479173673026
0.0219525570316473
0.0217513874179389
0.0215446107454413
0.0213324529630301
0.0211150974754939
0.0208926153204202
0.020664921520711
0.0204319670751574
0.0201941301710634
0.0199506394410877
0.0197008589403224
0.0194441391203072
0.0191797457819635
0.0189067533261784
0.018624059282174
0.0183303414185399
0.0180239997068318
0.0177031145494485
0.0173652960385778
0.0170076559339324
0.0166264920062647
0.0162173241268074
0.0157741490679259
0.0152890873180536
0.0147548702235778
0.0141667540458454
0.0135065814758625
0.0127569434188879
0.0118938017490273
0.0109018839992007
0.00976206525039596
0.0083707868963347
0.00816194127275599
0.0104816539963838
0.0129096409367309
0.0152398306971262
0.0170563629722975
0.018236319462659
0.0188512813077363
0.0188311100068033
0.0186254673920389
0.0179256151625376
0.0178812283794957
0.018047487985225
0.0217279766844819
0.0294690391950107
0.0296014685490307
0.016445328754971
0.0188865071990994
0.0069523200261457
0.00131801752033267
0.00221729810294547
0.000359199752919024
0.000136328775695277
0.000235684692132045
0.000390598864423667
0.000656358575233892
0.00104530527538198
0.00154175319815285
0.00204618553361571
0.00243127765504515
0.00253916604611746
0.00223600327777517
0.00155547345328676
0.00177871127798643
0.00267600077248957
0.0037253897577069
0.00495384150263547
0.00628051138904306
0.00762941554718454
0.00895289920469991
0.0102311939626444
0.0114580342613859
0.0126334670528111
0.0137583681103516
0.0148338765819532
0.0158606427241959
0.0168392173081033
0.0177699585947444
0.0186532189784954
0.0194893373575892
0.0202787572594554
0.0210220133909604
0.0217196739672179
0.0223673866764647
0.0229664841059855
0.0235189578967695
0.0240262245190982
0.0244895810719707
0.0249103545011269
0.0252899472233378
0.0256298226613626
0.0259314854620503
0.026196467587673
0.0264263301847731
0.0266226616323126
0.0267870728151043
0.0269211897054148
0.0270266396889275
0.0271050344244043
0.027157948514445
0.0271869028805264
0.0271933382356598
0.0271786200893708
0.027144039550024
0.0270908821544319
0.0270204722682467
0.0269341372111431
0.0268331615685172
0.0267187145843586
0.0265918112365942
0.0264533009942928
0.0263038743806591
0.0261441330329727
0.0259747128101252
0.0257963140020419
0.0256096698929995
0.0254154225276162
0.0252140747135514
0.0250059657777523
0.0247912801135488
0.0245702969377622
0.0243432358408645
0.0241103416051343
0.023871818260037
0.0236277574777773
0.0233781479624008
0.0231233411398014
0.0228631188833639
0.0225967357153604
0.0223236036623915
0.0220430897772667
0.0217544445843452
0.0214567198528602
0.0211487810372827
0.0208292603320124
0.020496516697474
0.0201485637054557
0.0197829631536995
0.0193967250738496
0.0189860962316366
0.0185464270116634
0.0180716782763472
0.0175538960162956
0.0169845231937992
0.0163593687935064
0.0156602062827732
0.0148676249575546
0.0139569082223236
0.0129069167721961
0.0116967825272566
0.0102168808510884
0.00992977488880113
0.012272041577362
0.0149306095860389
0.0175221033002234
0.0196162174987327
0.0210809018880677
0.0219849973636907
0.0222706759965848
0.0223933291159591
0.0220364553870937
0.0224661523728851
0.0231324371741169
0.027694704406364
0.036197364558769
0.0375187241327454
0.0216677162222634
0.0231913019412808
0.00987966301095652
0.00201591600916223
0.00313211854080878
0.000591388118336337
0.000215558896944702
0.000356262034184693
0.00057706268738896
0.000938314364187675
0.001432852764452
0.00201157589641527
0.00254655045742615
0.00292355681586146
0.0030072474546303
0.00268185974039531
0.00205383538811737
0.00236720225670386
0.00340392070413974
0.00461144569984327
0.00600533198046549
0.00748488846287164
0.00896984750446644
0.0104144093090699
0.0118031505934066
0.0131324338243361
0.0144038889661874
0.01561921989262
0.0167800375649176
0.0178872833671928
0.0189416987863585
0.0199437957898916
0.0208940559813252
0.0217929418255741
0.0226410140917287
0.0234389230739059
0.0241863814144372
0.0248794627456011
0.0255206861502599
0.0261118147550642
0.0266542612322281
0.0271494155529695
0.0275987309116838
0.0280037433062065
0.0283660496486092
0.0286872874922376
0.0289691206756211
0.0292132402936778
0.0294213629076577
0.0295952255691744
0.0297365782006572
0.0298471695775007
0.0299287298021084
0.0299829492809768
0.0300114617234918
0.0300158184568072
0.0299974910790734
0.0299578711977023
0.0298983372037709
0.0298203016612666
0.029725178979117
0.0296143380262864
0.029489028021474
0.0293503388823171
0.0291991895807627
0.0290363326812306
0.02886242202995
0.0286781375939309
0.0284842246410887
0.0282814623357628
0.0280705382120194
0.0278519949713621
0.0276262131858828
0.0273933978947971
0.0271538561940137
0.0269078240046778
0.0266555641025384
0.0263973007296134
0.0261331450758913
0.0258634580259453
0.025588383563998
0.025307396459273
0.0250198510022062
0.0247251921976775
0.0244227985944488
0.0241119130198865
0.023791573124579
0.0234606249413253
0.0231176723485403
0.0227610509401183
0.0223887345344891
0.0219982622238271
0.021586586697004
0.0211499417633642
0.0206835857806338
0.0201815014077098
0.0196356952743334
0.0190369716367326
0.0183813451176222
0.0176508639249329
0.0168247982454889
0.0158781272868244
0.0147852850831923
0.0135239144807285
0.0119824199883115
0.0116221436413454
0.0139463682052553
0.0167798926843727
0.0195768549091826
0.0218922852080851
0.0235898487713931
0.0247379207200483
0.0252943932201094
0.0257115631602064
0.0256873799523479
0.0265674338087569
0.0277520720923333
0.0330767676165831
0.0421002470700286
0.0444338863221028
0.0269652094598377
0.027226995822727
0.0131084452835682
0.00295141563991884
0.00411121226009834
0.000912040585883246
0.00032504788319077
0.000510240108867845
0.000802696071206533
0.00125592701756066
0.00183448851111649
0.00246144948988176
0.00300406512383312
0.00336934064855856
0.00343910312088086
0.00311210289781994
0.00256303824606165
0.00297114137677801
0.00413678525166652
0.00549724237528816
0.0070436478863976
0.00865781226492213
0.0102608803735265
0.0118111671644452
0.0132975810629755
0.0147185380721168
0.0160767272916834
0.0173743256861318
0.0186131681433947
0.0197943191390558
0.0209185908151354
0.0219865628938504
0.0229987821052895
0.0239557846480923
0.0248582101538075
0.0257068610072064
0.0265000415677943
0.0272354553864903
0.027915836615538
0.0285428365228121
0.029117898717779
0.029642504770596
0.030118223533077
0.0305467136434106
0.0309296954542357
0.0312689300523624
0.0315662041135192
0.0318233299696089
0.0320421438949677
0.0322245008727786
0.0323722668378246
0.0324873043485683
0.0325714547699548
0.0326265175694287
0.0326542331690451
0.0326562578882898
0.032634164369751
0.0325894393990066
0.0325235484428021
0.0324379864163424
0.0323342491809964
0.0322137850192346
0.0320779189540166
0.0319278125593052
0.0317644519594226
0.0315886499493468
0.0314011103660644
0.0312025545960511
0.0309937698178427
0.0307755785713322
0.0305487117533747
0.0303137505727369
0.030071116960165
0.0298210356758614
0.0295638419320324
0.0292997871789056
0.0290291516861966
0.0287521792217319
0.0284691289653856
0.0281806600245826
0.0278863992942468
0.0275858340056067
0.0272783874197103
0.0269635304121643
0.0266406519535402
0.0263089929260354
0.0259675840667747
0.0256152614135154
0.0252506135449263
0.0248719658021852
0.0244772724406747
0.0240640684794668
0.0236292820486226
0.023169160881887
0.0226789280223814
0.022152626861275
0.0215822743941404
0.0209583833233494
0.0202770437506848
0.0195207586062876
0.0186679818549429
0.0176936169243736
0.0165688157725301
0.0152699135577916
0.0136860828357964
0.0132586572653045
0.0155419190913998
0.0185077262372007
0.0214677040734323
0.0239615080516849
0.025851478281769
0.0272065747149038
0.0280004964237912
0.0286749194681359
0.0289545297409183
0.0302306951658434
0.0319020983682355
0.0378635089539337
0.047270626273024
0.0503334508237451
0.032281011647342
0.0310083798563963
0.0164689009999246
0.00418074821554373
0.00507106104153485
0.00132423190343076
0.000469791856035966
0.000696320807553889
0.00105880835351185
0.00159085361537437
0.00222800375398538
0.00287861806611196
0.00342004363095804
0.00377768645351193
0.00384462265765246
0.00353320711731826
0.00307442422250995
0.00358124432486878
0.00487413534259912
0.00638289138080598
0.00806798566640126
0.0098008138366783
0.0115080992817459
0.0131529951073661
0.0147280876886293
0.0162332264230871
0.0176717147326157
0.0190459336227483
0.0203577619442874
0.021608267902684
0.0227982503976005
0.0239282970625995
0.0249989755400147
0.0260108609921131
0.0269646419935055
0.0278613647631122
0.0286974444282619
0.0294730217552272
0.030190464113734
0.0308513753644118
0.0314572469758755
0.0320096498983243
0.0325102615493683
0.0329608558133543
0.0333632697887823
0.0337193818181843
0.0340310953138383
0.0343003379382888
0.0345290599044355
0.0347192284879195
0.0348728202023579
0.0349918061808912
0.0350781341310075
0.0351337079590057
0.035160370652396
0.0351598796912599
0.0351339053753012
0.0350840259813611
0.0350117899681404
0.0349187704467849
0.0348065407526682
0.0346766252508601
0.0345304219009685
0.0343691617136828
0.0341938964691465
0.0340054980938699
0.0338047189101085
0.0335923197949556
0.0333691276478503
0.0331360067354913
0.0328937298993581
0.0326429158395667
0.0323840283679788
0.0321173110050472
0.0318431277797628
0.0315617450004825
0.0312734601832004
0.0309785335091085
0.0306776804635162
0.0303712045117111
0.0300585730651363
0.0297393170489428
0.0294129119025729
0.0290788508878199
0.0287365341021986
0.0283852052018296
0.0280238941750706
0.0276514346144342
0.0272664101872734
0.026867146468869
0.0264515940894903
0.0260172986979247
0.0255611894392949
0.0250795487560697
0.0245676080754792
0.0240195005727735
0.0234273041887412
0.022781442195913
0.0220780358468603
0.0213001508574329
0.0204258047575675
0.0194299839838531
0.0182814723331134
0.0169554844358078
0.0153438696685018
0.0148558688248714
0.0170846385659148
0.0201490219039733
0.0232385721480158
0.025877226027175
0.0279280996237926
0.0294612330611792
0.0304648349021189
0.031364221516179
0.0319183129972951
0.0335352696775224
0.03565044180139
0.0421356737738511
0.0518444153618934
0.0553888778214086
0.0375459459421925
0.0346930046258224
0.0198318615083582
0.00576588781217951
0.00596057989842591
0.00181825045526369
0.00065286091502842
0.000909840660653136
0.00133411437813618
0.00192746605972663
0.00260161399604853
0.00326204804914886
0.0038013004435853
0.00415767927900351
0.00423173325589069
0.00394953656681407
0.00358541709352715
0.00419603880081041
0.00561808730238346
0.00726807785548794
0.00907798843628158
0.0109163125719969
0.0127172904239606
0.014448740700947
0.0161060960103091
0.0176901120227169
0.0192043598509563
0.0206512263392833
0.0220325028832334
0.0233491740064512
0.0246019641034682
0.0257914247469348
0.0269181121849013
0.0279826147720211
0.0289856346865964
0.0299280665331887
0.0308055925819611
0.0316197865311362
0.0323728014537666
0.0330662333662925
0.0337016303757121
0.034280650781292
0.0348050757937022
0.0352767895722499
0.0356977415604447
0.0360699232212124
0.0363953506538312
0.0366760629174223
0.03691412029534
0.0371115985585602
0.0372705811497864