/*--------------------------------*- C++ -*----------------------------------*\
  =========                 |
  \\      /  F ield         | OpenFOAM: The Open Source CFD Toolbox
   \\    /   O peration     | Website:  https://openfoam.org
    \\  /    A nd           | Version:  7
     \\/     M anipulation  |
\*---------------------------------------------------------------------------*/
FoamFile
{
    version     2.0;
    format      ascii;
    class       volScalarField;
    location    "20000";
    object      k_conv;
}
// * * * * * * * * * * * * * * * * * * * * * * * * * * * * * * * * * * * * * //

dimensions      [0 2 -3 0 0 0 0];

internalField   nonuniform List<scalar> 
15600
(
-5.99407410837213e-06
3.42221917934308e-08
-9.20053043842824e-08
-3.82762802158448e-07
-3.72631921453633e-09
-2.11132685259667e-10
-2.90980033464307e-10
-6.91823885172586e-10
-1.26654400932373e-09
-2.15949601262678e-09
-1.35455623975833e-08
-7.93291163520857e-08
-2.22264012005884e-07
-2.91563694716558e-07
-1.57391332681982e-07
-7.34579044994612e-09
-3.33330656142056e-10
2.66720731783195e-09
-1.0884085665304e-09
-1.63679608246989e-08
-3.80258569002861e-08
-6.53939716388872e-08
-9.51531548808217e-08
-1.24849069205538e-07
-1.53190134739964e-07
-1.79305033509623e-07
-2.02679091521425e-07
-2.2283590429921e-07
-2.39514874712626e-07
-2.52509049661314e-07
-2.61763640081243e-07
-2.67279138359676e-07
-2.69201392204048e-07
-2.67737195088423e-07
-2.63229828793178e-07
-2.56102232028115e-07
-2.46928326174628e-07
-2.36675629814357e-07
-2.27032090155308e-07
-2.13386606020664e-07
-5.12241250801649e-07
-1.01765305530928e-06
-1.51281936798175e-06
-1.99122002330448e-06
-2.44769071166919e-06
-2.87767970442709e-06
-3.27750741877723e-06
-3.64432435796085e-06
-3.97611374427937e-06
-4.27172306544152e-06
-4.53076524103477e-06
-4.7537736673194e-06
-4.94160040219794e-06
-5.0960818904224e-06
-5.21864073830582e-06
-5.31138047095281e-06
-5.37559445171053e-06
-5.41228508704165e-06
-5.42354184842044e-06
-5.41170557947278e-06
-5.37978071852804e-06
-5.33071999413061e-06
-5.26705477824668e-06
-5.19076349133955e-06
-5.10315935015004e-06
-5.00449214027882e-06
-4.89583451444954e-06
-4.77821653419187e-06
-4.65375967812544e-06
-4.52383205378066e-06
-4.39001446083166e-06
-4.25253920237054e-06
-4.11140755653804e-06
-3.96700718263373e-06
-3.81983246632737e-06
-3.67062316045396e-06
-3.51992887642808e-06
-3.36794289164369e-06
-3.21421418081269e-06
-3.05865406962243e-06
-2.90077161669962e-06
-2.74069398801578e-06
-2.57780438912215e-06
-2.41214744826182e-06
-2.24258721547101e-06
-2.06889276332178e-06
-1.88919715760319e-06
-1.70402900201037e-06
-1.5099370274025e-06
-1.30944352071355e-06
-1.09515705601547e-06
-8.75090927388603e-07
-6.36923786351421e-07
-3.97198067336693e-07
-1.31530045881459e-07
-4.81788245847214e-09
-4.69649722075593e-09
-3.91879375674952e-09
-1.0609109890469e-09
6.15562673651047e-09
1.30882557419072e-08
2.10388480571699e-08
2.97019024677619e-08
-4.34472855502652e-09
-1.11916108756595e-07
-1.37753296449509e-06
-3.54599121796911e-06
-8.1232420616181e-06
-1.04210761387141e-05
-9.6115646190126e-06
-7.28098678550976e-06
-3.50128768761073e-06
-2.1313741917891e-06
-9.58875780385854e-07
-2.35090715322085e-06
-5.3795105203298e-06
-2.2652650653691e-05
-0.000100524964536973
-8.44534696470057e-07
-2.22794487355298e-06
-2.41827609782868e-06
5.74652668043084e-06
-1.69339404137891e-06
-9.17007527234498e-06
-1.0137339643251e-07
-1.79460041288173e-08
-2.76602875191325e-08
-5.73826463689623e-08
-1.11519464084867e-07
-1.88119774066995e-07
-4.49217850475467e-07
-1.93906755106709e-06
-4.94574747839326e-06
-6.91753358347842e-06
-4.01334939324716e-06
-5.58990417984579e-07
1.21400480088e-08
2.66880207638805e-07
-3.58144079017244e-07
-1.47288652545276e-06
-3.17097723246344e-06
-5.26866921997714e-06
-7.52934515000278e-06
-9.79329937915263e-06
-1.19649128509964e-05
-1.3980203215853e-05
-1.57973193842966e-05
-1.73817449020514e-05
-1.87143800169775e-05
-1.97819672052736e-05
-2.05820622827952e-05
-2.11171745067116e-05
-2.13996085455251e-05
-2.14463812310631e-05
-2.12836984648336e-05
-2.09442054351901e-05
-2.04726765632019e-05
-1.9948964014404e-05
-1.95138327139338e-05
-2.22866597876435e-05
-3.25530753322661e-05
-4.24195981535316e-05
-5.1957772387354e-05
-6.1066826868929e-05
-6.96667504773932e-05
-7.76898717844763e-05
-8.50833087694684e-05
-9.18085461273138e-05
-9.78411169171693e-05
-0.000103170704024
-0.000107799667468384
-0.000111743813937317
-0.000115024975805013
-0.000117676909828766
-0.000119728579006409
-0.000121215573392497
-0.000122163019600494
-0.000122594703747009
-0.000122550980352375
-0.000122077555013877
-0.000121228543599859
-0.000120055666152288
-0.000118602033028642
-0.000116900049258167
-0.000114970314456659
-0.000112820348697965
-0.000110470947494619
-0.000107945219473337
-0.000105280614427489
-0.00010250303548341
-9.96375080179706e-05
-9.66872534501529e-05
-9.3653389584727e-05
-9.0543392300114e-05
-8.7367771635026e-05
-8.41404462760978e-05
-8.08709354972902e-05
-7.75605540937672e-05
-7.42000503997565e-05
-7.07867218883768e-05
-6.73106750617437e-05
-6.37725132027518e-05
-6.0159049098408e-05
-5.64691178476787e-05
-5.2679355976043e-05
-4.87787322122038e-05
-4.47341200259864e-05
-4.04127027583454e-05
-3.59818963160237e-05
-3.1399325585402e-05
-2.652787557128e-05
-2.14486488649734e-05
-1.5970748573175e-05
-1.031800309731e-05
-4.14982211710339e-06
-9.91178893019647e-07
-7.26376962761828e-07
-4.73443796577572e-07
-1.07754657876186e-07
2.75217221841641e-07
1.12865189273373e-06
2.11642427835432e-06
2.88908145495414e-06
4.10456248253174e-07
-7.53416969401963e-06
-3.77543148410566e-05
-9.23471345150507e-05
-0.000183498593889274
-0.000229574520278058
-0.000213097981525253
-0.000165658417756079
-9.22083640030683e-05
-5.76920472677092e-05
-3.44681106913704e-05
-5.76191191541353e-05
-0.000126005578503822
-0.000492521205249201
-0.00203633124099189
-2.1901053590075e-05
-0.000143262984293269
-8.6180951612852e-05
6.32924797868243e-05
-1.1234355193653e-05
-6.1138885863626e-05
-7.75931418082217e-07
-2.0094624305159e-07
-3.08752595752996e-07
-6.00849882170436e-07
-1.19703754460679e-06
-2.07866235393836e-06
-4.15764651266687e-06
-1.36134050466674e-05
-3.10970406561561e-05
-4.40329415585894e-05
-2.70269397428109e-05
-5.25841636716275e-06
9.04886812543801e-07
2.24126870845583e-06
-3.71876104053435e-06
-1.3984308765246e-05
-2.92060227329947e-05
-4.77026955117781e-05
-6.75971006613968e-05
-8.76055483275444e-05
-0.000106885968282922
-0.000124849404237096
-0.000141138229842281
-0.000155489774197747
-0.000167799525807883
-0.00017801588315741
-0.000186181066062168
-0.000192370079642067
-0.000196728204423388
-0.000199424555055696
-0.000200691642672263
-0.000200808542384838
-0.000200152150464639
-0.000199433069352726
-0.000200625341143157
-0.000245886261963608
-0.00028257718368012
-0.000317395537418392
-0.00035015823892001
-0.000380724194909269
-0.000408998348253901
-0.000434913104663606
-0.000458430180979936
-0.000479539767880994
-0.000498259074251084
-0.000514631568798208
-0.000528723597441968
-0.000540622679294062
-0.000550423309678393
-0.0005582320921151
-0.000564139266667311
-0.000568238893512489
-0.000570606493657987
-0.000571325971921126
-0.000570523478607497
-0.00056833964682057
-0.000564927760203863
-0.000560425905561085
-0.000554940122600414
-0.000548540184679869
-0.000541264417343852
-0.000533132954151369
-0.000524212517131425
-0.000514584698281071
-0.000504363398950115
-0.000493625128009201
-0.00048243146263157
-0.000470775185480866
-0.000458657613243349
-0.000446098988469943
-0.000433137189516561
-0.00041981909091554
-0.00040617061442222
-0.000392180949406451
-0.000377802050443008
-0.000363016518551694
-0.000347771750743211
-0.00033205965056211
-0.00031581199750692
-0.000299008390088792
-0.000281206030912588
-0.000261495951279141
-0.000242352840391747
-0.000222223073172961
-0.000200831968354951
-0.000178168530009154
-0.000153774912651066
-0.000127787291394116
-9.94155431481083e-05
-6.92262172839078e-05
-3.58929317834192e-05
-1.59209455177159e-05
-9.91991915810973e-06
-4.2582383590271e-06
2.51070838469459e-06
8.79810979423624e-06
1.65833006174866e-05
2.4813130566721e-05
3.93826429247352e-05
1.86049930284198e-05
-5.53524425981266e-05
-0.000250599005168343
-0.000562604778843664
-0.00104495648477973
-0.0013063311080577
-0.00125824161447946
-0.00103030795150683
-0.00065508857264532
-0.000438758421572412
-0.000315596493115245
-0.00042605283277943
-0.00086151243244793
-0.00298472434795969
-0.0110655851030033
0.00016092779457626
-0.000971855449289253
-3.13061653302125e-05
0.000171580538487558
-5.73717787781271e-05
-0.000226687758638014
-3.3198646404484e-06
-1.01571581049897e-06
-1.49688712470205e-06
-2.86169722709165e-06
-5.69245759784544e-06
-1.02052047933416e-05
-1.9276056930068e-05
-5.22692118027672e-05
-0.000106747667976411
-0.000147252883683497
-9.49333243926396e-05
-1.96186021174341e-05
8.42724360753372e-06
4.28238407626902e-06
-1.85026459199523e-05
-5.84364700000012e-05
-0.00011163392706743
-0.000171463192307121
-0.0002325811966649
-0.000291729126958578
-0.000346941479353916
-0.000396943293518764
-0.000441353865368663
-0.000480043444734579
-0.000513354308683199
-0.000541635596375073
-0.000565407692352747
-0.000585140457987698
-0.000601386149142877
-0.000614644647810309
-0.000625504297066722
-0.000634622747340903
-0.000642829072030123
-0.000651584505364606
-0.000731300230624931
-0.000774435322603987
-0.000813989287392765
-0.000849788033120583
-0.000882015323492568
-0.000910839882781242
-0.00093642900393021
-0.000958948119171291
-0.000978559499136152
-0.000995425868990929
-0.00100971018990722
-0.00102157396921792
-0.0010311748199938
-0.001038660287928
-0.00104416185833734
-0.00104778595466369
-0.00104961571310417
-0.00104972043866384
-0.00104818202373906
-0.00104511345740378
-0.00104065585242671
-0.0010349518070083
-0.00102812594923517
-0.00102026672759731
-0.00101141535220126
-0.00100156875553588
-0.00099070750100383
-0.000978837192231476
-0.000966029567543054
-0.000952376836634793
-0.000937979893377597
-0.000922887475917493
-0.000907114134109612
-0.000890594029279294
-0.000873310865941404
-0.000855261353671102
-0.000836479726280133
-0.000817005989518393
-0.000796841983999536
-0.000775927876517374
-0.000754152759758975
-0.00073146420842477
-0.000707740462193776
-0.000682932039159357
-0.000655658548979948
-0.000623131403882894
-0.000594164246745022
-0.000563455344567271
-0.000530642831464835
-0.000495500976837989
-0.000457485569769897
-0.000416331431378475
-0.000371146252584978
-0.000321692569283864
-0.000266447148120668
-0.000205457081573177
-0.000136144677526133
-7.80687819437776e-05
-4.54614628541827e-05
-1.30524089503043e-05
2.34064144638993e-05
5.75759397252843e-05
9.53184385568085e-05
0.000121322242244263
0.000167363905567429
0.00014838563202759
-0.000110597635067656
-0.000700862770843294
-0.00143784238641865
-0.00260986647618562
-0.0033188103387662
-0.00343482982660863
-0.00307218423119643
-0.00225597106379628
-0.00165745012360447
-0.00136075754151956
-0.00165901242158939
-0.00317571217787341
-0.00967333528897437
-0.0313820794030423
0.00147013185451711
-0.00246867968762626
0.00166557530558124
-4.37873517797565e-05
-0.000175198314907085
-0.000601561613680353
-1.02697365809484e-05
-3.39381514858649e-06
-4.81758366019413e-06
-9.15833872542988e-06
-1.80133656315553e-05
-3.28496810238107e-05
-5.93970705751613e-05
-0.000138188921363922
-0.000247996038798323
-0.00031997840983392
-0.000214957896740948
-3.87367968698072e-05
2.80981139598027e-05
-4.03756990659061e-07
-5.19068212821216e-05
-0.000128328684482762
-0.000215015763545177
-0.00030826113369915
-0.00040561359782262
-0.000502917836211139
-0.000596144874980356
-0.000682135251004715
-0.000759876608246457
-0.000828864543284954
-0.000889547836140162
-0.000942325794452479
-0.000987915775119103
-0.00102694241427032
-0.00106016989914714
-0.00108828505160807
-0.00111211609973692
-0.0011326591744112
-0.00115105821381409
-0.00123024662553024
-0.00126765438076747
-0.00129084749424816
-0.00130984906887611
-0.00132497709509093
-0.00133670075785188
-0.00134541396482159
-0.00135146725789206
-0.00135518190673311
-0.00135684721838133
-0.0013567272751379
-0.00135506096274948
-0.00135205951387049
-0.00134790457045551
-0.00134274176512908
-0.0013366801679532
-0.00132977892671011
-0.00132207060527846
-0.00131356785280913
-0.00130432619939328
-0.0012944466334875
-0.00128403958302153
-0.00127319786423468
-0.00126196795066759
-0.00125034809965966
-0.00123828712403563
-0.00122569504744404
-0.00121248884287643
-0.00119864877681722
-0.00118422877996923
-0.00116929894019173
-0.00115391034367324
-0.00113805786339717
-0.00112169641851149
-0.00110470536479652
-0.00108704946412596
-0.00106869263610614
-0.00104964829415028
-0.00102993104073119
-0.00100951158646633
-0.000988291019379871
-0.000966120673285209
-0.000942917133801559
-0.000918525148259505
-0.000885847328136123
-0.000854459383247737
-0.000825535531956392
-0.000794712751681383
-0.000761774076078796
-0.000726286330033177
-0.000687897240200888
-0.000645968620470071
-0.000600020753769806
-0.000549011659371053
-0.000492298769934089
-0.000428102502769099
-0.000355653146675776
-0.000271879926497278
-0.000175312973307807
-0.000100789108377634
-2.07561343397e-05
7.06901472270749e-05
0.000162675919632997
0.000263363429901713
0.000341082263683854
0.000412962513713774
0.000475998689290272
5.63361239513802e-05
-0.00104021990660321
-0.00208949422197658
-0.00364967501005868
-0.00472204153262331
-0.00525222361932604
-0.00518307684245351
-0.00443242453053265
-0.00365982961191618
-0.00346434025738463
-0.00409335345160055
-0.00773140766360622
-0.0206183684912725
-0.0574863777455174
0.00436771701148718
-0.00283890683691181
0.00869168545397202
-0.00142043806213971
-0.000402007572542572
-0.0012712742478137
-2.57885829192091e-05
-8.79799699012692e-06
-1.21541124219659e-05
-2.2942101683832e-05
-4.42465593604848e-05
-8.03935890042567e-05
-0.000137451040719467
-0.000274004043858939
-0.000420254852551664
-0.000489549576655019
-0.000344250131480643
-3.28582607956219e-05
5.13902846611127e-05
-3.30193828882866e-06
-7.18738835112569e-05
-0.000162195788196374
-0.00028018421726758
-0.000429305991518963
-0.000594521944664618
-0.000757203356681689
-0.000906906415791083
-0.00103863979112453
-0.00115233680221889
-0.00124869374094209
-0.0013295851402008
-0.00139652764976359
-0.00145125651190989
-0.00149521029627036
-0.00152986347987728
-0.0015564923932275
-0.00157643985268815
-0.00159125371112137
-0.00162481783729291
-0.00167381694520502
-0.00167648212474591
-0.00167645496202818
-0.00167276157303004
-0.00166594724442763
-0.00165661645945758
-0.00164525837038694
-0.00163229580083657
-0.00161810336861133
-0.00160300726092204
-0.00158729322918664
-0.00157120664958113
-0.00155495012301789
-0.00153868200969035
-0.00152251225432144
-0.00150650291983921
-0.00149065790492104
-0.00147495084629661
-0.00145933689745125
-0.00144382747386316
-0.00142848758145877
-0.00141338616093052
-0.00139856197645978
-0.00138399395933561
-0.00136960931508454
-0.00135528814238956
-0.00134087792349887
-0.00132624651558156
-0.00131134473040818
-0.00129620525018474
-0.00128087333066399
-0.00126536214647197
-0.00124962768863667
-0.0012335890537229
-0.0012170884078364
-0.00120007595432259
-0.00118249170252686
-0.00116433244777781
-0.00114559526313958
-0.00112623361581647
-0.0011061295479959
-0.00108511978573181
-0.0010630980315093
-0.00103030581233423
-0.00100050828105824
-0.000974214308942456
-0.000946297010150342
-0.000916473271689012
-0.000884478441026855
-0.000849881632153127
-0.000812280237514465
-0.000771036347502569
-0.000725577135359474
-0.000674868120989768
-0.000618071243963232
-0.000553426435155918
-0.000479721080543459
-0.000393912553435883
-0.00028082216789203
-0.000181677729345702
-6.78236730956827e-05
6.64933032704125e-05
0.000213270250797433
0.000382383532612741
0.000538427666928757
0.000695520912301467
0.000836365529263929
0.000472563167556899
-0.00107432966740828
-0.00238359078359868
-0.00379006661536176
-0.00493544983271831
-0.00569147915960616
-0.00596325268697736
-0.00567632897440522
-0.00512133881294238
-0.00558146051975316
-0.0066809863880739
-0.0132536750394052
-0.0312374207229883
-0.075629268974667
0.00908956856619235
-0.00253972427314116
0.0225493113023746
-0.00410622835565168
-0.000739981139790363
-0.0022395035062439
-5.56152697508033e-05
-1.91551947074787e-05
-2.59541192034306e-05
-4.82080251496927e-05
-8.99519706069968e-05
-0.000158572321843741
-0.000257522493273042
-0.000422581679993243
-0.000548365175066954
-0.000569039285555567
-0.000434711115013497
3.36698889946499e-05
7.32302134211168e-05
1.20101555798401e-05
-7.25984448362274e-05
-0.000212375656894342
-0.000417005577845795
-0.000657153558053834
-0.000897062352702784
-0.00111341737543066
-0.00130017146292063
-0.00145631470491677
-0.00158523652843781
-0.00168974359894606
-0.00177331133151842
-0.00183856162602216
-0.00188811724657695
-0.00192411205392971
-0.00194859813971679
-0.00196333483140163
-0.0019700270894383
-0.00196718138105006
-0.00202004019525999
-0.00200459585123068
-0.00198823276634504
-0.00196894442605597
-0.00194671911543006
-0.00192222138771329
-0.00189611544245085
-0.00186892860179024
-0.00184110932390091
-0.00181304507977416
-0.00178506596490404
-0.00175745271619946
-0.0017304367678158
-0.00170419806061966
-0.00167886410943914
-0.00165450819979702
-0.00163114965379285
-0.00160874763481208
-0.00158722637018839
-0.00156649293824453
-0.00154651336025606
-0.00152731377566216
-0.00150892663482499
-0.0014913467529205
-0.00147450328834495
-0.00145827316401301
-0.00144248860633745
-0.00142695278042075
-0.00141149429856879
-0.00139603453995833
-0.00138058633182845
-0.00136517410529819
-0.0013497853489028
-0.00133435003674149
-0.00131876654753027
-0.00130284925499613
-0.00128653565556789
-0.00126974756169232
-0.00125246896111114
-0.00123468522277818
-0.0012163399501695
-0.00119730464842051
-0.0011774100640416
-0.00114851004093965
-0.00111678747521912
-0.00109306540327649
-0.00106786563523435
-0.00104107077318749
-0.00101239610176258
-0.000981556052986799
-0.000948130988227155
-0.00091169658164813
-0.000871628481381544
-0.000827311021456515
-0.000777737084122165
-0.00072197527639443
-0.000658317816758658
-0.000585332544902917
-0.000500071630565179
-0.000384679436850799
-0.000276575296268499
-0.000148590901914691
4.69617558030309e-06
0.000180493286448589
0.000390408946515834
0.000607093626207214
0.000843435422912803
0.00107421962180269
0.000910457159085556
-0.0011076506137527
-0.00229992460805687
-0.00354732690438789
-0.00459527730698839
-0.00535064311472084
-0.00573098837807225
-0.0057432598831645
-0.00532111512626065
-0.00639508190196207
-0.00760538875576201
-0.0167783780555418
-0.0357487127932701
-0.0786475418801696
0.0172732179996707
-0.0080752428513981
0.0371491803110381
-0.00628908311893073
-0.00109468063304555
-0.00333038346499425
-0.000105666796750168
-3.65558370177612e-05
-4.87347476572368e-05
-8.77644745733842e-05
-0.00015535253477394
-0.00025765763121121
-0.000384426577617374
-0.000530983667475408
-0.000597778896427
-0.000566324273282301
-0.000432894828780386
0.00010011165732845
9.70625562951593e-05
2.30449605364304e-05
-0.000125160104513172
-0.00035694295464104
-0.00065475845757853
-0.000962838878969381
-0.0012480863187349
-0.00149228385659521
-0.00169553758396638
-0.00185995980647137
-0.00199129277422165
-0.00209370617928332
-0.00217171776602521
-0.00222872265100519
-0.00226796176803059
-0.00229206975292195
-0.00230350177046495
-0.00230436174803257
-0.00229692823962926
-0.00229339554900602
-0.00230255897384388
-0.0022728077090615
-0.00224101860373609
-0.00220652003369963
-0.00216974040115805
-0.00213142498195454
-0.00209227033963453
-0.00205282399970394
-0.00201354539449958
-0.00197482296422164
-0.00193698193053896
-0.00190029201674675
-0.00186496770078196
-0.00183116629774557
-0.00179898773564328
-0.00176847478326459
-0.00173961293681335
-0.00171232743109242
-0.00168650332440686
-0.00166200778219666
-0.00163876399459662
-0.00161676169230791
-0.00159600337953357
-0.0015764498840229
-0.00155799411720537
-0.00154047731521172
-0.00152369772360726
-0.00150742566919732
-0.00149145661596317
-0.00147568370059668
-0.00146010171650578
-0.00144471834594263
-0.00142950348065594
-0.0014143694357891
-0.00139920241100056
-0.00138379426086406
-0.00136807057021867
-0.00135193830274398
-0.00133537088246557
-0.00131834512891539
-0.00130079820427014
-0.00128259450782291
-0.00126067546379323
-0.00122352119137935
-0.00120195254616053
-0.00117902101305799
-0.00115465487038713
-0.00112870491530415
-0.00110088839313015
-0.00107090818159629
-0.00103835171843333
-0.0010027808295987
-0.000963578832158647
-0.000920102813826346
-0.000871361220339496
-0.000816365883982212
-0.000753438558223047
-0.000681018466453958
-0.000596209532677067
-0.000497230344769146
-0.000370155065501152
-0.000235830762771862
-7.41697719182265e-05
0.000116054829521987
0.000347543489002643
0.000601728685024962
0.000891946714846847
0.00119330288600978
0.00107570368445443
-0.000914594323478239
-0.00208352739324381
-0.00319997929523058
-0.00411855542582819
-0.00479142401368832
-0.00514586447004808
-0.00524758024189262
-0.0047533119837969
-0.00603019521513019
-0.00665153607000936
-0.0169749970122883
-0.0330679601188608
-0.0704283131424671
0.0273518701669103
-0.0223052194634559
0.0456672103948524
-0.00576660763914825
-0.00118251713279165
-0.00414286178562747
-0.000177904033466094
-6.25875197901379e-05
-8.19811690187107e-05
-0.000140545154265346
-0.000231171845647055
-0.000353397717245588
-0.00048127471721468
-0.000583014716604738
-0.000593029804972278
-0.000523112484483771
-0.000357107773898132
0.00012075115102252
0.000102156145081377
-1.47087346174586e-05
-0.000257218951287308
-0.000570783850072818
-0.000933310202581168
-0.00128209235334733
-0.00159260059829264
-0.00184999965940459
-0.00205903142299629
-0.00222393689536569
-0.00235205945002551
-0.00244847228574168
-0.00251835632807375
-0.00256563043140433
-0.00259393958364185
-0.00260625563537809
-0.00260529535373639
-0.00259335928855274
-0.00257211413532964
-0.00258349488439793
-0.00254254564756856
-0.00250077551601378
-0.00245656449336622
-0.00240995555204519
-0.00236161774261156
-0.00231235766707777
-0.00226289305473291
-0.00221378479036404
-0.00216549756782295
-0.00211841670635319
-0.00207285997482683
-0.00202908506299948
-0.00198729022900803
-0.00194761264312078
-0.00191012900955357
-0.0018748574636484
-0.00184175725948354
-0.00181072784360926
-0.00178162308348663
-0.0017542760751286
-0.00172857005075585
-0.0017044614087529
-0.00168192809659649
-0.00166090476044181
-0.00164125762535035
-0.00162280229905978
-0.00160531246377399
-0.0015885332351338
-0.00157223106251331
-0.00155627222498141
-0.00154063501180124
-0.00152531359823333
-0.00151026561817815
-0.00149539130910127
-0.00148056999073917
-0.0014655745559922
-0.00145031912356326
-0.00143469809344463
-0.00141867571671022
-0.00140222206927188
-0.00138526959633068
-0.00136767780999753
-0.00133237057237449
-0.00130745265798062
-0.00128638483071595
-0.0012640048862034
-0.00124020471207872
-0.00121481498540399
-0.00118755360568849
-0.00115811478005798
-0.00112608782741507
-0.00109102195418751
-0.00105230039515837
-0.0010092566473091
-0.000960900784588036
-0.000906199489235089
-0.000843479056370111
-0.000771085053866712
-0.000686128751603799
-0.00058638058075016
-0.0004581690700603
-0.000319899161742975
-0.000152896744209793
4.65174484568796e-05
0.000291810354898884
0.000571259204972203
0.000899271846711036
0.00125405834283875
0.00116541344156197
-0.000687094683585923
-0.0018336395078866
-0.00283702823607667
-0.00363835195107078
-0.00421700860790788
-0.00450234225802948
-0.00458651753882421
-0.00392734705977243
-0.00512028495845522
-0.00474397913684507
-0.0148452727017718
-0.0260299564488389
-0.0576136285641397
0.0345093955923755
-0.0380373806630164
0.0480172547400728
-0.00253460422449625
-0.000428571436198727
-0.0042023693509602
-0.000262876224820817
-9.72387469155088e-05
-0.000124657087464445
-0.000200103048423785
-0.00030229438938438
-0.000426559071226747
-0.000539580265274333
-0.000597410329853237
-0.00056750905076728
-0.000469253706641312
-0.000280368534318933
0.00012185068311676
6.8827199301944e-05
-0.0001131015180866
-0.000440772413150471
-0.000808510683306779
-0.00121480962701721
-0.00158858044687463
-0.00191267129240783
-0.0021749870659058
-0.00238422897570589
-0.0025461347522442
-0.00266903591786783
-0.00275852968479756
-0.0028201638316977
-0.00285819371384321
-0.0028765207131362
-0.0028783451262429
-0.00286656017117131
-0.00284361526427165
-0.0028075464646857
-0.0028028288715402
-0.00275290612337044
-0.00270114104921017
-0.00264683625225316
-0.00259044558805659
-0.00253278968252261
-0.00247472338880637
-0.00241697990483525
-0.00236012968482819
-0.00230463952653584
-0.00225088967427406
-0.00219918941917184
-0.00214978448552338
-0.00210285821890718
-0.00205853011518476
-0.0020168573704723
-0.00197783814996671
-0.00194141128649791
-0.00190745641872753
-0.00187580228486268
-0.0018462521630802
-0.00181865191885087
-0.00179292738242262
-0.00176903615268842
-0.00174689270297665
-0.0017263434613494
-0.00170718561473193
-0.00168917502821086
-0.00167203707633586
-0.0016555122934953
-0.00163944144862916
-0.00162378755829081
-0.00160853380166269
-0.00159362923957424
-0.00157896595849703
-0.00156442000923184
-0.00154974807626531
-0.00153485308728411
-0.00151961866887658
-0.00150400081701019
-0.00148796396896715
-0.0014714364345436
-0.00144603723841512
-0.00141206847794955
-0.0013926185768626
-0.00137187895597751
-0.00134984414697611
-0.00132638387802552
-0.00130131419628477
-0.00127435163143151
-0.00124518222008165
-0.00121339286868737
-0.00117851925313798
-0.00113993799521923
-0.00109695846743254
-0.00104858116500985
-0.00099372970281901
-0.000930715809149367
-0.00085780322804134
-0.000772077366299511
-0.000671004020593491
-0.000541139102493169
-0.000399316206163302
-0.00022749977855872
-2.04858229313145e-05
0.000235805245903937
0.000534818476855914
0.000892342560721099
0.00129132355393268
0.00123445723038227
-0.000474713356177147
-0.00157372067668032
-0.00248201685879625
-0.00318556077759409
-0.00367855786393792
-0.00388727805930442
-0.00390827220762539
-0.00306831208089815
-0.00404738853645823
-0.00260909511375054
-0.0117363967052116
-0.0175919842979351
-0.0442878388857086
0.0359794227475102
-0.0466714979768542
0.0427313393450974
0.00175599665423175
0.0020867553733603
-0.00331197701823134
-0.000332231867334065
-0.000137600541438083
-0.000172412191878549
-0.000257157963679674
-0.000358349922944921
-0.000475567908442008
-0.000570880227258864
-0.00059613366344667
-0.000539937552035405
-0.000418119829020123
-0.000216401673614704
0.000101898812086492
-7.87417608245433e-06
-0.000256687523173101
-0.000643568574768587
-0.00104803159451608
-0.00148618068260861
-0.00187453660750607
-0.00220455976959842
-0.00246705908848252
-0.0026738286684625
-0.00283147503826979
-0.00294880306653058
-0.0030316589079734
-0.0030857632516766
-0.00311559305453143
-0.00312522037710499
-0.00311801011245089
-0.0030969866159481
-0.00306497065340377
-0.00301617264006631
-0.00299922487903087
-0.00294155245593373
-0.002881484238382
-0.00281890907431868
-0.0027545360187784
-0.00268929106011679
-0.00262406726383343
-0.00255960966885622
-0.0024964953922361
-0.00243519099244658
-0.00237607029500776
-0.00231943344776519
-0.00226551441216573
-0.00221448280158999
-0.00216644246756988
-0.00212143402071961
-0.00207943924347462
-0.00204038098133883
-0.00200412356506115
-0.00197047533481721
-0.00193921301468816
-0.00191014737473842
-0.00188317600936842
-0.00185823948517482
-0.00183523682120006
-0.00181399977760866
-0.001794312516299
-0.00177591818538443
-0.00175852662433357
-0.00174185497376932
-0.00172571975538964
-0.00171006972053402
-0.0016948790191794
-0.0016800908039201
-0.00166559190840936
-0.00165125776310993
-0.00163683119380332
-0.00162220406263251
-0.00160725079542921
-0.00159191975667545
-0.00157617041649299
-0.00155992698559149
-0.00151978063598282
-0.00149903206842763
-0.00147972657809489
-0.00145916143604238
-0.00143729788066462
-0.00141398928182291
-0.00138903977208591
-0.00136216264445025
-0.00133303534024955
-0.00130123898580343
-0.00126629411007022
-0.00122756554908442
-0.00118433646624182
-0.00113558924239372
-0.00108020263494325
-0.00101645998629858
-0.000942544967888375
-0.000855494586499505
-0.000752542747924653
-0.000620230743097323
-0.000474648860105914
-0.000297798547304733
-8.34939866794361e-05
0.000182839403875934
0.000498663948495393
0.000881255966202074
0.00131959779648061
0.00129240738609706
-0.000280955867311786
-0.00131313886345268
-0.00213966005782387
-0.00276269937568812
-0.00318186628406486
-0.00331703055093726
-0.00325566366434265
-0.00224789033789876
-0.00296238873614168
-0.000564255611133901
-0.00842321743389825
-0.00937298072491045
-0.0319585578981371
0.0313801645331349
-0.04567687554226
0.0316944424933152
0.00461941454860559
0.00754797465454719
-0.0017523615532557
-0.000339968002916898
-0.000177097438763838
-0.000218821866280972
-0.000304971081815004
-0.000398819370300753
-0.000508624467943703
-0.000588847516760192
-0.000592067963279972
-0.000517712015048988
-0.000374701694913557
-0.000167874199310463
6.04289082827002e-05
-0.000122569491846398
-0.000423404520614388
-0.000848561931636723
-0.00128244067417543
-0.0017431740708179
-0.00213845201847967
-0.00246947741870367
-0.00272965001025366
-0.00293282798192371
-0.00308598676573818
-0.00319804161265563
-0.00327491823264336
-0.00332239770391066
-0.0033451137185794
-0.00334726176762097
-0.00333233272195658
-0.00330344346713307
-0.00326420731504237
-0.00324135194497604
-0.00317789768851663
-0.00311362557759944
-0.00304666375912581
-0.00297728719440899
-0.00290637269960506
-0.00283492411259128
-0.00276386454557049
-0.00269394804222922
-0.00262575571724497
-0.0025597518101355
-0.00249630252972551
-0.00243569823667621
-0.00237816122145946
-0.00232384828846755
-0.00227284922380015
-0.00222519030761611
-0.00218083970222317
-0.00213970768351844
-0.0021016467716131
-0.00206644874280717
-0.00203386642326561