/*--------------------------------*- C++ -*----------------------------------*\
  =========                 |
  \\      /  F ield         | OpenFOAM: The Open Source CFD Toolbox
   \\    /   O peration     | Website:  https://openfoam.org
    \\  /    A nd           | Version:  7
     \\/     M anipulation  |
\*---------------------------------------------------------------------------*/
FoamFile
{
    version     2.0;
    format      ascii;
    class       volScalarField;
    location    "20000";
    object      k_diff;
}
// * * * * * * * * * * * * * * * * * * * * * * * * * * * * * * * * * * * * * //

dimensions      [0 2 -3 0 0 0 0];

internalField   nonuniform List<scalar> 
15600
(
0.00246050956690266
0.000568006273823851
0.000141076346763298
0.000255850027143573
9.02921730664668e-06
6.69402166134484e-06
9.89871615484975e-06
1.30647552275277e-05
1.86078465818602e-05
2.62976874083385e-05
3.57605615063991e-05
4.59661196938864e-05
5.26295013426436e-05
4.91492736072762e-05
3.20606934183592e-05
1.265960863452e-05
1.2228405039241e-05
2.38807439816097e-05
4.23715485342235e-05
7.1045546212423e-05
0.000111179151006661
0.000162017040262668
0.000221797664970632
0.000288605921820736
0.00036081583727784
0.000437188635630438
0.000516689835993708
0.000598435043250138
0.0006815944351271
0.000765407827870826
0.000849155984927431
0.000932175400704062
0.00101384671612407
0.00109361430959009
0.00117098293833214
0.00124553893097914
0.00131695776158146
0.00138503446891613
0.00144978338857418
0.00151163579223977
0.00156939945665204
0.00162217373810195
0.00166993685287627
0.00171267752429555
0.0017504343989028
0.00178328528263951
0.00181134586916193
0.00183476562429582
0.00185372374014713
0.00186842501703069
0.00187909406499317
0.0018859700295965
0.00188929651837846
0.00188931934904373
0.00188627110616061
0.00188037793001565
0.00187185068159421
0.00186090408752094
0.00184777091206221
0.00183268599663295
0.00181587991392181
0.00179756026508221
0.00177790209972063
0.00175704562030201
0.00173509875540637
0.00171215189509927
0.00168831245788168
0.00166369778849558
0.00163843529542602
0.00161262740218544
0.0015863527847236
0.00155964843212003
0.00153253649912235
0.00150505472006199
0.00147723843941587
0.00144912728151371
0.00142074892125034
0.0013921065903317
0.00136317587098209
0.00133392045774688
0.00130432088254065
0.00127432776507071
0.00124391407151153
0.00121293304244366
0.00118139688726305
0.00114905422501469
0.00111586825414835
0.00108160803318321
0.00104609240309774
0.00100912549624674
0.00097038933674754
0.000929653551733913
0.000886440135976393
0.000840499372670589
0.000791104043676519
0.000739375256203045
0.000685734303472574
0.000628420350231592
0.000565996909823113
0.000499298989060703
0.000427191626969623
0.000353558746602536
0.000277625389202954
0.000201601489853413
0.000201001531730253
0.000383054836308577
0.000651926716900726
0.00104318548472245
0.00142498020252508
0.00171666550865799
0.00191733522398029
0.00200130690202686
0.00214454331537672
0.00231520123351191
0.00282580629900538
0.00368980195053267
0.00629747313802753
0.013130423804354
0.0083617811319031
0.00334334839218912
0.0134058848154913
0.00314726986097677
0.00078253226193233
0.00140529662863463
6.14600861710325e-05
3.67009072327208e-05
5.38858240559395e-05
7.09818067786396e-05
0.00010092169811672
0.000142612851303751
0.000193947568483408
0.000248786647340011
0.000283950521463622
0.000265278799703775
0.000174693054097748
6.93757135742774e-05
6.76131500720797e-05
0.000132223996053908
0.000233722375345064
0.000390678135991105
0.000609383594311816
0.000885092306432147
0.0012078245329897
0.00156696636707325
0.0019536824522794
0.00236132832999727
0.00278444220818826
0.00321841954590259
0.00365899594441651
0.00410231289979816
0.00454475469036795
0.00498301464833116
0.00541402346006033
0.00583504240571464
0.00624363623866508
0.00663777632144767
0.00701587229380191
0.00737690761730213
0.00772095004644172
0.008047241767131
0.00834533083634855
0.00861829870232311
0.00886585510863751
0.00908799927239664
0.00928495242330921
0.00945711433684443
0.00960505806724886
0.00972951283093331
0.00983134676600139
0.00991154852150594
0.00997120119821068
0.0100114559638541
0.0100334886125774
0.0100384822498987
0.0100275641496677
0.0100018294280723
0.00996231274007867
0.00991008048265502
0.00984628758625719
0.00977210462050836
0.00968867995350286
0.00959705042378713
0.00949809515537312
0.00939252397031678
0.00928089098240975
0.00916367423463352
0.00904143295123694
0.0089147815179193
0.00878437693158467
0.00865075734580564
0.00851433593486265
0.00837532569333015
0.00823386202218487
0.00809015843375981
0.00794441314430165
0.0077968445979686
0.00764761202831965
0.00749675135610078
0.00734415966219357
0.00718966148591143
0.00703318046280847
0.00687446611451522
0.00671340573382526
0.00654922008796037
0.00638202037170638
0.00621047010249447
0.00603442140822558
0.00585277085462205
0.00566438574826164
0.00546825888099532
0.00526282127693295
0.00504674755628297
0.00481765610622716
0.004573956173728
0.00431201759012268
0.00403437899703235
0.00374362999526042
0.00343288280414572
0.00309447611735485
0.00273244112993538
0.00234116805572962
0.00194077683089862
0.00152731403311139
0.00110985452032051
0.00110436480194763
0.00209842662988565
0.00354249752757768
0.00560540277262922
0.00763589368912366
0.0092269508923958
0.0103516204530136
0.0108803889118196
0.0117093645445425
0.0126933662346853
0.0155113740292829
0.020265020098629
0.0343839593849381
0.0693896592335574
0.0447436797892205
0.01812838511216
0.0322109670662823
0.00776946994995353
0.00190715633774263
0.00337557829495499
0.000178031463972406
8.9359115844564e-05
0.000129813737719516
0.000170490578079318
0.000241553123912475
0.000340767007531717
0.000462085669756191
0.000586323374108478
0.00065790763210514
0.000605666957941306
0.000403845813832687
0.000164976431678292
0.000166951852600042
0.00032691631688182
0.000571184464571914
0.000942525920558541
0.00144626129345131
0.00206277758178683
0.00276438019532128
0.00352576385102089
0.00432844832816533
0.00516007695408538
0.00601154794239914
0.00687588936555943
0.00774698283351875
0.00861955632328259
0.00948873454785867
0.0103500935193049
0.0111994518543947
0.0120330119164535
0.0128472680971473
0.0136391807319559
0.0144062118998263
0.0151463984286229
0.0158585568934651
0.0165009254846125
0.017107192375613
0.0176721710431542
0.0181950308943254
0.0186752258772079
0.019112499353682
0.0195068517999623
0.0198585547810677
0.0201681444204313
0.0204364118875044
0.0206643874280149
0.020853309297793
0.0210045847339456
0.021119729712337
0.0212003303968702
0.0212479538788444
0.0212641693604218
0.021250520127975
0.0212086815908945
0.0211405407870312
0.0210480799926833
0.0209332941374653
0.0207980300882341
0.0206438985249667
0.020472243900824
0.0202841596550763
0.0200806375697288
0.0198628253288311
0.0196320081775567
0.019389558061092
0.0191366623616324
0.0188742765253963
0.0186030161324893
0.0183233315879223
0.0180358308825002
0.0177410804837909
0.0174396889725977
0.0171321646293427
0.0168187891250088
0.01649958039277
0.0161743628439695
0.0158432147795801
0.0155057818835047
0.0151620795993273
0.0148105834834552
0.0144521834308166
0.0140849880384286
0.0137063917368159
0.0133155684467585
0.0129105696866359
0.0124892442539241
0.0120486571166061
0.0115857585869207
0.0110960673558354
0.0105753336069975
0.0100165570615222
0.00941038748428967
0.00876257690093725
0.00806751677918121
0.0073089641179594
0.00649046745628169
0.00560050616260821
0.00467786951575704
0.00372192080728784
0.00271413067786155
0.00264877923729377
0.00487353285287982
0.00806553100010695
0.0125188413974155
0.0170636839311434
0.0208575459269323
0.0237195743229698
0.0253567330364982
0.0275909006674368
0.0301620895553969
0.0369238588444213
0.0480516652570424
0.0798178820392628
0.150746871782983
0.0997130815209169
0.0427222316403333
0.0551306946918282
0.0139047702579615
0.00328884778723515
0.00570746874701113
0.000360331681225258
0.000156172850852653
0.000223668098778782
0.000292466749413187
0.000411701374521878
0.00057761893260437
0.000776181667553966
0.000961374341900641
0.00104128151736423
0.000925367656358054
0.000627354078910764
0.000276028483830094
0.000305443289628848
0.000583011589362543
0.000984433768142694
0.00154695335405115
0.00224614512963909
0.00303900644917514
0.0038923542923222
0.0047866358447437
0.00571264689327349
0.00666660532337063
0.00764563583070215
0.00864693230423882
0.00966663564299709
0.0107004086375999
0.0117431957492104
0.012789642253978
0.0138340739735125
0.0148708690934732
0.0158944764797034
0.0168996807965831
0.0178817381930269
0.0188362782788552
0.0196914701711786
0.0205323073064258
0.0213293784727415
0.0220811744178062
0.022785761748696
0.0234417128130013
0.0240480469847406
0.0246041886678521
0.0251099617725308
0.0255655646507586
0.0259715443975718
0.0263287648303667
0.0266383617270468
0.0269016909942629
0.0271202643189754
0.0272956985037605
0.0274296299326185
0.0275237140103342
0.0275795949626873
0.0275990510793185
0.0275840680865165
0.0275367445615912
0.0274592049566106
0.0273534444398433
0.0272212436251135
0.0270641350877076
0.0268834042516657
0.0266802264053492
0.0264559008559023
0.026211881597708
0.0259497158450089
0.0256708064569139
0.0253763304579125
0.0250671730180521
0.0247439997252381
0.0244076542634012
0.024058912445003
0.023698605001898
0.0233274940798004
0.0229461466508041
0.0225548765137478
0.0221537191579775
0.021743087973205
0.0213228104212581
0.0208945163061049
0.0204593063929165
0.0200095905828236
0.0195479366870572
0.0190734772165583
0.0185846292529339
0.0180796510521551
0.0175563019827912
0.0170118321400766
0.0164427021637486
0.0158445131954845
0.0152116076124624
0.0145366508496415
0.0137972612590664
0.0129878138399099
0.0121119682384988
0.0111488873180536
0.0100864347361242
0.00890642673287699
0.00762522770814665
0.00626307792342465
0.00472391494694295
0.00444381845670347
0.00741407562759772
0.0118675273800526
0.0179149603740313
0.0245765465268237
0.0306587700655524
0.0357201156800858
0.0392919017465998
0.043682201197955
0.0485240748010344
0.0597787233905278
0.0771820534375905
0.12319999728353
0.208428785184068
0.144342407204669
0.0667051267820372
0.0737435323695764
0.0211729915794864
0.00477015254607977
0.00803740904230885
0.000609247959480607
0.000233126370306888
0.000327816624007356
0.000425575581458382
0.000592218598715472
0.000820274781487488
0.00108100318538699
0.00128324432881676
0.00131269178986846
0.00110136230333135
0.000762350271726147
0.000395884683561263
0.000487562705829504
0.000854684251933924
0.00132286056677227
0.00188871000204978
0.00254101300331635
0.003283260305603
0.00412029067300034
0.00504842010960349
0.00605618101309071
0.00712997546173666
0.00825446678777929
0.0094150572146924
0.0105974960884604
0.0117890219301224
0.0129779773768769
0.014154172587204
0.0153086296108883
0.0164337351904514
0.0175229992930164
0.0185709827852395
0.0195734061180425
0.0204653098482994
0.0213342755441953
0.0221532112377435
0.022914886179041
0.0236190972822974
0.0242658311497656
0.024855537757987
0.0253890226856593
0.025867388344059
0.0262920028943471
0.0266644636717158
0.0269865647496332
0.0272602629826319
0.0274876379953159
0.0276708498273962
0.027812094550542
0.0279135672113831
0.0279774081437145
0.0280056909355226
0.0280003971123473
0.027963510261391
0.0278970806822658
0.0278031854107322
0.0276838649228191
0.0275410172416287
0.0273763420273868
0.0271913191021835
0.0269871987138275
0.0267650841356074
0.0265260892908549
0.0262714171500399
0.0260023154150848
0.0257199326953199
0.0254252311570156
0.0251189878237889
0.0248017287791729
0.0244741131968656
0.0241367007115837
0.0237900876777362
0.0234348413699605
0.0230714163019375
0.0227000848747506
0.0223208278987859
0.0219340096739176
0.0215464293929639
0.0211490581476469
0.0207396732227578
0.0203220071897051
0.0198948780025413
0.0194575744268036
0.0190089809127468
0.018547879134338
0.018072601998832
0.0175812651709957
0.017071206043092
0.0165394403780675
0.0159815814665847
0.0153925684332899
0.0147649595923223
0.0140702751177737
0.013320758610423
0.0124984786098447
0.0115797251829622
0.0105441579117696
0.0093683168624688
0.00804874325010679
0.00652593866830261
0.00599361015748323
0.00840573718794959
0.0128464440417489
0.0189382197288934
0.0263575334744612
0.033835040277366
0.0407921111495684
0.0465873477179252
0.0534157624816559
0.0607230297085809
0.0758612190832095
0.0970483271515942
0.146929504039829
0.21861807665345
0.172032769677863
0.0761161868286662
0.070675871609369
0.0286549572251299
0.00623464834174916
0.0100004977789873
0.000922086476328493
0.000317578982959169
0.000436295963551288
0.000559599084200363
0.000763826926518746
0.00103248098049834
0.00131484431562258
0.00146350633557012
0.00138466329470321
0.00107713492527251
0.000753500737288776
0.000532519581182348
0.00067840420894245
0.00102890729430405
0.00141439612015996
0.00189792634986163
0.00255718839355649
0.00341768416109777
0.00443947862256397
0.00556773793021231
0.00675550956412712
0.007971767292904
0.00919443712761493
0.0104086467638548
0.0116030102753029
0.0127692135487603
0.0139006169051064
0.0149921189653623
0.0160396171703555
0.0170399763147014
0.0179907307168789
0.0188898278626419
0.0197136829051118
0.0204603456157824
0.0211876154808086
0.0218561013126003
0.0224691500102685
0.0230276572591659
0.0235326664551333
0.0239854826504484
0.0243875929409003
0.0247406356778397
0.0250463799003152
0.0253067066251681
0.0255235912020573
0.0256990840475419
0.0258352865713146
0.0259343241434166
0.0259983218401925
0.0260293790025807
0.0260295388479531
0.0260007642138393
0.0259449105805021
0.025863775954332
0.0257591631760911
0.0256328823249233
0.0254867052678403
0.02532229114924
0.0251411446754659
0.0249445970819285
0.0247337839702616
0.024509680777839
0.0242732078855955
0.0240253382054345
0.0237670721019954
0.0234993505829123
0.0232229664427649
0.0229386060567752
0.0226466895595393
0.0223477372903344
0.0220421515748001
0.0217303564218092
0.021412768297044
0.0210897445055388
0.0207615015875965
0.020427971377395
0.0200990305445669
0.0197612393364198
0.0194137429285665
0.019060627834285
0.0187015611975171
0.0183357499431816
0.0179625766724839
0.017581158400308
0.0171905216338852
0.0167893665852674
0.0163762453123852
0.0159491404194719
0.0155058308360086
0.0150430566426041
0.0145571222908582
0.0140537939250363
0.0134937890279806
0.0128963198051447
0.0122458369877945
0.0115211112713005
0.0107043615511693
0.00976282564527126
0.00868676837091278
0.00746009593837525
0.00683538428317453
0.00807350140254263
0.0116339521604813
0.0170293938145139
0.0239621664412927
0.0315636350869873
0.0393667188563189
0.0466988102516862
0.0552947048626308
0.0641813477709447
0.081321570657115
0.102837225044824
0.148737617723181
0.206042121406103
0.209517843101743
0.069236696250886
0.0442996251300368
0.0348991688211289
0.00765116803040121
0.0112214516023948
0.00128813622309019
0.000406450039159971
0.000542105065186807
0.000681968642901653
0.000903879916393502
0.00117572934530704
0.00141741072544973
0.0014611514279069
0.00126485945545775
0.000908719260198238
0.000608216040549809
0.000670100334317879
0.000795242310387124
0.00103467745665251
0.00136065021461229
0.00192763089140617
0.00278305664001406
0.00384590164941026
0.00499875956909188
0.00617371779803172
0.00733815119817826
0.00848069048001598
0.00959529131950369
0.0106790098603103
0.0117289559184011
0.012742810187105
0.0137182257297092
0.0146531763510508
0.0155458089065508
0.0163946047957648
0.0171983199863721
0.0179591002135096
0.0186117360770579
0.0192743226801829
0.0198817127242959
0.0204385956307393
0.020946943823911
0.0214075825675106
0.0218215135099655
0.0221899520967897
0.0225142625419594
0.0227959339788555
0.0230365590402109
0.0232378202072422
0.0234014760337615
0.0235293467092922
0.0236232957530552
0.0236852085195234
0.0237169766605919
0.0237204764878068
0.0236975499282446
0.0236499700102493
0.0235794091101454
0.0234874579038226
0.0233756864919718
0.0232456744394169
0.0230989768024334
0.0229370661727069
0.022761297994043
0.0225728916597123
0.0223729002879071
0.022162212940952
0.0219416263809498
0.0217119696877962
0.0214740955578716
0.0212288253683914
0.020976860679636
0.020718852663473
0.0204551799238156
0.0201863028440498
0.0199125542945563
0.0196342803301048
0.019351832848975
0.0190655408329086
0.0187756181126721
0.0184900330826619
0.018203176852414
0.0179041301763566
0.0176017340079611
0.0172953670009988
0.0169847677125752
0.0166693718383006
0.016348685201342
0.0160220362397606
0.0156886645415569
0.015347588452168
0.0149976940949476
0.0146374799000979
0.0142652574493143
0.0138786175485081
0.0134747619394769
0.0130633727256348
0.0126051702155704
0.0121216664493603
0.0115985942105964
0.0110192505497014
0.0103670699638327
0.00961081476705443
0.00873108902887161
0.00776958972018223
0.00716788424476149
0.00728994687393268
0.0102012501040464
0.0146964189333806
0.020746114950229
0.0277692693355467
0.0354909966249913
0.0434436350341803
0.0530469282412841
0.0629034725777779
0.0807909462740684
0.101144115301272
0.144131825909731
0.201595564624874
0.265384237343445
0.0599866843368804
0.017538054261049
0.0383401911082416
0.00917487608375997
0.0114198891589063
0.00168572881213272
0.000495632308315061
0.000636622964738862
0.000778529088334866
0.00099268150911087
0.00123007222798505
0.00138981406621183
0.00132563580656854
0.0010559878732714
0.000703287983285002
0.000462053571177459
0.000708634138321622
0.000801188357486868
0.000966766634157277
0.00137439557559621
0.00213617345297652
0.00314946322959122
0.00425112348385643
0.00533984237769854
0.00639481353785806
0.00741505892487757
0.00840614462194229
0.00936998208894904
0.0103073024592487
0.0112168822468706
0.012097039872667
0.0129456545090081
0.0137606890474752
0.0145402020995354
0.0152825171330003
0.015985926936116
0.0166390280159561
0.0172305784172553
0.0178097292615962
0.0183420633037478
0.0188302471358042
0.0192754497825545
0.0196782738869494
0.0200395389747185
0.0203602715923942
0.0206416467894469
0.0208849632188049
0.0210916183084981
0.0212630954628785
0.0214009510849053
0.0215068021773806
0.0215823105125848
0.0216291637456745
0.0216490645454859
0.0216437110738877
0.0216147855398982
0.0215639134668985
0.0214926283453373
0.0214023674512508
0.0212945304696023
0.0211705295661978
0.0210317643771963
0.0208795740818174
0.0207152080802336
0.0205398077362026
0.0203543724264552
0.0201597371626307
0.0199566188933104
0.0197457513055534
0.0195278898485709
0.0193037776182732
0.0190740580036732
0.0188393679334271
0.0186000699709555
0.0183565961246691
0.0181092444256288
0.0178583197065573
0.0176041409882187
0.0173470310437682
0.0170901027010615
0.016844948353376
0.0165813646407952
0.0163157362369565
0.0160476612402365
0.0157767262710804
0.0155027453821045
0.0152253248329057
0.0149440936770722
0.0146585682926964
0.0143681780344119
0.0140722182976132
0.0137698565014565
0.013460025530553
0.0131414644119006
0.0128124641363275
0.0124709162592336
0.0121119810455199
0.0117449748239208
0.011346271336714
0.010917634538487
0.010446609750854
0.00991785574513516
0.00930387216239094
0.00857621695190043
0.00781649318559738
0.00712377336814637
0.00675680950522775
0.00900771074328391
0.0126954712045674
0.0178740226614342
0.024141106371735
0.0313431595085975
0.0392380363269013
0.0491416407781793
0.059730387949167
0.0784176201401263
0.0987622983370371
0.142390939216919
0.199165499012595
0.296098672133036
0.0604535545852105
0.0111417610725882
0.0375815928716867
0.0112705195897824
0.0105896198024782
0.00208244709224104
0.000580111363072245
0.000710725036868764
0.000838383006586608
0.00102580056174231
0.00121164726182329
0.0012858569867218
0.00114665038142771
0.000852319265585221
0.000531627770978223
0.000383692971649676
0.000638288459863008
0.000742196193345139
0.000940991691097721
0.00150797828188922
0.00241433180063276
0.00343132121374532
0.00442700136083392
0.00536676115491713
0.00626908751344223
0.00714535522459935
0.00800371458890018
0.0088455460024695
0.0096703645939599
0.0104758408290263
0.0112593118644214
0.012017927828378
0.0127490630400574
0.013450334496324
0.0141197307914238
0.0147560355382615
0.0153178281465253
0.015886136457049
0.0164098305071721
0.0168923680113645
0.0173353094878811
0.0177393456149015
0.0181049064750489
0.0184326649806818
0.0187234993368847
0.018978438456637
0.0191986349388585
0.0193853376131286
0.0195398787907495
0.0196636616749063
0.0197581495231786
0.0198248512572596
0.0198653043098663
0.0198810668207141
0.0198736999540643
0.0198447628404942
0.0197957687732436
0.019728147854361
0.0196432239073485
0.0195422683727633
0.0194265660979043
0.0192973983253221
0.0191560014627976
0.0190035428921043
0.0188411041326912
0.0186696463947472
0.0184899690391148
0.0183027335081314
0.018108603892351
0.0179082636811094
0.0177023970444516
0.017491602782494
0.0172765106265806
0.0170574773936921
0.0168349198387226
0.0166091153740413
0.0163803424220466
0.01614889852531
0.0159151050644448
0.015696164656412
0.0154644016877741
0.0152264357280184
0.0149869421645046
0.014745660152617
0.0145023147604721
0.0142567882780521
0.014008819868795
0.0137581473591355
0.0135044451620746
0.0132473024288757
0.0129862450592535
0.0127206699970383
0.0124498656115642
0.0121729079589714
0.0118886542987625
0.0115955153932949
0.0112901758049197
0.0109806034361955
0.0106468722828039
0.0102906592243298
0.00990280615982143
0.00946927502759436
0.00896705332248878
0.00836137628250023
0.00776401826229068
0.00701325861295546
0.00636040411765302
0.00804624243257573
0.011058541515776
0.0154714409413248
0.0210096046339451
0.0275753981188757
0.0350673992455805
0.044693122548207
0.0554395076344535
0.0744177147205757
0.0952367488288369
0.139039250324314
0.186075205187052
0.277102911607347
0.0740426948144363
0.0113077682035428
0.0323035687632092
0.0147492280057582
0.00910598953201691
0.00244180401643211
0.00065496949103399
0.000757801005060845
0.0008606581715674
0.00101890186424492
0.0011565838400075
0.00116004840876945
0.000978791346786254
0.000685003966745213
0.000403250629864791
0.000327778917734697
0.000550644882017036
0.000687143800826168
0.00099317718739007
0.00170294042291728
0.00263733091356742
0.0035467472359654
0.00439115808056854
0.00518425241576967
0.00595713307657271
0.00671971628178468
0.00747693592999162
0.00822755361301234
0.00896912456667446
0.00969802652816852
0.0104106228923324
0.0111034096719026
0.0117732651238755
0.012417450496435
0.0130336831908959
0.0136242768059192
0.0141444993968715
0.0146674424461952
0.0151510755120757
0.0155975968250251
0.0160079166182699
0.0163824278592967
0.0167214402919303
0.0170255204634689
0.017295438750036
0.0175321170723711
0.0177365999464128
0.0179100253136947
0.0180536115088984
0.0181686449639471
0.0182564708360475
0.0183184795006486
0.0183560906906202
0.0183707478828101
0.018363902355653
0.0183370140339279
0.0182915069077646
0.0182287310730575
0.0181499234450125
0.0180562544284842
0.0179489065210539
0.0178290650335239
0.0176978814651719
0.0175564546445884
0.0174058159862197
0.0172468970574709
0.0170804727676241
0.0169071640319927
0.0167275807883928
0.0165423489176129
0.0163521039122213
0.0161574060087419
0.015958879926681
0.0157568818176853
0.0155518197442406
0.0153439575238847
0.0151335542819732
0.014920891048721
0.0147145276008409
0.0145145641123445
0.0142981920800981
0.0140810643838808
0.0138628259697538
0.0136433104878339
0.0134223436696072
0.013199867449867
0.0129757277432984
0.0127497562459524
0.0125217596280439
0.0122914611218753
0.0120585776612638
0.0118226940508843
0.0115833892253412
0.0113400064396843
0.0110918603815087
0.0108377549527131
0.0105754628005435
0.0103122328385622
0.0100302864658993
0.00973170283923653
0.00940989141763847
0.00905201139280817
0.00863967609034175
0.00813396083803318
0.00767338609532407
0.00690570298897416
0.00604254351580292
0.0072652194637968
0.00970500924850942
0.0134567934378703
0.0183434162360683
0.0242877840708676
0.0312630232104578
0.0403096795305612
0.0507083210542591
0.0690680383102882
0.0894857493386338
0.130721499108257
0.16429002301134
0.230811416853746
0.0972333839216219
0.0147820468270968
0.024362390907979
0.0205052639371467
0.0075583351166278
0.00273796577592114
0.000717494182625051
0.000777607681403988
0.000856626169744596
0.000994906477014883
0.00109028577942785
0.00103884571760273
0.000836464172840519
0.000552484402556316
0.000308817669141562
0.000283768166531723
0.000480936373720636
0.000672531913401786
0.00110593977010706
0.00188972712095111
0.00275399055887211
0.00351764630733392
0.00422107307482874
0.00489463080331182
0.0055669375927015
0.00624260979959465
0.00692272200488565
0.00760373355982928
0.00828161553099618
0.00895178398071796
0.00960988224628996
0.01025193888327
0.0108744784078625
0.0114745076940613
0.0120492969402465
0.0126049638393538
0.0130916649174043
0.0135797452147145
0.0140323735254962
0.0144509458162054
0.0148359655010755
0.0151876321636328
0.0155061721880997
0.0157920751348279
0.0160460329698299
0.0162688887013577
0.0164616058188217
0.0166252381364705
0.0167609161670094
0.0168698350072994
0.0169532464337772
0.0170124458726193
0.0170487575186551
0.017063530350158
0.0170581237925646
0.0170339142418644
0.016992251428813
0.0169344211333825
0.0168615918162248
0.0167748514630407
0.0166752967633232
0.0165640316843167
0.0164421338973555
0.0163106416062579
0.0161705414302465
0.0160227400884619
0.0158679954773175
0.0157068982426959
0.0155400144705058
0.0153679214945443
0.0151912121076168
0.0150104106295782
0.0148261369535652
0.01463874963273
0.0144486518636208
0.0142560979388354
0.0140613316258628
0.013864619811431
0.0136896374085415
0.0134936634828647
0.0132946053427011
0.0130950197034992
0.0128946723759225
0.0126934671371688
0.0124913070133947
0.0122881860284918
0.0120840381962196
0.0118787766222854
0.0116723199024787
0.0114645052191067
0.0112552094880557
0.0110441736427643
0.0108312166053643
0.0106158967486451
0.0103979014840015
0.0101763362162845
0.00994979102501281
0.00972526349356056
0.00948595988815565
0.0092346797301484
0.00896684956734014
0.00867064144251997
0.00833218092668497
0.007909805884733
0.00756754320518949
0.00680734608050019
0.00578008474376049
0.00661657827154851
0.00856061409540644
0.0117360540491392
0.0160473137647714
0.0214196992675028
0.0278646074062892
0.0362165101130058
0.0460025136113822
0.0630693560626123
0.0821534894562099
0.118588727948865
0.139543804945412
0.179250466645865
0.121917578321985
0.0276910010214297
0.0164662234652513
0.0288078229103858
0.00638811376743432
0.00297153057410136
0.000769952756266666
0.000777862010216661
0.000842695414243997
0.00096731910806961
0.00102115883954697
0.000929554396372794
0.000718806764440917
0.000448037722401613
0.000240028352505427
0.000249553292895851
0.000442867134320179
0.000704709247046262
0.00124621358188309
0.00202492902248603
0.00276758936037019
0.00339154338384984
0.00397929366364384
0.00455949388842385
0.00515358734777902
0.00576131820361645
0.00638065286589187
0.007006442085856
0.00763351941225975
0.00825663856890772
0.00887092644224161
0.00947207986961707
0.0100563696569634
0.0106206278675444
0.0111612864381617
0.0116520128034271
0.0121475174679387
0.0126073692712218
0.0130347123618069
0.0134304085120313
0.0137946967170726
0.0141276478016298
0.0144294308080294
0.0147004795085622
0.0149414288075815
0.0151530631342105
0.0153362845125204
0.0154920820466221
0.0156215173782274
0.0157257125958445
0.0158058438710786
0.01586312857451
0.0158988111201598
0.0159141602201923
0.0159104559394997
0.0158890017810424
0.0158510833243352
0.0157979328822596
0.0157306639890067
0.0156502957296668
0.0155578505836582
0.0154543612338903
0.0153408387339497
0.0152182654363169
0.0150875859004784
0.0149496845766977
0.0148053076098618
0.0146550229847039
0.0144993604000567
0.0143388547949549
0.0141740599750828
0.0140054652231926
0.0138336847573429
0.0136590817481389
0.0134820569840817
0.0133028578849371
0.013121715691646
0.0129509937344836
0.0127828215255171
0.0125990287312139
0.0124149399831888
0.01223053679164
0.0120456744970419
0.0118603117406431
0.0116744131965812
0.0114880186952709
0.0113011366406466
0.0111137515367583
0.010925878045709
0.0107374516689525
0.0105484850734022
0.0103588510688628
0.0101685692646734
0.00997737393259935
0.00978525940485071
0.00959156487442789
0.00939551580586659
0.00920418409399931
0.00900090472219897
0.00878942535550814
0.00856676551001282
0.00832190723869377
0.00804528600223415
0.00769340099009173
0.00745506883414509
0.00671686713915103
0.00555654227267546
0.00606526555095451
0.00757152900766535
0.0102366840206035
0.0140352463108383
0.0188845825784421
0.0248161168136736
0.0324388249523361
0.0415042682072959
0.056888558905697
0.0741201331282508
0.104498780000922
0.115072632356123
0.141201499541333
0.139148460516063
0.0456791860570231
0.0135624531533519
0.0338122218433237
0.00573274346398739
0.00316967857559836
0.000821314946701234
0.00077092685027155
0.000830154711679184
0.000937942403099629
0.000951402204030676
0.000833573057610525
0.000622499105311524
0.000366675444908286
0.000192188905763332
0.00022859972567896
0.000439012403586477
0.000774382576872071
0.00138296484262034
0.00209331083537564
0.00270235878183842
0.00320843399398802
0.00370435330070211
0.00421107450378669
0.00474267988932936
0.00529546944284801
0.00586513476344218
0.00644548217180106
0.00703053431299336
0.00761458264012717
0.00819237076386529
0.0087593477559356
0.00931159361582872
0.00984586538938135
0.0103591803658522
0.0108273330404173
0.0112957728367304
0.0117318366236507
0.012137708990471
0.0125138954736556
0.0128604603326321
0.0131773887511625
0.0134648116372076
0.013723122955472
0.0139529166865761
0.0141549340276355
0.0143300302325578
0.0144791443514045
0.0146032834465443
0.014703510320495
0.0147809388437814
0.0148367209284827
0.0148720328784071
0.0148880736072666
0.0148860527766675
0.0148672083682388
0.0148327686332444
0.0147839200294835
0.0147217315298257
0.0146471636282679
0.0145611730830447
0.0144647285511417
0.0143587792898473
0.0142442546137062
0.0141220580940456
0.013993053015056
0.0138579776496028
0.0137173833318516
0.0135717690921285
0.0134216319005863
0.0132674889279525
0.0131097942552704