/*--------------------------------*- C++ -*----------------------------------*\
  =========                 |
  \\      /  F ield         | OpenFOAM: The Open Source CFD Toolbox
   \\    /   O peration     | Website:  https://openfoam.org
    \\  /    A nd           | Version:  7
     \\/     M anipulation  |
\*---------------------------------------------------------------------------*/
FoamFile
{
    version     2.0;
    format      ascii;
    class       volScalarField;
    location    "20000";
    object      nut;
}
// * * * * * * * * * * * * * * * * * * * * * * * * * * * * * * * * * * * * * //

dimensions      [0 2 -1 0 0 0 0];

internalField   nonuniform List<scalar> 
15600
(
5.09726362782279e-11
8.88924240907384e-12
1.13295750329919e-12
2.53863981704181e-12
1.58763605132632e-13
2.31155326442932e-13
6.58704525045135e-13
1.51453507290728e-12
3.45253552890021e-12
7.33222265480689e-12
1.49698703277947e-11
2.99468098539233e-11
5.63545963212506e-11
8.9514555359317e-11
9.28187443387673e-11
4.22719774239975e-11
3.73850931839201e-11
7.29985982465847e-11
1.29538872661122e-10
2.17248328800528e-10
3.40020988739043e-10
4.95557973143462e-10
6.78476067480189e-10
8.82922319713491e-10
1.10392686221832e-09
1.33770159231608e-09
1.58108099825964e-09
1.83135627875936e-09
2.08598398801004e-09
2.34263222737664e-09
2.59909347377858e-09
2.85332999176354e-09
3.10343901703183e-09
3.34771289009681e-09
3.58462934490967e-09
3.81291655331231e-09
4.03157672944485e-09
4.23998015333578e-09
4.43817156986018e-09
4.62745382048574e-09
4.80514458205853e-09
4.96816208358532e-09
5.11577642562131e-09
5.24793450183854e-09
5.36474101444209e-09
5.46642308206877e-09
5.5533269932628e-09
5.62590531302219e-09
5.68470435468941e-09
5.7303515256451e-09
5.76353714961901e-09
5.78499868396492e-09
5.79548796996872e-09
5.79576630840576e-09
5.78655289790435e-09
5.76854894534843e-09
5.74240607251318e-09
5.70878651509823e-09
5.66841065299417e-09
5.62200560648437e-09
5.57028709155137e-09
5.51390004252597e-09
5.45338823768314e-09
5.38918693495906e-09
5.32163045522267e-09
5.25099608969238e-09
5.17761558624182e-09
5.10185077631665e-09
5.02409746017784e-09
4.94467261015756e-09
4.86382114429643e-09
4.78165633516446e-09
4.69824537188708e-09
4.6137042324786e-09
4.52814188855416e-09
4.44168112366043e-09
4.35440759009783e-09
4.26633111583985e-09
4.17737503752824e-09
4.08742746706807e-09
3.99642677443418e-09
3.90422178035635e-09
3.81072736063868e-09
3.71549440221193e-09
3.61855619148563e-09
3.51914295707233e-09
3.41713594395379e-09
3.31183021663832e-09
3.20266088141224e-09
3.08903635539711e-09
2.96996146137843e-09
2.84475597385722e-09
2.71192046364245e-09
2.5707417723967e-09
2.41892182298085e-09
2.26039209070987e-09
2.09640262848073e-09
1.92118173947369e-09
1.73033377686776e-09
1.52640553679946e-09
1.30594209803533e-09
1.08081364915761e-09
8.48652073455693e-10
6.16343041194554e-10
6.70810972775844e-10
1.10952582530314e-09
1.18972867201793e-09
1.1238430314121e-09
9.35682478132673e-10
7.23903624799538e-10
5.37663706772268e-10
3.72791949748177e-10
2.4950090702401e-10
1.54606213820259e-10
9.80086364023148e-11
6.51697785758047e-11
6.27865288545036e-11
1.06169015982595e-10
1.30565602039241e-10
6.91583423851414e-11
9.76034144038026e-09
1.73545927199937e-09
2.22546613463813e-10
4.93008975387558e-10
3.78620160020159e-11
4.42476165572089e-11
1.25166721405853e-10
2.87523115761036e-10
6.55154273505661e-10
1.39184192684493e-09
2.84244778464169e-09
5.69034645113593e-09
1.07357200847772e-08
1.7152538549594e-08
1.78964416079189e-08
8.10174945082228e-09
7.21361440742521e-09
1.41106254277163e-08
2.49689386283629e-08
4.176327787897e-08
6.52095550198705e-08
9.48536477330315e-08
1.29660888397753e-07
1.68511933910115e-07
2.10457193619183e-07
2.54777167899664e-07
3.0087368422913e-07
3.482395355956e-07
3.96400725146055e-07
4.44925553506224e-07
4.93406593998522e-07
5.4146925500099e-07
5.88763950968112e-07
6.34977520771543e-07
6.79830494893328e-07
7.2308960506974e-07
7.64571905165713e-07
8.04162726880885e-07
8.41873245654605e-07
8.77949957507827e-07
9.11714234416239e-07
9.42638447936435e-07
9.70696118800149e-07
9.95875711020202e-07
1.01819414607163e-06
1.03769055926348e-06
1.05442584062401e-06
1.06848043116777e-06
1.07995215528972e-06
1.08895400219071e-06
1.0956108747833e-06
1.10005667757712e-06
1.10242839601725e-06
1.10286501073065e-06
1.10149817816483e-06
1.09845646498433e-06
1.093859799377e-06
1.08783076642037e-06
1.08050324770606e-06
1.07201290176104e-06
1.062493560374e-06
1.05206609184331e-06
1.04083264458711e-06
1.02887519761124e-06
1.01625694759613e-06
1.00303074496215e-06
9.89259782660312e-07
9.75013240417612e-07
9.60366675623888e-07
9.45381025554784e-07
9.3010352867264e-07
9.14556751539218e-07
8.98754497058288e-07
8.82719822471045e-07
8.66474459231767e-07
8.50042756351519e-07
8.33442085679015e-07
8.16675450916646e-07
7.99729480917314e-07
7.82583842610434e-07
7.65228003337397e-07
7.47634030905436e-07
7.29787129678859e-07
7.11602162636599e-07
6.93087233293066e-07
6.74096045795967e-07
6.54607477419585e-07
6.34487685592519e-07
6.13630518307546e-07
5.91923165339116e-07
5.69178725444388e-07
5.45265352898808e-07
5.19900881933616e-07
4.92944754896601e-07
4.63960626114871e-07
4.33617275304509e-07
4.0216198527247e-07
3.68579542302084e-07
3.32001355441569e-07
2.92948948545208e-07
2.50710624344791e-07
2.07622231878844e-07
1.63173952726249e-07
1.1839275701991e-07
1.28492537909718e-07
2.14082443490521e-07
2.29494656760921e-07
2.16270660100194e-07
1.79797097905179e-07
1.39055105572318e-07
1.03245241664215e-07
7.15998488353428e-08
4.79320805149602e-08
2.97347310919528e-08
1.88931838235627e-08
1.26249243148495e-08
1.22324071845617e-08
2.04125517928064e-08
2.47249020659565e-08
1.30900964771863e-08
2.15760386058056e-07
3.90647805981746e-08
5.04109912456789e-09
1.10801877840671e-08
1.0095498835636e-09
9.87596149682284e-10
2.76440810535797e-09
6.33731797863491e-09
1.44214371740367e-08
3.06441587888685e-08
6.26544001348102e-08
1.25484795066968e-07
2.37001150855268e-07
3.80009800502798e-07
3.99138068601111e-07
1.79457034109298e-07
1.60921144150269e-07
3.14693260619964e-07
5.51482136531608e-07
9.13997311770773e-07
1.41521553736385e-06
2.04367041221312e-06
2.77621035475215e-06
3.58835500991649e-06
4.45978280059791e-06
5.37556747241459e-06
6.3236990152048e-06
7.29435236806737e-06
8.27852822805907e-06
9.26821176537436e-06
1.02559172399172e-05
1.1234841602253e-05
1.21986413033233e-05
1.31416587312373e-05
1.40588237849865e-05
1.49459117197275e-05
1.5799598195778e-05
1.66177720996416e-05
1.74005758399501e-05
1.81478307248853e-05
1.88394694855691e-05
1.94772479450698e-05
2.00603906121467e-05
2.05886118581966e-05
2.10621046526464e-05
2.1481436452817e-05
2.18475512950617e-05
2.21617389602604e-05
2.24256044337176e-05
2.26410352853305e-05
2.28101487571966e-05
2.29352414463451e-05
2.30186854989276e-05
2.30629055817895e-05
2.30702107586236e-05
2.3042869687234e-05
2.29830155141477e-05
2.28928708419225e-05
2.27749091986292e-05
2.2631674071836e-05
2.24657026247349e-05
2.22793058175822e-05
2.20744518075395e-05
2.18527323861425e-05
2.16153856591179e-05
2.1363468291856e-05
2.10982559676654e-05
2.08211667180734e-05
2.05337562720833e-05
2.02373070615607e-05
1.9932830730892e-05
1.96208564231587e-05
1.93017366576169e-05
1.89760177475871e-05
1.86442204732139e-05
1.83069227444892e-05
1.79645658909736e-05
1.7617300445872e-05
1.72649440917888e-05
1.69071567342319e-05
1.65438152544121e-05
1.61744129125711e-05
1.57987423688308e-05
1.54150774514966e-05
1.5023699279765e-05
1.46215925907421e-05
1.42083984097048e-05
1.37815606167362e-05
1.3338562825826e-05
1.28771170011953e-05
1.23934402979092e-05
1.18846138105011e-05
1.13448107601748e-05
1.07706714507403e-05
1.0153060258584e-05
9.50034299939429e-06
8.81777166521525e-06
8.08870613155448e-06
7.29357591910854e-06
6.44404847705627e-06
5.52378454558256e-06
4.58462124999274e-06
3.6129508597733e-06
2.62173616674717e-06
2.8328896454735e-06
4.75483177665398e-06
5.08366437643805e-06
4.77208146526854e-06
3.96521972406567e-06
3.07143879231783e-06
2.28374181315154e-06
1.58793133929408e-06
1.06508860590411e-06
6.6238784495027e-07
4.21710025894771e-07
2.8246343131581e-07
2.73333735105998e-07
4.43613010949757e-07
5.2061821388909e-07
2.77685409107094e-07
1.7191438281388e-06
3.24708898244246e-07
4.22340656149917e-08
9.25352379553544e-08
9.79939016112221e-09
8.22738617090312e-09
2.26859720165194e-08
5.18246970823599e-08
1.17610080948085e-07
2.49819211193281e-07
5.1138085100891e-07
1.02299207807659e-06
1.92781470662885e-06
3.08523300391478e-06
3.25746040333891e-06
1.45196790290917e-06
1.31936259949305e-06
2.55529666150069e-06
4.36104773011288e-06
7.0442462257107e-06
1.06568068565473e-05
1.50860674643303e-05
2.01467650694926e-05
2.56532810291216e-05
3.14597903962222e-05
3.74660303600306e-05
4.35964251494353e-05
4.97934141363176e-05
5.60065815295611e-05
6.2193476406736e-05
6.83157439405096e-05
7.43399124169119e-05
8.02353995733162e-05
8.59758420234637e-05
9.15380434873355e-05
9.69034175331409e-05
0.000102057764395049
0.000106991899099556
0.000111703288523038
0.000116087110578624
0.00012017187311006
0.000123956289495918
0.00012743930363226
0.000130621838957473
0.000133506688535422
0.000136098024066772
0.000138401483241053
0.000140424063948989
0.0001421740314155
0.000143660812323178
0.000144894781967157
0.000145887054994977
0.000146649008258613
0.000147192191994829
0.000147527498006427
0.000147665568067914
0.000147616324444302
0.000147390239401982
0.000146999203365907
0.00014645560353407
0.000145771941819717
0.000144959664002574
0.000144028534030032
0.000142986428698215
0.0001418394106001
0.000140592662235157
0.00013925263473578
0.000137826701226168
0.000136323117694283
0.000134748814268563
0.000133109332333581
0.000131407667949243
0.000129645837142581
0.00012782701352343
0.000125954252719226
0.000124030998795905
0.000122060009641777
0.00012004245472983
0.000117977641788311
0.000115863854960632
0.000113700747387149
0.000111485560172324
0.00010921742309381
0.000106886202737505
0.000104494508888464
0.000102026769549744
9.94732413558693e-05
9.68222225635348e-05
9.40579245519389e-05
9.11649499519602e-05
8.8119037125944e-05
8.48990189579896e-05
8.14664855589738e-05
7.77938344527369e-05
7.38186685332375e-05
6.95339121901437e-05
6.49603729362494e-05
6.00244880649359e-05
5.45777663359233e-05
4.86782916680448e-05
4.21855403624611e-05
3.54495858757613e-05
2.83648754953366e-05
2.08086132067752e-05
2.22431754340062e-05
3.6920959325562e-05
3.9301573858397e-05
3.69158454546459e-05
3.09651158527279e-05
2.42666350408129e-05
1.82215862070597e-05
1.27936479219736e-05
8.64400819962293e-06
5.40997547117921e-06
3.45885887732885e-06
2.31964261903039e-06
2.22729995915808e-06
3.46217355005898e-06
3.83703751781982e-06
2.0418958593716e-06
7.57011500893576e-06
1.57959917783287e-06
2.07835483569565e-07
4.56887334951489e-07
5.53281688051445e-08
4.0686229149686e-08
1.10009165260229e-07
2.50025211504998e-07
5.64829123608022e-07
1.19801774783024e-06
2.45381483698034e-06
4.88888355578438e-06
9.13992344310679e-06
1.44561784584998e-05
1.52808594501874e-05
6.79927085268691e-06
6.29437686483548e-06
1.1712253718577e-05
1.89731829581599e-05
2.92418082822343e-05
4.25968727460892e-05
5.85138286093103e-05
7.62106585473442e-05
9.49629468373011e-05
0.000114252278359808
0.000133759598812482
0.000153265589047249
0.000172620436925557
0.000191700182596472
0.000210409557494914
0.00022866622530394
0.000246403310914001
0.000263561771468112
0.000280094472525282
0.000295961896411182
0.000311135824886337
0.000325596964414917
0.000339332638610368
0.000352153306512579
0.000364092411780588
0.000375186970846831
0.000385445656584162
0.000394879135748251
0.00040350155471208
0.000411330101014911
0.0004183838933515
0.000424684351306814
0.000430255008069338
0.000435121394818021
0.000439310884341365
0.000442852271846531
0.000445775352456602
0.000448109871002047
0.000449885374768674
0.000451129253135334
0.000451867788648078
0.000452125016841316
0.000451926062729111
0.000451299305606716
0.000450274193891803
0.000448880412417974
0.000447145024862417
0.000445090984357471
0.000442736618812352
0.000440095709834178
0.000437179806823056
0.000434003520187626
0.000430583824165409
0.000426939995494298
0.000423088240070224
0.000419041426775797
0.000414806253539156
0.000410386837952665
0.000405790306038487
0.000401023442737682
0.000396094097164068
0.000391008543132955
0.000385769169152654
0.000380373738889583
0.00037481713569328
0.000369098006932709
0.00036320849251777
0.000357148782357213
0.000350899876208289
0.000344439811116027
0.000337742730447817
0.000330778832819291
0.000323515321308979
0.000315906953104019
0.000307907055108975
0.00029944469957683
0.000290452423472792
0.000280815066054795
0.000270436991420295
0.000259124194239381
0.000246732205304121
0.000233207678167581
0.00021839389085824
0.000201763138087449
0.000183354795571373
0.000162561354806831
0.000140272576204058
0.000116065527512264
8.84700696698588e-05
9.3075785860316e-05
0.00014637601509104
0.00015517351282341
0.000147145237552522
0.000126741490519012
0.000102424756516279
7.91944215679438e-05
5.7207439109532e-05
3.95745818050669e-05
2.52396893334755e-05
1.63417115621327e-05
1.09971442036907e-05
1.04333461557602e-05
1.54523660841478e-05
1.61684329857554e-05
8.1627718977681e-06
2.17618103478645e-05
5.45531393764587e-06
7.39889240988551e-07
1.64362364582811e-06
2.24532753871159e-07
1.47124566175457e-07
3.88114108812974e-07
8.75522060016491e-07
1.96383038256585e-06
4.14956298562885e-06
8.48131836580587e-06
1.67049278278254e-05
3.05662912057207e-05
4.68450882396349e-05
4.90013263386871e-05
2.23165760484924e-05
2.0939037649056e-05
3.59284629801959e-05
5.429168789807e-05
7.95685209080954e-05
0.000112025533369741
0.000149997591776271
0.000191167408927237
0.000233651482520061
0.000276259894225363
0.000318363574843772
0.000359584236489441
0.000399710890772498
0.000438585879962939
0.000476111769866735
0.000512210798126022
0.000546831358487092
0.000579930471255886
0.000611482710783775
0.000641470551515027
0.00066989095766929
0.000696748667401199
0.000721883571041144
0.000745216829348032
0.000766879121041933
0.000786914804073819
0.000805364399472008
0.000822268490913947
0.00083767126084338
0.000851619375071017
0.000864160471277476
0.000875344085349804
0.00088522151171574
0.00089384582442073
0.000901271788500275
0.000907555308568221
0.000912752825317185
0.000916919705277394
0.000920110036029029
0.000922373426211674
0.000923756809944922
0.000924302563581591
0.000924054525636397
0.0009230616753486
0.00092137452158849
0.000919043783087252
0.00091611550196361
0.000912628562453108
0.000908613803285957
0.000904094018604937
0.000899087984452933
0.000893619459554251
0.000887716265426337
0.000881410168685293
0.000874727844469045
0.000867690209864626
0.000860307750858055
0.000852586152210494
0.000844536409760738
0.000836168723320723
0.000827495159036381
0.000818525196734088
0.000809261730330143
0.000799699782813386
0.000789828997227771
0.000779645973956182
0.000769154177762531
0.00075832564444239
0.000747124638389508
0.000735511497636241
0.000723444210265534
0.000710866607891672
0.000697716767109513
0.000683910129180622
0.000669356776716084
0.000653923391202454
0.000637477377096739
0.000619800224643462
0.000600697460454231
0.000579795058015912
0.000556754537969594
0.000531247458438515
0.000503052392981348
0.000471063907508409
0.000435147794477297
0.000393883281778938
0.00034859679590716
0.000298235222983578
0.000238366757068436
0.0002472793946458
0.000362792117444221
0.000384767807091681
0.000370261449087404
0.000329116006224501
0.00027629443935556
0.000222528392987927
0.000168016913099114
0.000121357178143776
8.04794071164553e-05
5.36931970709463e-05
3.66038667407801e-05
3.43741188093061e-05
4.87831693501845e-05
4.98667691674805e-05
2.22321174834097e-05
4.54806791999179e-05
1.45744309085855e-05
2.12156908753468e-06
4.79566623196998e-06
7.30123609558573e-07
4.32783338953445e-07
1.10766113581192e-06
2.47171325282688e-06
5.4846625418061e-06
1.14943919784571e-05
2.32837543490626e-05
4.46833110633755e-05
7.82927869556472e-05
0.000113453503766032
0.000115363689201766
5.56906182557067e-05
5.21649953171107e-05
8.10830040505178e-05
0.000115617112847081
0.000164348478825307
0.000226933367332864
0.00029844433525181
0.000373564333763734
0.000448808102524763
0.000522346167022491
0.000593449045017584
0.000661783037073243
0.000727262270273172
0.000789839909018104
0.000849535893617325
0.000906368965053015
0.000960377139179965
0.00101159208128354
0.00106005795633339
0.00110581767917425
0.00114892400196703
0.001189368029254
0.00122689266132874
0.0012616965231161
0.0012939028053704
0.00132358660440353
0.00135083202330874
0.0013757192792528
0.00139833146130737
0.00141875240468041
0.00143706512411021
0.00145335343251452
0.00146770195712905
0.00148019640752657
0.0014909236266348
0.00149997095707519
0.00150742545314291
0.00151337176277027
0.00151789178740485
0.00152106029715693
0.00152294742349293
0.00152361611278943
0.00152313110455556
0.0015215641295139
0.00151898889928975
0.00151547923576508
0.00151110199388608
0.00150591352741632
0.00149995838586486
0.00149326916928079
0.00148587245325226
0.00147780164132911
0.00146909605617477
0.00145980065541667
0.00144995322532029
0.00143958305035403
0.00142870458140837
0.00141732470829081
0.00140545825666932
0.00139311852606636
0.0013803215417994
0.00136707971772605
0.00135339607497634
0.00133926238598787
0.00132466209741123
0.0013096134061041
0.00129409153352665
0.00127803883585542
0.00126141326266869
0.0012441557875808
0.0012262040812372
0.00120747247780484
0.00118786536502657
0.00116725401509575
0.00114549866116822
0.0011223964290124
0.00109773926530821
0.00107119419067158
0.00104245094908974
0.00101093664140964
0.000976136695631443
0.000937273291618551
0.000894093457796556
0.000844827854350515
0.00078903961882964
0.000724345242071981
0.000652284393271068
0.000571227024271827
0.000472846793200265
0.000485526919034979
0.000673507647929921
0.000717264378853573
0.00070051603584064
0.000639070911447169
0.000553961156534406
0.000462757641670477
0.0003646958107427
0.000276293123355053
0.000192523164275731
0.000134443453313995
9.40951158654236e-05
8.82255852683547e-05
0.000120857210031392
0.0001269635970879
4.76576740581762e-05
7.57864235592288e-05
3.15141435069667e-05
5.21184953133375e-06
1.20607985446566e-05
2.02314400173475e-06
1.09997746444383e-06
2.71463125828025e-06
5.96478186936204e-06
1.30291896583497e-05
2.68914941716607e-05
5.3328682982022e-05
9.7935828755206e-05
0.000161039794565124
0.000217400686739951
0.00021170219221799
0.000110750374150769
0.000102599540444234
0.00014722818159026
0.000203952963899183
0.000286855164582418
0.000391204917798402
0.000505983396570259
0.000622353091547416
0.000735772499186548
0.000844336407131036
0.000947653821459821
0.00104570085941057
0.00113869537388665
0.00122681092368308
0.00131026084063265
0.00138921021000914
0.00146382270993593
0.00153423051652446
0.00160056715533885
0.00166295138654552
0.00172151104621314
0.00177607464400637
0.00182662583636796
0.00187344212374301
0.00191666156423278
0.00195640207572718
0.00199279529638712
0.00202596513708683
0.00205603743978343
0.00208313663594828
0.00210738434469257
0.00212890167138833
0.00214780942425014
0.0021642286618158
0.00217828089881645
0.00219008739697777
0.00219976815641528
0.00220743933027238
0.00221321264505055
0.0022171899411102
0.00221946622497007
0.00222012660227068
0.00221925828667069
0.00221695727014013
0.00221332201858605
0.00220845095925144
0.00220243312681181
0.00219534353424622
0.00218724142739952
0.00217816995615802
0.00216816409799655
0.00215726734920787
0.00214553110885684
0.00213301409663101
0.00211976579210539
0.00210582415425755
0.00209120798485799
0.00207592521042349
0.00205999465341603
0.00204343255836162
0.0020262588174277
0.00200848873079598
0.00199012543668442
0.00197115738414306
0.00195158052612288
0.00193141552364684
0.00191058344851798
0.00188902083176029
0.00186667597631914
0.00184346952645144
0.00181931579533111
0.00179409760884761
0.00176768249219459
0.00173989455625821
0.0017105395608374
0.00167934105749954
0.00164600822576498
0.00161008824971354
0.00157114283921481
0.00152839249783125
0.00148117146975288
0.00142814001196584
0.00136903382632078
0.0013013848271276
0.00122434073475771
0.00113450683271395
0.00103335207533159
0.000918869636940779
0.000778105017157275
0.000792638960899072
0.00105434031903014
0.00113021442449827
0.00111789393027675
0.00104010484991026
0.000923557609291434
0.000793415187598125
0.000646894572754234
0.000510588237922178
0.000372566833068432
0.000273441857819628
0.000198048858562615
0.000187285770194906
0.000247796023803543
0.000276867803422288
8.82801791679898e-05
0.000108467271044909
5.72305694755079e-05
1.13917129046356e-05
2.71191984989133e-05
4.95827421608265e-06
2.50548826078994e-06
5.92282047036654e-06
1.2740870037586e-05
2.72304094401426e-05
5.48449988611085e-05
0.000104977253583812
0.000181903017616445
0.000278230059395882
0.000349485336116708
0.0003247322726925
0.000183677151037915
0.000169738992674409
0.000232742209870275
0.000320787725706852
0.000449895989072303
0.000605380388739201
0.000769347203320279
0.000930574203352212
0.00108459377543358
0.0012299861812805
0.00136700507352457
0.00149605927533799
0.0016177378030317
0.00173246319562452
0.00184065903710941
0.00194264489385077
0.00203871565155588
0.00212910801952472
0.00221404837560744
0.00229373421452375
0.00236834231336843
0.00243754505215253
0.00250166559080168
0.00256097024543841
0.00261562746060908
0.00266580402196127
0.00271168070250559
0.00275342757511858
0.00279121557362247
0.0028252119351937
0.00285557907129835
0.00288247748546234
0.00290606621676101
0.00292650366759729
0.00294394796415591
0.00295855616478739
0.00297048299382458
0.0029798778258981
0.00298688377624
0.00299163130195174
0.00299424167508122
0.00299482355459321
0.00299348796539656
0.00299035639077596
0.00298555332077794
0.00297920300520195
0.00297141778544839
0.00296229234620598
0.00295190151799872
0.00294029975046065
0.00292753105566852
0.00291364944584665
0.00289871891146134
0.00288281241550662
0.00286599165212818
0.00284830353472007
0.00282977172601682
0.00281040510267369
0.00279022677453926
0.00276925584007154
0.00274751604550862
0.00272502565483234
0.00270178812863042
0.00267779527520326
0.00265307951214605
0.002627589902871
0.00260123671537124
0.00257394854837359
0.00254566156840103
0.00251627533041248
0.00248567847957864
0.00245372080287444
0.00242023048859912
0.00238498232207129
0.00234772392279645
0.00230810258615153
0.00226573883781144
0.00222005699350487
0.00217048060519559
0.00211602032578332
0.00205582835013825
0.00198807137154052
0.00191234704191314
0.00182551802020666
0.00172621409795656
0.00161001949375809
0.00147802199064768
0.00132802358231904
0.00114150464554413
0.00115418030901005
0.00148782812047266
0.00160575622179568
0.00160510831279636
0.00151599790455198
0.001370648505006
0.00120242193071762
0.00100572661002473
0.000819741098541038
0.000620807662056367
0.000476692632884635
0.000357191285526685
0.000342702429960419
0.000436600611577007
0.0005206877224178
0.000149573030843615
0.000151545546489438
9.06814233936311e-05
2.26767723188073e-05
5.57306424284507e-05
1.10031617740177e-05
5.23400204125888e-06
1.17701405863037e-05
2.46249255948664e-05
5.11626946776054e-05
9.96374549042629e-05
0.0001820186278468
0.000295933311273444
0.000421814451125401
0.00049636341197685
0.000442309921614819
0.000267545850719052
0.000250445819320817
0.000338005807793272
0.000468874429995744
0.000654766870686258
0.000866777852696583
0.00108244581774411
0.00128978190290857
0.00148532006784709
0.00166836964459015
0.00183993232445112
0.0020008469173706
0.00215206680575762
0.00229424830057083
0.00242801414677451
0.00255382961059935
0.00267211503172323
0.00278320853188349
0.00288742801592991
0.00298505137332243
0.00307620491316108
0.00316063251770758
0.00323883513238508
0.00331108755783112
0.00337759933017378
0.00343858954898707
0.00349428934432283
0.00354491709645837
0.00359069076735036
0.00363182228880412
0.00366851673775614
0.00370097581086797
0.00372939852082693
0.00375398229497908
0.00377492349189731
0.003792416519383
0.00380665228420112
0.00381781478465672
0.00382607980565639
0.0038316077280848
0.00383454729168234
0.00383503195860888
0.00383319770883764
0.00382919251060858
0.00382316789368118
0.00381527489107932
0.00380565005372654
0.00379440857898719
0.0037816416685506
0.00376741580411004
0.00375178465901482
0.0037348131331542
0.00371657823137743
0.00369716753339948
0.00367665537593425
0.0036550978449124
0.00363252404909366
0.00360894375356515
0.00358438472999433
0.00355886885365939
0.00353242374618585
0.00350507079101989
0.00347681396101533
0.0034476866100075
0.00341768774448873
0.00338671640671819
0.00335468181057111
0.00332150324808617
0.00328710283796487
0.00325135844711162
0.00321413132047395
0.00317523704912153
0.00313446258255494
0.00309153183219254
0.00304613141513661
0.0029978306200354
0.00294615665677604
0.00289040942604216
0.00282986609308727
0.00276332724560394
0.00268973655281929
0.00260682286962913
0.00251395407081744
0.00240735072948439
0.00228503349110135
0.0021415740739221
0.00197737618270984
0.00179019069733652
0.00155486781761079
0.00156085398241671
0.00196307763241366
0.00213168722907059
0.00214982589048191
0.00205459747681544
0.00188369437582086
0.00167909471434095
0.00143181208120282
0.00119634467974609
0.000932151821143249
0.000743309042989714
0.000573199811645712
0.000558723558451479
0.000684638470746495
0.000858322254959001
0.000239588952867515
0.000210168919420151
0.000129923060876713
4.16588327935894e-05
0.00010591921344545
2.24553753540958e-05
1.01788034427067e-05
2.16285673577823e-05
4.37177124703801e-05
8.77978550014836e-05
0.000164160351155564
0.000284594514055707
0.000434866118475169
0.000581793393528109
0.000647424732918694
0.000558088553485619
0.000358172745549619
0.00034375094954291
0.000465398650291372
0.000650789938158778
0.000900574187744678
0.00117095875806731
0.00143884638535013
0.00169246174631213
0.00192986116938697
0.00215106255217449
0.00235780030440046
0.00255128271950472
0.0027327911714294
0.00290318645846115
0.00306327102196914
0.00321364320122352
0.00335484067481267
0.00348729884127792
0.00361142529312964
0.00372758887380843
0.00383576681715679
0.00393595219527432
0.00402871021778717
0.00411434002961854
0.00419309954382814
0.0042652624955773
0.00433111170686129
0.0043909159313503
0.00444494193884832
0.00449344809986613
0.00453668384661277
0.0045748936558187
0.00460831802565595
0.00463719483302839
0.00466176001468136
0.00468224658947441
0.00469888281029731
0.00471188840656522
0.00472147284501105
0.00472782749849068
0.00473112958232827
0.00473153844218099
0.00472921594754381
0.00472433729900404
0.00471708181393955
0.00470762800579857
0.00469613730171425
0.00468274606641289
0.00466756253896812
0.00465066591998457
0.00463212013553743
0.00461200127334921
0.00459039966342598
0.00456741775693335
0.00454314285121771
0.00451764033777812
0.00449094540763249
0.00446306864502892
0.00443404293102965
0.00440389283254376
0.00437264988579521
0.00434033874997001
0.00430698263136141
0.00427265196477575
0.00423726148506217
0.00420069943844945
0.00416287132039857
0.00412368610620889
0.00408305043749109
0.00404082007335423
0.00399682763805499
0.00395085374296864
0.00390264275751284
0.00385186675243361
0.00379814929310645
0.00374098075278966
0.00367979162655154
0.00361375711047767
0.00354200176817289
0.00346311819046369
0.00337582000662623
0.00327744234042288
0.0031670580051766
0.0030402724697159
0.00289441909939946
0.00272307650518774
0.00252568941463405
0.00230004963506973
0.00201334210510072
0.00200728275923404
0.00247344954948733
0.00269973444764365
0.00274333638199182
0.00264708102307311
0.00245409123347894
0.00221515882081009
0.00191747996946171
0.00163351713175069
0.00130054099301893
0.00106941709192366
0.000843210518208005
0.000834119189864555
0.000984682688970085
0.00127283770790934
0.000369071602108651
0.000279544862253416
0.000173319527572037
7.10498704062198e-05
0.000186992020345112
4.26064055813761e-05
1.86090592716037e-05
3.71406150691847e-05
7.21165298065775e-05
0.000139433935793454
0.000249334290659567
0.000409972046015144
0.000592010456822824
0.000749834422931416
0.000796642129831279
0.000670834551462007
0.000454705371597578
0.000450795217381739
0.000618143772238308
0.00086782754498993
0.00118476974914736
0.00151318236664574
0.00183292242851296
0.00213259311080697
0.00241201110237693
0.0026717467932093
0.00291420397343942
0.00314088393636022
0.00335335222803863
0.0035526437679711
0.00373972060598163
0.00391530236986606
0.004080036620111
0.00423445276303878
0.00437904635147555
0.00451429710742459
0.00463992660473118
0.00475633410543312
0.00486406378917665
0.00496345174901671
0.00505480947619591
0.00513846718364725
0.00521476089426091
0.00528401172098002
0.00534653689661684
0.00540264283341798
0.00545262482174906
0.00549677149036289
0.00553536609249302
0.00556868810998366
0.00559701411566891
0.00562061669826673
0.00563976231498462
0.00565470722901789
0.00566569532104037
0.00567294976745185
0.00567667705184667
0.00567706328314303
0.00567429692748989
0.0056685809077464
0.00566012279785159
0.00564912902023656
0.00563578629922245
0.00562025262292298
0.00560265379776816
0.00558308236194079
0.00556161302961571
0.00553833329275372
0.00551334699327504
0.00548677159323931
0.005458707546795
0.0054292295836298
0.00539837965332791
0.00536616905690866
0.00533263630840571
0.00529780856043744
0.00526172131824036
0.00522440233232466
0.00518594604798844
0.00514635868241204
0.00510551695676598
0.00506330374653801
0.00501961900788719
0.00497436064991586
0.00492741882168152
0.00487862695329257
0.004827788300704
0.00477464809624121
0.00471890735023751
0.00466018590228097
0.00459804304669518
0.00453189014514532
0.00446105888459486
0.00438460062557663
0.0043014832316859
0.004210095240452
0.00410890394052705
0.00399488602214324
0.00386677319100462
0.00371958465609552
0.003549902648423
0.00335033873104059
0.00311914226611406
0.00285418966321199
0.00251411802056887
0.00249050941792196
0.00301494804227436
0.00330414473319767
0.00337926649080762