/*--------------------------------*- C++ -*----------------------------------*\
  =========                 |
  \\      /  F ield         | OpenFOAM: The Open Source CFD Toolbox
   \\    /   O peration     | Website:  https://openfoam.org
    \\  /    A nd           | Version:  7
     \\/     M anipulation  |
\*---------------------------------------------------------------------------*/
FoamFile
{
    version     2.0;
    format      ascii;
    class       volScalarField;
    location    "20000";
    object      p;
}
// * * * * * * * * * * * * * * * * * * * * * * * * * * * * * * * * * * * * * //

dimensions      [0 2 -2 0 0 0 0];

internalField   nonuniform List<scalar> 
15600
(
5.37628225867996e-08
-0.284332495288764
-0.0711304491984797
-0.0612008719835191
-0.0496447225686492
-0.0504732212678947
-0.0454280769654093
-0.0447360992150994
-0.0413979251358304
-0.0391474884253455
-0.0357308078392125
-0.0330854447819446
-0.0308244037114844
-0.0298615535430689
-0.0288851280383832
-0.0278921449347225
-0.0254528877181439
-0.0236958747094944
-0.022801244757587
-0.0222683226009219
-0.0218721203383724
-0.0211305971691673
-0.0197950750850406
-0.0176898558221717
-0.0147592790531727
-0.0109840029454122
-0.00637974623937433
-0.000971419497960177
0.0052056590120682
0.0121135308000311
0.0197107887761405
0.0279552275311214
0.0368030023598829
0.0462100036264246
0.0561313351904552
0.066522307766021
0.0773384104889523
0.0885359383186073
0.10007170979481
0.111903399532601
0.123989924558721
0.136291670261957
0.148770918231463
0.161391826807513
0.17412065779547
0.18692570366351
0.199777370063263
0.212648176024193
0.22551276710815
0.23834791351107
0.251132473766691
0.263847385028804
0.276475504595579
0.289001642329197
0.301412238284623
0.313695430586365
0.325840714446233
0.337838907196319
0.349682282403498
0.361364423978265
0.372880237998786
0.384225747097651
0.395397910513393
0.406394451442419
0.417213725911531
0.427854529133888
0.438316335542762
0.44859914387994
0.458703691705713
0.468631110131126
0.478383039221017
0.48796128169727
0.497367889943896
0.506605220578896
0.515675919886159
0.524582950699884
0.53332951249537
0.541919015090032
0.55035495991217
0.558641116887471
0.566781374518116
0.574780020990383
0.582641442479104
0.590370551365597
0.597972257148617
0.605452254885522
0.612816071615023
0.620070662356029
0.62722227414177
0.634279973832385
0.641250593645622
0.648146885021225
0.65497541802118
0.66175577104057
0.668491337061098
0.675214992675557
0.681918188364498
0.688661391431937
0.695400333579111
0.702251187952221
0.709064291783784
0.71606619202167
0.72283961859084
0.729844919752021
0.73569725840546
0.743544744497713
0.750808554371547
0.759724856393052
0.767082379631322
0.770860529164628
0.769675376049226
0.761729705032201
0.749509208180068
0.727307754194395
0.69282113081038
0.623750718099197
0.483852767674143
0.186949857602926
-0.537824364406161
-0.724036309534632
-8.39533572548767e-05
-0.284136584140692
-0.0727503147402667
-0.0614069790380493
-0.0497204820894357
-0.0504650909086101
-0.0454332005295946
-0.0447083788044313
-0.0413890725363494
-0.0391371568704148
-0.0357252346015416
-0.0330534149416083
-0.0307534080311913
-0.0297625852047809
-0.0287982430311684
-0.027846090265778
-0.0254111427088452
-0.0236636814583179
-0.0227750583792272
-0.0222432835576294
-0.0218448649061548
-0.0210973098635677
-0.0197537479907091
-0.0176395189978256
-0.0146999258280163
-0.0109160901657751
-0.0063040323862204
-0.000888793170161245
0.00529423773458976
0.0122070865184746
0.0198083515131973
0.028055850449557
0.0369057704131409
0.0463140420778748
0.0562358147904693
0.066626450651105
0.077441493269694
0.0886372928827416
0.100170722338912
0.11199951785154
0.12408266103093
0.136380593497966
0.148855653641203
0.161472055193225
0.174196112772868
0.186996168510338
0.199842674645994
0.21270819343985
0.225567410269289
0.238397131588019
0.251176248613183
0.263885727512051
0.276508451142791
0.289029251504776
0.301434587835207
0.313712614769146
0.325852841843188
0.337846098567286
0.349684668075947
0.361362141414727
0.37287342952062
0.384214558185102
0.395382488643286
0.406374945354851
0.417190285325965
0.427827304136871
0.438285475243094
0.448564795121432
0.45866599792597
0.468590211140431
0.478339071155594
0.487914377766726
0.497318179824787
0.506552829635459
0.51562096856202
0.524525554092006
0.533269780441571
0.541857052677564
0.550290867381135
0.558574989124024
0.566713300457263
0.574710083032292
0.582569715734287
0.590297102849237
0.597897146238803
0.605375534039087
0.612737782837683
0.6199908383663
0.627140932043779
0.634197120521156
0.641166210309415
0.648060943575387
0.654887853215497
0.661666525062051
0.668400275803469
0.675122029067245
0.681823081734415
0.688564102714742
0.695300489334528
0.702149041877795
0.708959400381505
0.715959751866468
0.72273194117337
0.729741816957862
0.735603717320627
0.743542113573768
0.750892044376475
0.759848890141111
0.76712967560059
0.770759331235273
0.769380251531117
0.761274221740327
0.748861860681898
0.726376136527317
0.691328115294783
0.621145920271993
0.479321608861473
0.179020657851779
-0.542150648330435
-0.723002781874289
-0.000135986416117099
-0.283902191114438
-0.0743612462470257
-0.0616348787292574
-0.0498000459329469
-0.0504586595098873
-0.04543812809583
-0.0446813101624367
-0.0413796058234446
-0.0391273905774413
-0.0357207251687534
-0.0330238311673559
-0.030683957444964
-0.0296647326885433
-0.0287141195048105
-0.0278069997450417
-0.0253684443435674
-0.0236282035755285
-0.0227459171561093
-0.0222157975316984
-0.0218160771375581
-0.0210631897788068
-0.0197120209445483
-0.0175889662246598
-0.0146404407279192
-0.0108480960740025
-0.00622830781010601
-0.000806256240591209
0.00538258919048059
0.0123002427798971
0.0199053095790969
0.0281556367985694
0.0370074470182621
0.0464167172601559
0.0563386459529435
0.0667286504673641
0.0775423303375311
0.0887360919510581
0.100266871441994
0.112092484781114
0.124171974984495
0.136465835848731
0.148936463999624
0.161548130041695
0.174267202765341
0.187062074933667
0.199903246036949
0.212763321898856
0.225617027711783
0.238441205936222
0.251214779843032
0.263918744063663
0.276536005977576
0.289051419242891
0.301451461407764
0.31372430341369
0.325859468904575
0.337847798479795
0.349681583614699
0.361354420942354
0.372861224897572
0.384198023385841
0.395361778966479
0.406350217049454
0.417161695858071
0.427795010924185
0.438249634223193
0.448525558766533
0.458623514597689
0.468544624763253
0.478290521992481
0.487863003332456
0.497264114087847
0.506496202015791
0.515561903215609
0.524464169530575
0.533206189818908
0.541791364772419
0.550223186435031
0.558505414507323
0.566641925672355
0.574636995197975
0.582494994501004
0.590220821593776
0.597819371731971
0.6052963305175
0.612657202140444
0.619908922916666
0.627057708914795
0.634112611625051
0.641080411182353
0.64797385273672
0.65479941738305
0.661576718334659
0.668308968536069
0.675029188675496
0.681728440650719
0.688467714491598
0.695201888881916
0.702048676600585
0.708856551617431
0.715856000881737
0.722627276788314
0.72964071622447
0.735496933513763
0.743530393517335
0.750969618855386
0.759966575046741
0.767166800926904
0.770645530878019
0.769074418653148
0.760809184288473
0.748203245972696
0.725425983793227
0.689807123482418
0.6185124461542
0.474808797918612
0.171559080999814
-0.545154836780758
-0.721027259952799
-0.000284294588511751
-0.283616770274481
-0.0759328878929799
-0.0618672642855336
-0.04988050039728
-0.050453229143762
-0.0454430270704914
-0.0446551828632189
-0.0413701495702986
-0.039118163600651
-0.0357171524723873
-0.0329964312210624
-0.030616542911851
-0.0295686061438177
-0.0286343474398123
-0.0277759394268562
-0.0253264592408243
-0.0235905240704131
-0.022715262010066
-0.0221881802558086
-0.0217884024202637
-0.0210308419167455
-0.0196721510087538
-0.0175400652487323
-0.0145823949231776
-0.0107814530464007
-0.00615402364283483
-0.000725416935378023
0.00546883447234262
0.0123907578779878
0.0199989850681993
0.0282514157223018
0.0371043258076961
0.0465137571620336
0.0564349712107392
0.0668234522467077
0.077634862868463
0.0888256839033246
0.100352965585939
0.112174594772554
0.124249651803385
0.136538700970587
0.149004206022923
0.161610498287814
0.174324004072257
0.187113169212428
0.199948541900215
0.212802772045066
0.225650624251004
0.238468975796156
0.251236779929175
0.263935057459255
0.276546737225167
0.289056692090516
0.30145141523553
0.313719092129337
0.325849259049683
0.337832764657566
0.349661904908049
0.361330277634407
0.372832796526383
0.384165488122713
0.395325313808112
0.40630999846395
0.41711790129341
0.427747816862931
0.438199213969927
0.44847207933723
0.458567136372314
0.468485501549518
0.478228803151361
0.48779883579737
0.497197641327963
0.506427562352959
0.515491228898283
0.52439158628377
0.533131817650546
0.541715320047231
0.550145582069608
0.558426359743259
0.566561524447794
0.574555346224199
0.582412192578191
0.590136968755999
0.597734559532543
0.605210634223987
0.612570692325976
0.61982167205689
0.626969776036803
0.6340240587896
0.640991275489473
0.647884187686654
0.654709222509345
0.661486045432919
0.668217754583216
0.674937528638501
0.681636123670505
0.688374931072788
0.69510816397754
0.701954627875537
0.708761201614035
0.715761053704763
0.722531865045305
0.729547668938984
0.735385587971178
0.743508589938934
0.751032116901625
0.760060621147228
0.767175087927772
0.770504840507599
0.768750807175673
0.760334801163863
0.747539030504794
0.724470958245954
0.68828815911466
0.615920216245305
0.47048289166321
0.164980350876772
-0.546061146579744
-0.71751058339657
-0.000601637165310447
-0.28328184340378
-0.0775383402588183
-0.0621123568812629
-0.0499646216346316
-0.050448410966606
-0.0454481372062959
-0.0446287028384092
-0.0413603928482372
-0.0391091953085286
-0.0357150296934286
-0.0329716754340709
-0.0305515629416321
-0.0294731415262676
-0.0285554932234285
-0.0277457492526338
-0.0252822991108137
-0.0235477707948618
-0.0226799638182675
-0.0221575000346506
-0.0217586860926556
-0.0209963038577836
-0.0196290583251558
-0.0174866136629396
-0.0145186792214797
-0.0107084275754535
-0.00607310635229223
-0.000638117621668952
0.00556098957682696
0.0124863095881397
0.0200965472377419
0.0283497023509681
0.0372021451324153
0.0466100220310368
0.0565286910079274
0.0669137324454781
0.077720903641056
0.0889068347125835
0.100428696208246
0.11224441353938
0.124313146307113
0.136595556443186
0.149054187542898
0.161653442390342
0.174359813760299
0.187141807633864
0.199970026046261
0.212817166270199
0.225658033801643
0.238469540570318
0.251230667973803
0.263922460246716
0.276527863688999
0.28903176659084
0.301420673861501
0.313682782608202
0.32580763952567
0.337786097251743
0.349610450243982
0.361274290377768
0.372772523122983
0.38410116703142
0.395257177234792
0.406238274813229
0.417042818869951
0.427669601710433
0.438118086128084
0.448388247876058
0.458480798686843
0.468396844104845
0.478138005521156
0.487706075078799
0.497103091226939
0.506331390218784
0.515393594305342
0.524292640266205
0.53303170430287
0.541614180526919
0.550043555761095
0.558323584198435
0.566458133101756
0.574451477380585
0.582307980526341
0.590032525706947
0.597629998425388
0.605106086446726
0.612466287357592
0.61971754668194
0.626866060387578
0.633920900564626
0.640888803869843
0.647782571744955
0.654608580656663
0.661386589175257
0.668119564878067
0.674840939406602
0.681541088121204
0.688281925410527
0.695016790637057
0.701865857798568
0.708673804064334
0.71567699262919
0.722448405477145
0.729468521362287
0.73528483196977
0.743479447335817
0.751066997017311
0.760104860300678
0.767115725811946
0.770290930198373
0.768357905743918
0.759798130153601
0.746811909350769
0.723444580371244
0.686683103242158
0.613241185962569
0.466150075716565
0.158960118153428
-0.544843427666735
-0.71204882069332
-0.00107562586121535
-0.282890290001354
-0.0791976790559237
-0.0623759829892019
-0.0500531961180697
-0.0504442085911341
-0.0454535166348356
-0.0446016237377419
-0.0413502545191066
-0.0391008116535042
-0.0357158116897851
-0.0329532616153439
-0.0304956054613137
-0.029384895685561
-0.0284781737408934
-0.0277079109551207
-0.0252326656740695
-0.0234964470930828
-0.0226373021301667
-0.0221219273563862
-0.0217248515566793
-0.020956189987111
-0.019577796634813
-0.0174224714674803
-0.0144425337761847
-0.0106221466124889
-0.00597894664704629
-0.000538270217880358
0.00566445570491311
0.0125915143671122
0.0202017797594939
0.0284534353839134
0.0373030124370944
0.0467068196419241
0.0566203572427817
0.0669993416090764
0.0777996814548144
0.088978183028348
0.100492114079161
0.112299475840822
0.124359546453599
0.136633089296356
0.149082736332348
0.161672968026659
0.174370348246358
0.187143446092738
0.199962918853706
0.212801511055366
0.225634067552177
0.238437532089089
0.25119091010186
0.26387526446293
0.276473553284396
0.288970675023468
0.301353141255447
0.313609156963233
0.325728276366317
0.337701351764327
0.349520670009951
0.361179809706657
0.372673660475827
0.383998226035204
0.395150449981274
0.40612804625251
0.416929372837834
0.427553218895347
0.437999038902308
0.448266793410254
0.458357177711163
0.468271282178073
0.478010718993785
0.487577278040305
0.496972995058175
0.506200199341368
0.515261504193297
0.524159836337
0.532898364331162
0.541480480745758
0.549909673130395
0.558189696851752
0.566324422904148
0.57431811747123
0.582175134088261
0.589900372457625
0.597498728978208
0.604975900603225
0.612337391662673
0.619590168643801
0.626740431931078
0.633797291715004
0.640767479193036
0.647663868925754
0.654492798852553
0.66127417677243
0.668010830424903
0.674736556282724
0.681441305663149
0.688187679433389
0.694927928469145
0.701783922856813
0.708597498544247
0.715608802981117
0.72238363843078
0.72941356902209
0.735210834957586
0.743444880239999
0.751056416376932
0.760067675322403
0.766945758898673
0.769955176399359
0.767844979697473
0.759149497415375
0.745972014088861
0.722296019666515
0.684935177971072
0.61041096286869
0.461720716427537
0.153305345334346
-0.541635351942021
-0.704538457837786
-0.00165148179570836
-0.282394787604079
-0.0809138471890137
-0.0626637462749917
-0.0501460752487484
-0.0504406451417046
-0.0454591735847657
-0.0445740406708171
-0.0413398115196928
-0.0390937177803429
-0.0357218140221578
-0.032946810880881
-0.0304577938079576
-0.0293127507887157
-0.0284015494806246
-0.027653544661447
-0.0251732701216813
-0.0234346145318137
-0.0225876857856214
-0.0220828427706634
-0.0216872230990036
-0.0209090717304961
-0.0195158203035413
-0.0173449340641907
-0.0143517312165324
-0.010521134166272
-0.00587085917204024
-0.000425899556092063
0.00577863341278982
0.0127053524340257
0.0203133977292782
0.0285612104690301
0.0374055355822336
0.0468028853557989
0.0567089319821775
0.0670795564797606
0.0778708459701677
0.0890397664770772
0.100543686317114
0.112340724331805
0.12439027823035
0.136653210404812
0.149092242290189
0.161671931787429
0.174358913118506
0.187121817011354
0.199931353854715
0.212760312605222
0.225583574019937
0.238378109635196
0.251122944345877
0.263799154906454
0.276389706109838
0.28887950199748
0.301255056404295
0.313504579009044
0.325617628945084
0.337585054719963
0.349399131188247
0.361053418493746
0.372542785185775
0.383863215460678
0.395011637704759
0.405985756389496
0.416783927629987
0.427404936804284
0.437848228750631
0.44811374620974
0.458202165219562
0.468114558313813
0.477852527154604
0.487417859576566
0.4968125893999
0.506039039038782
0.515099812555715
0.523997826187197
0.532736240995209
0.54131844954541
0.549747942433368
0.558028481574827
0.566163934570255
0.574158569106052
0.58201674793125
0.589743382226909
0.5973433770377
0.604822447560534
0.612186113530778
0.61944137516006
0.62659444845093
0.633654500251311
0.640628270933662
0.647528738172787
0.654362218558923
0.661148819890419
0.667891240422594
0.674623728077148
0.681335818996198
0.688090958861294
0.694840200598991
0.701707419028687
0.708531264694873
0.715556258928573
0.722339455285848
0.729387219434511
0.735167625558873
0.743407083125677
0.75099466361239
0.759939094071897
0.766648718258822
0.76947352985928
0.767181130460592
0.75835308184631
0.744979175358033
0.720982448367259
0.68299539641777
0.607377482244154
0.457118762527272
0.147821807633213
-0.536766161410798
-0.695159588088766
-0.00227967728427863
-0.281705024323074
-0.0826933202133297
-0.0629851915497758
-0.0502431265629759
-0.050437671703022
-0.0454651158062949
-0.0445460228533374
-0.0413292021486406
-0.0390888850558324
-0.0357358597171979
-0.0329577962149543
-0.0304447315656766
-0.0292608950775883
-0.0283177679877904
-0.0275764381103919
-0.0251009106828965
-0.0233643617300194
-0.0225357008174954
-0.0220446004135901
-0.0216484461969843
-0.0208564267003459
-0.0194446551637004
-0.0172562274282917
-0.0142492327185412
-0.0104088634233294
-0.00575254909275379
-0.000304691489819827
0.00590006068204739
0.0128247428506573
0.0204288186450282
0.0286710274247464
0.0375083537061868
0.0468975329454072
0.0567944221014698
0.0671550812142498
0.0779357720769042
0.0890936075669383
0.100586082836922
0.112371445450454
0.124409207592782
0.13666032962754
0.149087622313146
0.161655720181811
0.17433132700004
0.187083133894991
0.199881902801658
0.212700465197156
0.225513735470775
0.238298710363804
0.251034431334952
0.263701986056891
0.276284342748856
0.288766408208229
0.30113469559185
0.313377417289564
0.325484135519143
0.337445692620594
0.349254348743052
0.360903642305399
0.372388417616688
0.383704636451708
0.394849209561807
0.405819830317818
0.416614852189094
0.427233056047156
0.437673876254568
0.4479372361497
0.458023790988156
0.467934593787188
0.477671234864885
0.487235499785415
0.49662942081847
0.505855313643704
0.514915773023076
0.523813704681183
0.532552262486399
0.541134839967361
0.549564933103114
0.557846309410394
0.565982838770353
0.573978797378396
0.581838554679133
0.589567031457027
0.597169146718072
0.604650642060251
0.612017058548643
0.619275438151606
0.626432020569005
0.633496041026676
0.640474259841519
0.6473797760125
0.654218898284987
0.661011963990431
0.667761558447877
0.674502415402132
0.6812236859209
0.687989756892637
0.694750455083971
0.701631849368676
0.708469374109836
0.715512417215592
0.722308785213409
0.729382628371276
0.735146652809285
0.743371216880939
0.750890629286219
0.759732489213624
0.766238455659215
0.768854484754337
0.766365717113599
0.757397296758875
0.743811082779199
0.719472454952685
0.680818549761573
0.604081938189084
0.45224553204455
0.142287059939344
-0.530691851778269
-0.684266981835042
-0.00291187300146686
-0.280713137173563
-0.0845444650733525
-0.0633557452902077
-0.0503444801372472
-0.05043517437682
-0.045471345608071
-0.0445176031861889
-0.0413186072355451
-0.0390873687705157
-0.0357603985985916
-0.0329891733657551
-0.0304568761370056
-0.0292251024685548
-0.0282146378445076
-0.0274755078265358
-0.0250160167015654
-0.0232919459604673
-0.0224880565346094
-0.0220121325424087
-0.0216117570113375
-0.0208012054931854
-0.019367833988575
-0.0171604355207844
-0.0141393170526369
-0.0102894828437559
-0.00562780688161178
-0.000177941248968784
0.00602601248390099
0.0129475639821622
0.0205465311485127
0.0287819749918519
0.0376111347504683
0.046990982075851
0.0568775679990146
0.0672271342728854
0.0779961140696008
0.089141772036306
0.100621753725753
0.11239443499426
0.124419442542606
0.13665783614641
0.149072517425285
0.161628198500148
0.174291653596182
0.187031634661303
0.199818955224597
0.21262648895989
0.225429183182244
0.238204058802036
0.250930172498556
0.263588621391937
0.276162375300528
0.288636342233035
0.300997032764272
0.313232660876664
0.325332790630572
0.337288256519687
0.349091302286006
0.360735442423227
0.372215494930659
0.383527397185786
0.394668040487976
0.405635105792679
0.416426943091371
0.427042327901972
0.437480683468235
0.447741912579672
0.457826648757686
0.467735924221459
0.47747131728486
0.487034610648618
0.496427835052188
0.505653299487562
0.514713589320311
0.523611599795651
0.532350477764544
0.540933618611676
0.549364524950261
0.557646968404171
0.565784827282487
0.573782384512412
0.581644014889536
0.589374653071369
0.596979235737118
0.604463534897213
0.61183311677693
0.619095069760857
0.626255662545415
0.633324205239893
0.640307484902652
0.647218730938354
0.654064252409985
0.660864628645909
0.667622343984422
0.674372618822149
0.681104239747668
0.687882568314518
0.694656198195247
0.701553447710028
0.708406613173354
0.71547025495906
0.72228299803222
0.729388805776428
0.735136812715516
0.743341961354081
0.750754774312602
0.759464110151422
0.765735303121922
0.768118144264934
0.765414507691102
0.756289988741598
0.742465857312899
0.71775380033603
0.678375752321907
0.600476250961176
0.447012710483083
0.136537515981055
-0.523844560356541
-0.672213818150493
-0.00347245409035578
-0.279333021884267
-0.0864715042645968
-0.06379705512663
-0.0504508591648862
-0.0504329668897927
-0.0454778429846811
-0.0444887783455291
-0.0413082061136483
-0.0390900011025626
-0.0357965726727867
-0.0330401543247212
-0.0304890278174757
-0.0291966293967971
-0.0280854418531461
-0.0273541914477583
-0.0249227403821739
-0.023224599382782
-0.0224504209156194
-0.021989029782311
-0.0215796812720249
-0.0207462163265694
-0.0192886376461116
-0.0170609739571156
-0.0140252167027128
-0.0101658637236251
-0.00549906091966573
-4.76109943867518e-05
0.00615498643443734
0.0130727518450061
0.0206658820370704
0.0288937809654771
0.0377139576689871
0.04708363403619
0.0569590642232443
0.0672966714796035
0.0780530626879073
0.0891856761302073
0.100652315859073
0.112411488377915
0.124422938074894
0.136647826767061
0.14904914967584
0.161591698580932
0.174242320137301
0.186969828501226
0.19974508975701
0.212541020347883
0.22533260068515
0.238096875680735
0.250812916766849
0.263461829887098
0.276026585439873
0.288492091847382
0.300844855779488
0.313073092225724
0.325166366189153
0.337115503030518
0.34891272900045
0.360551533103666
0.372026705630136
0.383334158151619
0.394470761065459
0.405434181811266
0.416222766055248
0.426835283039026
0.437271144381138
0.447530231446614
0.457613155439953
0.46752092673608
0.477255111129271
0.48681748764556
0.496210085322733
0.50543520647647
0.514495426961837
0.523393631615549
0.532132960458273
0.540716812479949
0.549148693343868
0.557432383792218
0.565571770222678
0.573571140358109
0.581434877267548
0.589167932140976
0.596775261093738
0.604262668678607
0.611635748991559
0.618901639702267
0.626066642165674
0.633140144968398
0.640128966334026
0.647046470096338
0.653898970463836
0.660707291732998
0.667473823833771
0.674234262348687
0.680977037237831
0.687768477141726
0.694555941820767
0.701469967841481
0.708339803722778
0.715425331828462
0.722256224595839
0.72939748418368
0.735131384368326
0.74331914393944
0.750593275891706
0.759144111708545
0.76515301415773
0.767279995285319
0.764342529836354
0.75504335572027
0.740951203030879
0.715828738628054
0.675657787472094
0.596536872897754
0.441372208926873
0.130517179324093
-0.516506629550267
-0.659242765433334
-0.00391192577221366
-0.277529229547389
-0.0884693970432438
-0.0643341096461307
-0.0505642091257085
-0.0504307774728104
-0.04548453829785
-0.0444594759981678
-0.0412981228941005
-0.039097141025737
-0.0358438261168193
-0.033107017186098
-0.0305340739714615
-0.0291681782994259
-0.027932298508488
-0.0272183411339761
-0.0248269134689886
-0.0231679275082597
-0.0224265471730746
-0.0219774456109614
-0.0215538934054871
-0.0206935695258498
-0.0192094332903438
-0.0169601712319486
-0.0139090422620628
-0.0100398252268758
-0.00536781659574426
8.51040348215801e-05
0.00628608325477702
0.0131996849228837
0.0207865088727353
0.0290063240281993
0.0378169253793084
0.0471758003794466
0.0570394107513444
0.0673643677230556
0.0781074576523656
0.0892263149422997
0.100678904989704
0.112423869648676
0.124421074858157
0.136631787499402
0.149019099624256
0.161547885164171
0.174185065636682
0.186899519222833
0.199662165952914
0.212445966073062
0.225225933742133
0.2379791382135
0.250684665751541
0.263323631053385
0.27587900462385
0.288335695035283
0.300680204133922
0.312900747742633
0.324986891144698
0.33692944954129
0.348720631088238
0.360353898235878
0.371824012713074
0.383126859355828
0.394259286523457
0.405218947244703
0.416004182024364
0.426613752838057
0.437047059293442
0.447303960682203
0.457385045638335
0.467291301856882
0.477024282271254
0.486585761264988
0.495977765871605
0.505202591744661
0.514262805117957
0.523161280499132
0.531901152213156
0.540485821532161
0.54891879758329
0.557203872658799
0.565344938261152
0.573346289151552
0.58121231834826
0.588947994746101
0.596558294917316
0.604049057356863
0.611425906012113
0.618696029506772
0.625865764461918
0.632944579610655
0.639939327308311
0.646863506560109
0.653723439664425
0.660540192870861
0.667316065479478
0.674087209343262
0.68084170082598
0.687646801695892
0.694448644490138
0.701379901551135
0.708266870279132
0.715374801145661
0.72222469903666
0.729403286388793
0.735125978879914
0.743300714588954
0.750409306095915
0.758778247979258
0.76449963536852
0.766349454986184
0.763159512502475
0.753666238408994
0.739274504339266
0.713703425710762
0.672666315448367
0.592261144574218
0.435315567532691
0.124246988434424
-0.508780047281832
-0.645498829293843
-0.0042452273216177
-0.275309075335354
-0.0905227402118672
-0.0649863417520278
-0.0506884298964123
-0.05042826522304
-0.0454912800278644
-0.0444295405023067
-0.0412883954373117
-0.039108554582004
-0.0359002239217069
-0.0331850320785709
-0.030586127413153
-0.0291362180032332
-0.0277621094057594
-0.0270750820120853
-0.024733764400286
-0.0231257395245725
-0.0224188423188805
-0.021978491935711
-0.0215354302306068
-0.0206447422715731
-0.0191318683185772
-0.016859642071969
-0.0137922648371825
-0.00991264879987775
-0.00523514787527287
0.000219339786782465
0.00641864440681954
0.0133279025731716
0.0209081403196875
0.0291195133645567
0.0379201188277776
0.0472677257621663
0.0571190010070975
0.067430756805891
0.0781599724241467
0.089264489983158
0.100702441349749
0.112432608626384
0.124414983219029
0.136610940241241
0.148983672030613
0.161498137344967
0.174121335265885
0.186822210070276
0.199571737399016
0.212342922656204
0.225110814751575
0.237852508007252
0.250547104034628
0.263175726667494
0.275721346496322
0.288168872443967
0.3005048009577
0.312717348899575
0.324796081369816
0.336731802578316
0.348516702400033
0.360144216095497
0.371609076468827
0.382907141126948
0.394035235543404
0.404990997645807
0.415772761964143
0.426379282144112
0.436809945498028
0.44706458878809
0.457143778122407
0.46704847786773
0.476780227942141
0.486340796979402
0.495732209593482
0.504956754799996
0.514016989073524
0.522915776809017
0.531656248971457
0.540241803618021
0.548675959628651
0.556962517278495
0.565105373116075
0.573108830955682
0.580977294488167
0.588715751005363
0.596329198202876
0.603823509314546
0.611204339518954
0.618478929048446
0.625653651570117
0.632738056039845
0.639739030818244
0.646670208126167
0.653537920025832
0.660363466870672
0.667149059748033
0.673931280783639
0.68069785563352
0.687516924609157
0.69433340945588
0.701281998059231
0.708186148930725
0.715316445570439
0.722185564733702
0.729402217981232
0.735116815831008
0.743284307739237
0.750204607976176
0.758370245161432
0.763780425450339
0.765332588613639
0.761871581746459
0.752163945642816
0.737440223422586
0.711382220616202
0.669404916058131
0.587655591803837
0.428856268086233
0.117775959444851
-0.500651934783485
-0.631093185565871
-0.00447550990068888
-0.272651151235515
-0.0926146950085112
-0.0657530146236437
-0.050829821831258
-0.0504250991442738
-0.0454978165556882
-0.0443987495431228
-0.0412789376619215
-0.0391234371251272
-0.0359631855149495
-0.0332699531126689
-0.0306414892886682
-0.0291005269975148
-0.0275837281191505
-0.0269313983036081
-0.0246473130505579
-0.023100803039658
-0.022428729309667
-0.0219925357316749
-0.0215249076535418
-0.0206007774745928
-0.019057143981686
-0.0167605925582835
-0.0136760052976736
-0.00978532705419226
-0.00510189736808033
0.000354412007105152
0.00655214548017767
0.0134570378706541
0.0210305629135377
0.0292332841116934
0.0380236163092392
0.0473596255087606
0.0571981784562154
0.0674963022281388
0.0782111903871642
0.08930089497376
0.100723721891009
0.112438597832085
0.124405643552016
0.136586345605469
0.148944000206058
0.161443653706095
0.174052385653415
0.186739208678245
0.199475155904549
0.21223327950925
0.224988664446385
0.237718431159527
0.250401697497306
0.263019597208762
0.275555101347414
0.287993119810266
0.300320143376924
0.312524390522152
0.324595425875193
0.33652404196933
0.348302410585473
0.359923939537035
0.371383332781923
0.382676420609183
0.393800005026157
0.404751708375699
0.415529858431907
0.426133199364931
0.43656110599263
0.446813392255915
0.456890602052467
0.466793675935393
0.476524140851128
0.486083758444055
0.495474550396115
0.50469879911689
0.513759051089266
0.522658162114415
0.531399258006455
0.539985734836956
0.54842112167117
0.556709224008239
0.564853944767417
0.572859597824916
0.580730597977071
0.588471951362921
0.596088677118713
0.603586683410804
0.610971657510635
0.618250891014455
0.625430795720696
0.632520999474183
0.639528427631485
0.646466841282182
0.653342583001539
0.660177175133185
0.66697274228602
0.673766264107747
0.680545120283321
0.687378257156373
0.694209413184235
0.701175138446546
0.708096186207428
0.71524835872936
0.722136412590307
0.729390927388271
0.735100410278084
0.743267362703416
0.749980035188118
0.757922656764027
0.76299910257541
0.764233646954583
0.760482878840036
0.750539643737269
0.735450623029231
0.708866979308141
0.665875739230589
0.582728189928126
0.422015886844986
0.11115758317952
-0.492078192405721
-0.616136178877687
-0.00455756753001444
-0.269485836969284
-0.0947257711106327
-0.06660319177054
-0.0509970002485734
-0.0504211053987354
-0.0455038036894409
-0.0443668283065309
-0.0412694884833886
-0.0391405844004204
-0.0360301442356613
-0.0333585669366327
-0.0306983716254617
-0.029063064462826
-0.0274064455860152
-0.0267933906649793
-0.0245707492756581
-0.0230952786963495
-0.0224567217128348
-0.022019472538857
-0.0215226860741974
-0.020562438459631
-0.0189861812362395
-0.016663973285579