/*--------------------------------*- C++ -*----------------------------------*\
  =========                 |
  \\      /  F ield         | OpenFOAM: The Open Source CFD Toolbox
   \\    /   O peration     | Website:  https://openfoam.org
    \\  /    A nd           | Version:  7
     \\/     M anipulation  |
\*---------------------------------------------------------------------------*/
FoamFile
{
    version     2.0;
    format      ascii;
    class       volScalarField;
    location    "20000";
    object      Pk_bouss;
}
// * * * * * * * * * * * * * * * * * * * * * * * * * * * * * * * * * * * * * //

dimensions      [0 2 -3 0 0 0 0];

internalField   nonuniform List<scalar> 
15600
(
2.76629945263572e-08
3.38147174771307e-12
3.42549934929348e-09
3.24094484046828e-10
5.66629026476731e-12
3.21763470089011e-12
1.04604730483909e-11
1.8501363355634e-11
5.69449269809261e-11
1.12574178409931e-10
1.86724260693656e-10
1.58696977635111e-10
3.05211635781651e-11
6.2445925653111e-11
3.36946872945151e-10
1.83142036060521e-10
6.61798588384544e-11
3.91784301474305e-11
1.5343454353884e-11
8.30974568974543e-10
4.96693042033115e-09
1.64419097932158e-08
3.92543685995757e-08
7.64393416030449e-08
1.29599556723747e-07
1.99279422889401e-07
2.85023714204967e-07
3.85644857626777e-07
4.99255011555725e-07
6.23472053939349e-07
7.55498236695179e-07
8.92287760428383e-07
1.03065251970688e-06
1.1674254823294e-06
1.29956718001933e-06
1.4243062701153e-06
1.53921528069201e-06
1.64230415092226e-06
1.73218559923713e-06
1.80836334882391e-06
1.86916025693034e-06
1.91310420285405e-06
1.94002905787694e-06
1.95036056207282e-06
1.9448650140929e-06
1.9245794295649e-06
1.89076177033682e-06
1.84483119044885e-06
1.78831342384274e-06
1.72278806697529e-06
1.64983982695473e-06
1.57101499946387e-06
1.48778419827006e-06
1.40151762368654e-06
1.31346061529162e-06
1.22473668624415e-06
1.13633934829224e-06
1.04915931948831e-06
9.63981828933878e-07
8.81468400839615e-07
8.02155293652175e-07
7.26449061095309e-07
6.54640651275317e-07
5.86923728448863e-07
5.23414162160929e-07
4.64175131322746e-07
4.09231433478447e-07
3.58564623227435e-07
3.12112432184595e-07
2.69766092469497e-07
2.31382556078523e-07
1.96792420751802e-07
1.65817505362149e-07
1.38272597497916e-07
1.13963748638518e-07
9.26897530699764e-08
7.42433002639857e-08
5.84142671034825e-08
4.49946925328249e-08
3.37797350228063e-08
2.45689364225695e-08
1.71639662206002e-08
1.1370871690898e-08
6.99787262467241e-09
3.85978223702914e-09
1.77358722583565e-09
5.62671857706923e-10
5.27930448977118e-11
7.51791135229164e-11
4.66009329940291e-10
1.06633688747381e-09
1.73152502111488e-09
2.31938475080402e-09
2.72760138669964e-09
2.84835809071824e-09
2.67681583006873e-09
2.18129273502534e-09
1.50068409525092e-09
7.12894390575761e-10
1.56176309111454e-10
3.12300162661869e-11
5.00193246197963e-10
1.59643407808938e-09
2.29130468758981e-09
6.29734039327847e-09
1.32344184167301e-08
1.09423144706506e-08
3.22832528732643e-09
2.63762953897595e-09
2.88244008684909e-08
7.87899579612107e-08
1.22164179579272e-07
1.57747603198509e-07
1.82200843183907e-07
2.35562284709045e-07
3.62213109909158e-07
8.75850634440632e-07
4.45872437656817e-06
8.06438971226058e-06
1.94425232989096e-07
1.22615574597308e-07
3.26261280315157e-09
5.19274644164591e-07
5.88738575357026e-08
1.25695173903499e-09
6.06525301273545e-10
1.87515112854625e-09
3.45981847484414e-09
1.00485906055625e-08
1.97164733147401e-08
3.20994760307204e-08
2.98202594867709e-08
1.06824942765819e-08
2.72706611961512e-09
2.81619908035689e-08
1.87520592401608e-08
4.94404541880652e-09
3.3217124681529e-10
4.45746602202242e-08
3.81636665950094e-07
1.51982896495376e-06
4.10246164059819e-06
8.63502611191124e-06
1.53992855975294e-05
2.44548803869756e-05
3.57188798540604e-05
4.89895417480628e-05
6.39849446216935e-05
8.03534506027054e-05
9.77019714555765e-05
0.000115609051126413
0.000133646717153542
0.000151393893760567
0.00016845514950644
0.000184471438130425
0.000199133443755477
0.000212187394515298
0.000223443134215427
0.00023279148505665
0.000240234873024018
0.000245579461004331
0.00024871788535298
0.00024971853355004
0.000248686945416202
0.000245762647770768
0.000241110634848978
0.000234915005239475
0.000227372099480734
0.000218684328652729
0.000209054520113137
0.000198680801355456
0.000187752392135817
0.000176445906656532
0.000164923405197659
0.00015333024140259
0.000141795864674308
0.00013043359161754
0.00011934296411318
0.000108609806229741
9.83047679582819e-05
8.84835221643499e-05
7.91869172307161e-05
7.04427318994511e-05
6.22678190292895e-05
5.46703741351197e-05
4.76522616611113e-05
4.121042303711e-05
3.53365407505806e-05
3.00172454071145e-05
2.52341922329522e-05
2.09654122346176e-05
1.71863069419449e-05
1.38711217338688e-05
1.09931461261981e-05
8.52467286316535e-06
6.43722386029139e-06
4.70179369351062e-06
3.28924165519529e-06
2.17069494029043e-06
1.31760279278813e-06
7.01789731219249e-07
2.95368691820964e-07
7.08469998584856e-08
1.09893510935248e-09
5.94206722269692e-08
2.19465840466711e-07
4.55120806316852e-07
7.40695152520976e-07
1.05042721241596e-06
1.35967520737839e-06
1.64313188236441e-06
1.87869481689369e-06
2.042364641648e-06
2.11867638364728e-06
2.0875515540219e-06
1.95317938430735e-06
1.71000884546925e-06
1.38431073277932e-06
9.84250907931339e-07
5.9255331268366e-07
2.45087436715359e-07
4.79275466988953e-08
1.24857371354883e-08
1.07985212156476e-07
4.86124081227834e-07
8.70034502744754e-07
4.89053865838222e-07
3.61281831170339e-08
1.22129206200226e-06
5.59750943594957e-06
1.27360478199243e-05
1.9034734686031e-05
2.44147482725537e-05
2.81926405814358e-05
3.61814244019542e-05
5.45742219389781e-05
0.000128184069115347
0.000587821699517134
0.00100810197115263
6.87473727572918e-05
6.00122458561513e-05
2.63353294672769e-07
8.78939156983765e-06
1.23089369228961e-06
3.09510379828855e-08
1.32641858239764e-08
3.89537643429098e-08
7.48038809457508e-08
2.04933239753539e-07
3.97898188448423e-07
6.36785430994919e-07
6.49350537485263e-07
3.67201315426607e-07
5.60843819854372e-08
1.36761917230892e-07
1.51184534210898e-07
1.82147984405941e-08
2.5818542445208e-07
3.04223770377319e-06
1.49271741357127e-05
4.56920271176615e-05
0.000103757219050051
0.000192566469771915
0.000311215410986412
0.000456105373079389
0.000622492019108397
0.000805011128185524
0.000998151085313239
0.0011964008008137
0.00139452474676139
0.00158766088319034
0.00177147446429128
0.00194220819969955
0.00209676864078197
0.00223272579423347
0.00234833522491087
0.00244250314975214
0.00251477157210191
0.00256540457483668
0.0025953282375334
0.00260280692718831
0.00258959660856666
0.00255724031291375
0.00250748560676194
0.00244222026368793
0.00236340923794532
0.00227304852290413
0.00217312092397562
0.00206555833136864
0.00195220991473347
0.00183481505814851
0.00171498384374344
0.00159418059735918
0.00147371974207124
0.00135475985220049
0.0012383150266859
0.00112526021352582
0.00101634514787672
0.000912197517333871
0.00081331837162291
0.000720087348906637
0.000632769396586837
0.000551529354096599
0.00047644837562432
0.00040754030591799
0.000344765326291462
0.000288037639477903
0.000237225229658088
0.000192153249102157
0.000152608330875324
0.000118348148225821
8.91094598676026e-05
6.46154022812413e-05
4.45766134121009e-05
2.86925463356217e-05
1.66537644372498e-05
8.1447925455699e-06
2.84694518335806e-06
4.39946976441666e-07
6.01805306109781e-07
3.00879522223467e-06
7.3355983555989e-06
1.32553350414236e-05
2.04387248002898e-05
2.85545798120979e-05
3.72646315230309e-05
4.62273831004777e-05
5.50941052998193e-05
6.35032681882231e-05
7.10976186028281e-05
7.7495786686919e-05
8.23442492593357e-05
8.52479589071731e-05
8.59054559917337e-05
8.39413621034944e-05
7.93217285239091e-05
7.19601558569833e-05
6.20742488772127e-05
4.97355905771134e-05
3.62704940178111e-05
2.2513850639321e-05
1.11359407033948e-05
3.17632089758989e-06
2.14456128561109e-07
1.44361538354119e-06
1.15883422544897e-06
5.37296122393224e-07
9.0222404415644e-06
4.51582384461581e-05
0.000119119320787946
0.000226951630359383
0.00032789579683289
0.000420340610025916
0.000488281317240063
0.000622485892028578
0.000915934130176112
0.00206079909560413
0.00818194654674301
0.0131587251712613
0.00202307156492807
0.0021319446535306
6.59490412136606e-06
5.32773632161194e-05
9.52371102467532e-06
2.75380313072056e-07
1.07629189668283e-07
2.99936342208192e-07
5.96263396094727e-07
1.54041118078583e-06
2.94704380928227e-06
4.64738143349133e-06
5.21494056361116e-06
4.21333050881077e-06
2.07651451624681e-06
3.05124714391231e-07
1.18089733286678e-07
3.52521997707004e-07
7.86955601481673e-06
4.69712467996174e-05
0.000162522277624781
0.000391012764711937
0.000733597956213638
0.00116364945169671
0.00164665176827454
0.00215213543076036
0.00265632552909815
0.00314116163273668
0.00359331217159055
0.00400312433926115
0.00436409001166731
0.00467220908660861
0.00492559677534782
0.00512404014271666
0.00526870454210357
0.00536179246415764
0.00540631193438104
0.00540585868419251
0.00536450793477974
0.00528760334080231
0.00517544987682702
0.00503373824580573
0.00486676194319587
0.00467861977151113
0.00447319323190242
0.00425412220632681
0.00402478748902339
0.00378830338629072
0.00354751477751148
0.00330499720024318
0.00306306146764939
0.00282376045624339
0.00258890020291293
0.00236005129809563
0.0021385662633532
0.00192559472456542
0.00172210386666449
0.00152889514034489
0.00134661467799222
0.00117576165186532
0.00101669552701026
0.000869648516799923
0.0007347403426219
0.000611993315590824
0.000501346893429144
0.000402669828092805
0.00031576749287787
0.000240384806965116
0.000176209660963873
0.000122878709288162
7.99855233825344e-05
4.70872316729429e-05
2.37100762650255e-05
9.35159020050372e-06
3.48141911897568e-06
5.54394323308343e-06
1.49610229611393e-05
3.1134069137258e-05
5.34435600791298e-05
8.12462311395004e-05
0.000113873707204069
0.000150632715250921
0.000190801089689046
0.000233627215325259
0.000278314769360852
0.00032404981971131
0.00036993523683519
0.000415031444225175
0.000458320659147976
0.00049871800719992
0.000535035381365883
0.000566004546808953
0.000590218921528372
0.000606195404493313
0.000612288039918525
0.000606819321934447
0.000588127701146739
0.000555402828931126
0.000507172019232655
0.000442839903120147
0.000363523093325267
0.00027257542996106
0.000178936835320862
9.30456696382125e-05
2.90629422681931e-05
6.53828866894057e-06
2.46933432351718e-05
7.70567090821466e-05
0.000194329773186681
0.000407755857216581
0.00076188033663508
0.00126621860509411
0.00182040379932613
0.00240398275952455
0.00288893437947792
0.00371926886820714
0.00535538954203668
0.0113759216015029
0.0370333735141355
0.0546769527612408
0.0164501038063257
0.0189382768764211
8.81168830057151e-05
0.000183446052310489
4.34744767864408e-05
1.41603323472842e-06
5.1481907534409e-07
1.36089464296892e-06
2.77831107355057e-06
6.75867486822944e-06
1.26476893621993e-05
1.96293972567571e-05
2.39839546565713e-05
2.50155731286163e-05
2.14544044128778e-05
1.05435786201534e-05
1.05088527001071e-06
8.5181185677294e-06
7.5152397425852e-05
0.000291657843468417
0.000731937393604391
0.00135163836240274
0.00202451719125291
0.00265085710530496
0.00318298010161514
0.00361003708952383
0.0039365517562687
0.00417248814507098
0.00432900271121354
0.00441702864706277
0.00444670406850269
0.00442719618078216
0.00436667644200797
0.00427236858804575
0.00415061144518626
0.00400693536451782
0.00384615216552845
0.00367251969663429
0.00349026276666665
0.00330187942574066
0.00310920270047459
0.00291450905068798
0.0027197169320567
0.00252645348799659
0.00233610397021949
0.00214984475654432
0.00196867254032225
0.0017934260253039
0.0016248063496791
0.00146339330726963
0.00130966090631266
0.00116399107978909
0.00102668568014982
0.000897977271710807
0.000778037347951785
0.000666983995912541
0.000564886443488348
0.000471770415470185
0.000387620964471129
0.000312388006700231
0.000245990708119901
0.00018832236839144
0.000139253960931085
9.86348129110271e-05
6.62933181257282e-05
4.20365586932734e-05
2.56516644569818e-05
1.69088611010573e-05
1.55637662659813e-05
2.13590618311186e-05
3.40231973206475e-05
5.32692609703711e-05
7.87917062367631e-05
0.000110268049195091
0.000147362358466072
0.000189723495665374
0.000236985327809776
0.000288762695511141
0.000344645027422942
0.000404192794518425
0.000466936382388042
0.000532378494212433
0.000599975790138085
0.0006691636384847
0.000739317062391274
0.000809757676061907
0.00087971836125169
0.000948389480857647
0.00101480622498546
0.00107798257863866
0.00113666033406259
0.00118962885967185
0.00123516305281282
0.00127178629279647
0.00129699260282144
0.00130902223237588
0.00130396845346095
0.00128059426807418
0.00123277351881923
0.00115930119668359
0.00105001648074864
0.000907048661352763
0.000720142589931812
0.000507000213054789
0.00026438882414976
0.000161007570159282
0.000306113285879746
0.000525263171705201
0.000874654151680725
0.00130600855002599
0.00198612420167963
0.00301533868444109
0.00448256951368218
0.00640750588149241
0.00842190628888113
0.0114252096207223
0.0164606001460883
0.0326676368614856
0.0821134785524045
0.10981690244257
0.060221563989529
0.0752099349288128
0.000720121497425909
0.000439390869566936
0.000143929244563797
5.20472129722261e-06
1.78574332996181e-06
4.47316015865091e-06
9.27001248059379e-06
2.11233466908839e-05
3.81236061654257e-05
5.75110672859857e-05
7.40434871059963e-05
8.94934122814525e-05
9.770374911242e-05
7.48485915324621e-05
2.25282092879845e-05
6.72518519730236e-05
0.000336775211782286
0.000897134965261025
0.00164236359040821
0.00231455364764668
0.00275510275872665
0.00297551700725783
0.00304146963946958
0.00301239270319508
0.00292653311940782
0.0028072257565206
0.00266850622684731
0.00251921466677295
0.00236501850973395
0.00220969648564912
0.00205580193981022
0.00190511036720009
0.00175885401369195
0.00161789945373352
0.0014828693627792
0.0013543057808896
0.00123263953612105
0.00111726262311699
0.00100809269414703
0.000905245132157565
0.000808684005195599
0.000718348935377949
0.000634161253177659
0.000556029945154353
0.000483855245031959
0.000417531310187957
0.000356948976577287
0.000301997170620666
0.000252564946910413
0.000208542932151618
0.000169823620731495
0.000136301482761828
0.000107871514192414
8.44273234799215e-05
6.58600882733227e-05
5.20573807788783e-05
4.29077035827587e-05
3.83043792138375e-05
3.81434007312901e-05
4.23221551079929e-05
5.07354201971278e-05
6.32718437639754e-05
7.98123963909368e-05
0.000100229268478129
0.000124389531807475
0.0001521614367389
0.0001834146559307
0.000218018131696287
0.000255832933818041
0.000296710484839091
0.000340488348831199
0.00038699597154266
0.000436060887321385
0.000487504375102737
0.000541140406620021
0.000596769677434108
0.000654171726984043
0.000713106340968614
0.0007733138350029
0.000834512220361137
0.000896402879349488
0.000958674071610408
0.00102096304657023
0.00108289959519458
0.00114402087987364
0.00120388098036539
0.00126188198200823
0.00131750681326669
0.00136994237849013
0.00141861814520936
0.00146234979739277
0.00150059962294029
0.00153148803857996
0.00155473964506173
0.00156709293013233
0.00156956024575023
0.00155555760017416
0.0015277315197697
0.00147069875526115
0.00139000502653261
0.00125036124772988
0.001064591225498
0.000742904360949975
0.000604549124379303
0.000830501439584167
0.00117843092190525
0.00167724344439995
0.00213461179851584
0.00280278079974187
0.00386483692319663
0.00583655031452364
0.00912497250413072
0.0136395248674297
0.0204244460530133
0.0305331406395809
0.0564747069520094
0.103569061215825
0.121155837138212
0.126517417109397
0.169962402148004
0.00376509399149275
0.000803272779413401
0.000381097321932681
1.52442903201497e-05
4.98759314988018e-06
1.18031602177712e-05
2.44304849572224e-05
5.1526152429737e-05
8.75356107839384e-05
0.000124893014539737
0.000161745890920545
0.000207384822218543
0.000248204496959728
0.000228806977614447
0.000123711468873929
0.000262850521104097
0.000846765428476749
0.00162231901846955
0.00224173319126356
0.00248257048204951
0.00241854037978263
0.00221770886878694
0.00198147069923522
0.00175279032197391
0.00154445953412745
0.00135845970547364
0.00119317413225431
0.00104631092849088
0.00091563068546619
0.000799213312921519
0.000695440248123291
0.000602972854703021
0.000520686162819675
0.000447631377031102
0.00038300718868924
0.0003261452645603
0.000276250448966549
0.000232532307086722
0.000194553671411371
0.000161899954168375
0.000134161782792121
0.000110975504412742
9.2015600045579e-05
7.69911181579467e-05
6.5641164224382e-05
5.77324766812236e-05
5.30575198097021e-05
5.14322490487663e-05
5.26944960464213e-05
5.67020294606868e-05
6.33298234391959e-05
7.24671277527723e-05
8.401439617448e-05
9.78791488832337e-05
0.000113975183237297
0.000132219628360561
0.000152537999333862
0.000174868613834895
0.000199158190137715
0.000225357630391155
0.000253415426804627
0.00028327354687894
0.000314866726904752
0.000348122227056582
0.0003829648640675
0.000419325508096747
0.000457141294542657
0.000496351020952569
0.000536885243194937
0.000578664707762832
0.000621595822492839
0.000665578941070214
0.000710517869268195
0.000756314203900297
0.000802865623019118
0.000850059124032917
0.000897761065825447
0.000945822617930084
0.000994075997476789
0.00104234547957478
0.00109044965490646
0.00113821234859612
0.0011854093666666
0.00123182499533756
0.00127716124496608
0.00132117143750611
0.00136347250141195
0.00140381953511303
0.00144168943520519
0.00147690363718564
0.00150868924886746
0.00153711477962634
0.00156092052587077
0.00158085840390312
0.0015946168753677
0.00160513781969995
0.00160744428311909
0.00160784652372413
0.00159305595282108
0.00157518185403929
0.00151564103866811
0.00143225441607529
0.00117392045958103
0.00110790684301968
0.00131005461332774
0.00172120726101129
0.0022837119418533
0.0026812703364965
0.00314081829627242
0.00383049616249375
0.00542862786823695
0.00865637641015098
0.014161024570639
0.0233307404304966
0.0367305953832174
0.0633042439069385
0.0810949158898634
0.0704417124108234
0.179343189916989
0.262559894822436
0.0131527916033403
0.00115520555505241
0.000843340446846693
3.7760817841209e-05
1.18793610992331e-05
2.63864853433575e-05
5.33718950571594e-05
0.000102088612584422
0.000157938022692536
0.00020654569435494
0.000261908491187195
0.000344347667405704
0.000430376684158784
0.000433073522460043
0.000352928542193654
0.000619666647931615
0.00141260683053992
0.00206542903621555
0.00225796334879178
0.0020515600620318
0.00170251985267652
0.00136813880827911
0.00109025971785918
0.000868211529008938
0.000691089567355513
0.000548701287874888
0.000433228878938139
0.0003390717717562
0.00026217836117596
0.000199574760974384
0.000149010644234169
0.0001087429093807
7.73774714674909e-05
5.377031123238e-05
3.69585020762101e-05
2.60989896249445e-05
2.04124377618433e-05
1.92758322638032e-05
2.21575300532454e-05
2.85700558823804e-05
3.80798175500942e-05
5.03065010780151e-05
6.49158508851007e-05
8.16152023118088e-05
0.000100148526585846
0.00012029333083844
0.000141858553504578
0.00016468201528598
0.000188628011261181
0.000213584552891574
0.000239459941462289
0.00026617883290026
0.000293679418661163
0.000321908705306711
0.000350822574231502
0.000380381149937553
0.000410552452862873
0.000441319042813047
0.000472673297412043
0.00050461117373849
0.00053712437909069
0.00057019572643483
0.000603799416145534
0.00063790075071597
0.00067246116994997
0.000707449505417246
0.00074284381093934
0.000778625171546033
0.000814765450455557
0.000851225529171183
0.000887948965766104
0.000924871617909056
0.000961936268299659
0.000999085998049098
0.00103626217236588
0.00107339685198644
0.00111039939535735
0.00114716279568781
0.00118355541302856
0.00121946178295366
0.00125476303696251
0.00128935274387407
0.00132307302318364
0.00135578432970901
0.00138727225954487
0.00141739052731871
0.00144586838448176
0.00147260184965805
0.00149722746541041
0.00151977399703306
0.00153971042633202
0.00155743171346515
0.00157207649767583
0.00158496204770235
0.00159445008058129
0.00160450423679253
0.00161167241716238
0.00162436982694789
0.00163226285682549
0.00165185666348723
0.00164921437298875
0.00164982085032232
0.00148150845185735
0.00151597412464778
0.00170683626500174
0.00217995607426632
0.00280285330392971
0.00318061252347906
0.00347552109756671
0.00382199397936192
0.00485003380604598
0.00725358535820061
0.0118617104486892
0.0201687568561528
0.0322770132277941
0.0514107014560699
0.0458195803910662
0.0160903134151729
0.19295878820348
0.31605264444078
0.0326623611721688
0.00127144146034438
0.0015835229105125
8.16333742107965e-05
2.49147719501188e-05
5.13603709039946e-05
9.87904739292941e-05
0.000166898710991532
0.000228002443822653
0.000270740917322333
0.000341871656849353
0.000466737704180477
0.00060559495156351
0.000644876072037852
0.000667992838531097
0.0010374958555333
0.00181340722596276
0.00212855410783679
0.00192412834179505
0.00149950671808337
0.00110020970255336
0.000792730062871666
0.000567077461924491
0.000402054576228235
0.000280286666112124
0.000189873313586756
0.000122919174207439
7.41324801906497e-05
3.98379144057466e-05
1.73786601246766e-05
4.7605150412258e-06
4.30270161003023e-07
3.13087403088192e-06
1.18090728596006e-05
2.55550863421358e-05
4.35925432375193e-05
6.52908961469579e-05
9.00780127103578e-05
0.000117408861149059
0.00014679886059355
0.00017783110826165
0.000210142654279255
0.000243418505162902
0.000277387465996376
0.000311817746771463
0.000346513251090931
0.000381311912878281
0.000416083181587108
0.000450725182618841
0.000485161584122512
0.000519337866977278
0.000553216723144243
0.0005867758779302
0.000620002852995047
0.000652895782464574
0.000685456195107975
0.000717690081954962
0.000749618497551759
0.000781273492250234
0.000812690063876423
0.00084389740254676
0.000874913204095738
0.000905744754253377
0.000936387590299529
0.000966829401774777
0.000997065167707741
0.00102710199459887
0.00105695197922621
0.00108661736432268
0.0011160882475022
0.00114533284583307
0.0011743073764274
0.00120297784555027
0.0012313126828272
0.00125928070977294
0.00128684267414038
0.00131393317471648
0.00134045888513731
0.00136631477087143
0.00139142002031375
0.00141569774638776
0.00143907489150997
0.0014614324805813
0.00148267310149837
0.00150262961978481
0.00152121204694101
0.00153821537126761
0.00155361747051733
0.00156715359039206
0.00157897671634211
0.00158871433249564
0.00159696243986765
0.00160313766870312
0.00160891329503089
0.00161315719091536
0.00162044885645237
0.00162854007552947
0.00164714188348819
0.00166844954029407
0.0017115816410108
0.00174814550816996
0.00180981338251225
0.00172007165267198
0.00184076198046587
0.00206260662788257
0.00261459261429902
0.00331957432268343
0.00373432903704248
0.00395402671925344
0.00409975359355946
0.00473038449820367
0.00643533904888734
0.00983960404138596
0.016131412388055
0.0247473308288486
0.0363583095719701
0.0264033898671763
0.000717243282089807
0.170418006044869
0.341509562401381
0.0620360957386323
0.000951151894300491
0.00253418152205183
0.00015600574730017
4.67802708184923e-05
8.80517829128441e-05
0.00015630325955081
0.000227569888805458
0.000271340844401438
0.000301152262489941
0.000396008752668648
0.000571148181073767
0.000767258760072821
0.000855336537499761
0.000990183519905082
0.00139540520863898
0.00197887802418086
0.00193816661542832
0.0015112834128751
0.0010555278559628
0.000709959020636955
0.000471327483466815
0.00030935568866623
0.000199433402798231
0.000125391014000366
7.69656873522733e-05
4.76638341599813e-05
3.31727934955647e-05
3.04955621685414e-05
3.74306885093506e-05
5.23019109524645e-05
7.3771890502322e-05
0.000100727672556372
0.00013220797888288
0.000167363324358001
0.000205520381021966
0.00024610905640779
0.000288578337321413
0.000332383281901149
0.000377045661360693
0.000422160564263873
0.000467379583021349
0.000512405024699452
0.00055698589338028
0.000600913862752621
0.00064401844823645
0.000686165833583167
0.000727256324291566
0.000767221048562207
0.000806018549704406
0.000843630810212359
0.000880058011805851
0.000915317167608251
0.000949436141330862
0.000982455168015658
0.00101441597362272
0.00104535931231514
0.00107534131808006
0.00110443084614597
0.00113269960284501
0.00116021252400927
0.00118702048214171
0.00121316201014155
0.00123865996912186
0.00126352316732832
0.00128776660548781
0.00131142066556758
0.00133452359601735
0.00135710371709378
0.00137917638113919
0.00140072935189999
0.00142173174825749
0.00144216508311251
0.00146201541916329
0.00148127157423138
0.00149991583975956
0.00151789616779024
0.00153512474867856
0.00155151613228504
0.00156702133994143
0.00158158139654081
0.00159514464788142
0.00160761792558172
0.00161892995442727
0.00162894338103876
0.001637603359291
0.0016447483829685
0.00165041017845926
0.00165439382796835
0.00165693798920175
0.00165778903478928
0.00165768745661098
0.00165626925514336
0.00165547058069272
0.00165459234525813
0.00165862839947931
0.00166634176948754
0.00168836149517842
0.00171897672160568
0.0017789655619954
0.00184490333689949
0.0019533042197697
0.0019286475878845
0.0021172346765603
0.00239991868493767
0.00304874831138411
0.00385743362333479
0.00435178088467909
0.00456582667107111
0.00462644004234641
0.00504527615167242
0.00635483847826863
0.00895251466221323
0.0137847234045219
0.0197059769101018
0.0279213101003608
0.0244192378915702
0.0121920400591474
0.129233873217191
0.341038816868944
0.0964242093416443
0.000400474492077828
0.00349144371816366
0.00026368651894632
7.91065890696963e-05
0.000133318081893725
0.000212655140650673
0.000263659487913019
0.000279179795239826
0.000306284487885598
0.00043509586875119
0.000663736103237226
0.000917220894172993
0.0010617089193189
0.00127163209943438
0.00163083503716209
0.00194672772877264
0.00164588808379441
0.00115611242405428
0.000757430195670967
0.000490020728748357
0.000319193402410376
0.000212353341722265
0.000147539741459533
0.000111569020840369
9.62438295693801e-05
9.64905979052565e-05
0.000108885617109586
0.000131001636914296
0.000160998688545171
0.000197443893983837
0.00023915795208833
0.000285126241853419
0.000334445273400642
0.000386312173488217
0.000440115009576066
0.000495302365473695
0.000551332389915036
0.000607657058142457
0.000663796510394904
0.000719349150654081
0.000773974817837411
0.000827388331866291
0.000879355291530148
0.000929688127217396
0.0009782396622728
0.00102490245407054
0.00106960614835156
0.00111231365085454
0.00115301750411317
0.0011917356720954
0.00122850563056831
0.00126338397499853
0.00129643943392004
0.00132775514606386
0.00135741297518055
0.00138548651655482
0.0014120650591737
0.00143725310230768
0.0014611585492968
0.00148388222935958
0.00150550846382922
0.00152610732945074
0.00154572843402439
0.00156439897504767
0.00158215031085279
0.00159903289636141
0.00161510893744795
0.00163043129013343
0.00164503954986229
0.00165893910578295
0.00167210777465241
0.00168453821290237
0.00169622992657317
0.00170718798591032
0.00171741275493504
0.00172685307874485
0.00173543315206359
0.00174308669753642
0.00174978205945903
0.00175547038919214
0.00176011523399492
0.00176364250495957
0.00176599885954259
0.00176706748982574
0.00176681757071563
0.00176511963450591
0.00176204482767831
0.00175745354787408
0.00175165087925332
0.00174448242248155
0.00173680588247186
0.00172844725671709
0.00172156107490101
0.0017158387751402
0.00171660927853677
0.00172350593910932
0.00174789385644437
0.00178582810090931
0.00185923365937347
0.00194888583294324
0.00209530758689445
0.00212509705400308
0.00236700038444772
0.0027281478406135
0.00348927135542982
0.0044191304526567
0.00502231635929038
0.00527965194348511
0.0053368700414525
0.00567933505589118
0.00683821355904558
0.00905159771644962
0.013277958700211
0.0180520995537332
0.0267261124242042
0.0327320608432023
0.031265722924899
0.0865181217218873
0.313566521849643
0.128992619908734
0.000880641827291615
0.00423657284143445
0.000392712175828502
0.000120354395238245
0.000178246622592944
0.000251413104555662
0.000267419234045701
0.00026202837451042
0.000300697327010639
0.000467308311778217
0.000747138371197053
0.00105515555506269
0.00125738160005005
0.00148841636146948
0.00173325870577414
0.00178936307638278
0.00135167730742317
0.000894657061231605
0.000578431487402176
0.000385133050499688
0.000272054081760287
0.000210627815893654
0.000182664208382829
0.000177866380680765
0.00018981506896169
0.000214600920710959
0.000249494489503877
0.000292494510683995
0.000342020304283088
0.000396810216978061
0.000455790785172656
0.000518006458151935
0.00058258081827239
0.000648739956208853
0.000715890942603713
0.000783489300524134
0.000850993934461705
0.000917847095478464
0.000983558774302382
0.00104772351385302
0.00111000419499328
0.00117012424021935
0.00122786294075645
0.00128305136947211
0.0013355638729696
0.00138531799603335
0.00143227170875403
0.00147641897926871
0.00151778599476661
0.00155642670994803
0.00159241622208513
0.00162585155770813
0.00165684344014386
0.00168551948047538
0.00171200247832958
0.00173639771590764
0.00175882647802269
0.00177942860114053
0.00179834854869252
0.0018157240885455
0.00183167422682922
0.00184630198032179
0.00185968437379308
0.0018718654754583
0.00188289049017154
0.00189282793617549
0.00190176301600527
0.00190977287389471
0.00191692177951002
0.00192323242302147
0.0019286886759553
0.00193329155151895
0.0019370515012714
0.00193998793463187
0.00194211261400024
0.00194337662970163
0.00194371887175627
0.00194309166031693
0.0019414682657809
0.00193880752254996
0.00193508488044966
0.00193024172223669
0.0019242382286914
0.00191697295543257
0.00190843289868653
0.00189851444411042
0.0018873203675024
0.00187475887184322
0.00186119148951128
0.00184655310396409
0.00183180500293042
0.00181694806949599
0.00180433285367877
0.0017940148400853
0.0017916268164918
0.0017975704230483
0.00182384836230041
0.00186803363346664
0.00195290550904977
0.00206272486478502
0.00224153731198193
0.00231758150212014
0.00260179087863931
0.00305103196701312
0.0039369514394959
0.00500142107267505
0.00573346912592658
0.0060700032888849
0.00618469188070164
0.00654875307032467
0.0077331893808439
0.0098760038910638
0.0141860574228563
0.0190577398983483