/*--------------------------------*- C++ -*----------------------------------*\
  =========                 |
  \\      /  F ield         | OpenFOAM: The Open Source CFD Toolbox
   \\    /   O peration     | Website:  https://openfoam.org
    \\  /    A nd           | Version:  7
     \\/     M anipulation  |
\*---------------------------------------------------------------------------*/
FoamFile
{
    version     2.0;
    format      ascii;
    class       volSymmTensorField;
    location    "20000";
    object      tauij_B;
}
// * * * * * * * * * * * * * * * * * * * * * * * * * * * * * * * * * * * * * //

dimensions      [0 2 -2 0 0 0 0];

internalField   nonuniform List<symmTensor> 
15600
(
(7.88069560166433e-07 1.18112322758451e-09 1.83624437135949e-27 7.87856443743184e-07 -1.54251091701146e-29 7.87951254713006e-07)
(1.57898575493176e-07 -5.12662382348583e-12 -2.25457398533749e-27 1.57896543172177e-07 -4.34395321185404e-27 1.57900442030114e-07)
(2.81664550694476e-08 -9.49857463600734e-12 -2.45989836659014e-29 2.80433215914281e-08 -2.43870188526985e-31 2.81040065367364e-08)
(5.6703478136616e-08 -1.08668745609855e-11 -2.49903031723201e-32 5.66503868153694e-08 -3.31248853894938e-32 5.66768438131099e-08)
(2.66204672670095e-09 -4.43404511640772e-13 1.02175610032539e-30 2.66036983546097e-09 -1.37883668795782e-31 2.66120143107895e-09)
(2.76507985466125e-09 -4.20292608897014e-13 -2.34909869087428e-29 2.76357372742716e-09 -7.09134985389811e-30 2.7643303935495e-09)
(5.67686086725109e-09 -1.19463132742283e-12 -1.0457058491567e-28 5.67218623426529e-09 -6.07524002938903e-29 5.67451643343845e-09)
(9.89002923956993e-09 -2.31814253932795e-12 3.44007653368062e-28 9.88051159239984e-09 2.10962225570668e-28 9.88529418322062e-09)
(1.78250524937608e-08 -5.84132578585501e-12 -7.26732874820515e-28 1.77995587869885e-08 -4.49335805894549e-28 1.78123026902976e-08)
(3.08852932457049e-08 -1.16243002067743e-11 -8.4571864323291e-28 3.083274626477e-08 -6.37911101463324e-28 3.08590710053467e-08)
(5.14751000779646e-08 -1.93749074027342e-11 3.77753707790759e-27 5.13767157879044e-08 2.26503671228316e-27 5.14259164624719e-08)
(8.25853565419344e-08 -1.92517289550854e-11 5.95112590868834e-27 8.24529658276286e-08 4.72114487488466e-27 8.25195540501535e-08)
(1.21318098262601e-07 -2.86392343923745e-12 -7.17722480681501e-28 1.21235361954355e-07 1.53793630446001e-28 1.21278001574527e-07)
(1.47757468785372e-07 -7.0080051083236e-12 2.07879521296822e-26 1.47906295447757e-07 2.31949248297895e-26 1.47835079047454e-07)
(1.21373523362183e-07 -9.90870654470004e-11 -1.58407353578973e-27 1.21666469075522e-07 -4.4303579888264e-27 1.21522714140558e-07)
(5.13987976099256e-08 -8.50090590471998e-11 1.55496714810441e-28 5.14441811554531e-08 1.23424403743902e-27 5.14224791696808e-08)
(4.75161900385068e-08 -4.97059822841006e-11 -2.42687710065526e-28 4.75125020272561e-08 8.51774663736882e-29 4.75147798327444e-08)
(9.27810338189764e-08 -5.33480057913655e-11 4.94066433574195e-31 9.27735899519034e-08 2.51600868690325e-29 9.27779504713729e-08)
(1.64647862747443e-07 4.32538969924831e-11 5.38713490070471e-31 1.64626285295767e-07 -1.10201682911324e-28 1.64638108135636e-07)
(2.76135229586394e-07 4.2421303752109e-10 7.54168252594488e-31 2.76087461196391e-07 7.22171729221237e-29 2.76112900433489e-07)
(4.32190878819141e-07 1.29886749238642e-09 1.34769395886178e-29 4.32106004269041e-07 -7.78881480743831e-31 4.32151455099152e-07)
(6.29890601306187e-07 2.85373575945294e-09 -3.07592279362899e-29 6.29762505577286e-07 2.66793574618654e-28 6.29831999413012e-07)
(8.62389226223178e-07 5.1600127841786e-09 -3.0452045312133e-29 8.6221731152355e-07 -1.50422484499621e-28 8.62312708691395e-07)
(1.12224670777774e-06 8.21453004278596e-09 1.04099306692824e-28 1.12203294779034e-06 -2.36002772430862e-28 1.12215474291353e-06)
(1.40314606387003e-06 1.19604467639338e-08 -1.29859062297647e-28 1.40289320671147e-06 3.87308752516521e-28 1.40304162281227e-06)
(1.70027297200474e-06 1.63265183106904e-08 1.7443032202217e-28 1.69998387642123e-06 -3.90160649631412e-28 1.7001588394634e-06)
(2.00960425080729e-06 2.12277903603786e-08 2.91681368512756e-29 2.00928197524147e-06 5.57091450568886e-29 2.00948316914594e-06)
(2.32769722838015e-06 2.65748249013194e-08 -1.61121074189683e-28 2.32734525614573e-06 5.34314326184093e-29 2.32757184668441e-06)
(2.65131931384297e-06 3.22707458638205e-08 -1.92672864328479e-28 2.65094159568125e-06 -1.34202833541137e-28 2.65119226632153e-06)
(2.97750683467408e-06 3.8216804646138e-08 2.30277882291827e-28 2.97710782182623e-06 1.47974976483251e-28 2.97738068928424e-06)
(3.30345418378095e-06 4.4312131762277e-08 -9.78697284539993e-30 3.30303876765978e-06 1.72629739785536e-30 3.30333145255943e-06)
(3.62657159128356e-06 5.04573373525123e-08 0 3.62614506781966e-06 0 3.62645468561013e-06)
(3.94444086425673e-06 5.65554310108958e-08 0 3.94400877515841e-06 0 3.94433206019211e-06)
(4.25489182982831e-06 6.25152312371007e-08 -8.88298919928661e-29 4.25445986357425e-06 -6.4992911805244e-23 4.25479321754396e-06)
(4.55598998158292e-06 6.82525892454177e-08 -3.23737461574918e-28 4.55556378906201e-06 -8.58520728261564e-23 4.55590342566361e-06)
(4.8461191372522e-06 7.36933640948663e-08 4.09953967992134e-28 4.84570422879305e-06 1.73390522728978e-27 4.8460462478973e-06)
(5.12401140638473e-06 7.8774476845218e-08 -2.82202041738156e-28 5.12361304566233e-06 7.41667495595978e-28 5.123953543087e-06)
(5.38886670022338e-06 8.34463561018373e-08 9.09972453211669e-24 5.3884898301787e-06 -1.17090090878145e-24 5.38882496533687e-06)
(5.64074218571936e-06 8.76795218644134e-08 6.0982043397399e-23 5.64039125865906e-06 -2.39433699281257e-22 5.6407173833806e-06)
(5.88129403195152e-06 9.14772338875914e-08 4.28316829384179e-23 5.88097286465441e-06 -2.72656883941324e-22 5.88128665040043e-06)
(6.10711338483017e-06 9.47710751595509e-08 -1.17003175754297e-23 6.10682543034564e-06 1.37049420483233e-24 6.10712365374565e-06)
(6.31428372720508e-06 9.74914771822265e-08 2.75043036066876e-28 6.31403196222749e-06 5.5121838617745e-27 6.31431160044432e-06)
(6.50187766228804e-06 9.96229690910452e-08 -2.79611742487772e-28 6.50166441474316e-06 -2.93677353526845e-27 6.50192282097796e-06)
(6.66982792174087e-06 1.01169905346219e-07 6.95773894327775e-28 6.66965487617901e-06 2.974505812049e-27 6.66988981958026e-06)
(6.8182677685538e-06 1.02145415666512e-07 2.15774097385956e-23 6.81813601012277e-06 -1.89937637536541e-24 6.81834566806763e-06)
(6.9474860219454e-06 1.02569766838382e-07 8.25094033916281e-23 6.94739605903366e-06 -9.74761786595546e-22 6.9475790240596e-06)
(7.05792293398382e-06 1.02469566425497e-07 3.66896691078624e-23 7.0578747348963e-06 -1.05630636216725e-21 7.05803000479354e-06)
(7.1501537984822e-06 1.01876594281228e-07 -2.44319783274517e-23 7.15014683995322e-06 1.87766643665249e-24 7.15027380012183e-06)
(7.22487302978509e-06 1.00826724547072e-07 -5.61644473103415e-28 7.22490635168291e-06 3.08632980749469e-28 7.22500474984674e-06)
(7.28287807938147e-06 9.93588252951014e-08 -3.30418222485111e-28 7.28295034854357e-06 -4.93205583624104e-27 7.28302026066287e-06)
(7.32504633227883e-06 9.75136249227617e-08 2.89677036800627e-28 7.32515590902396e-06 -1.70317803315914e-29 7.32519770312544e-06)
(7.3523150518393e-06 9.53326386211698e-08 1.77604181701754e-28 7.352460065515e-06 -8.35389768454531e-30 7.35247435251876e-06)
(7.36563975963638e-06 9.28570167811853e-08 -2.19985016498744e-28 7.36581816092409e-06 7.08683373345652e-27 7.3658057654602e-06)
(7.3659879811396e-06 9.01268895669544e-08 -3.72651568558497e-28 7.36619762047181e-06 -1.4482596191619e-26 7.36615952115342e-06)
(7.35427372608395e-06 8.71802391127299e-08 5.32223878671515e-28 7.35451236682919e-06 7.92978570236706e-27 7.35444968885916e-06)
(7.33138813296184e-06 8.40531692187475e-08 8.30213013991877e-29 7.33165350485286e-06 -5.45481068771141e-28 7.33156747113625e-06)
(7.29815933757509e-06 8.07793327298964e-08 -1.37183028480652e-28 7.2984491113889e-06 1.7822792932221e-27 7.29834105009082e-06)
(7.25542897234071e-06 7.73912274868842e-08 -1.65642665459843e-28 7.25574075811851e-06 -1.76749704460581e-27 7.25561209764991e-06)
(7.20411254126834e-06 7.39203447202632e-08 1.02548266664043e-28 7.20444397448318e-06 6.3025882375951e-28 7.20429618440652e-06)
(7.14513409543658e-06 7.03959509390423e-08 4.58515794326395e-23 7.14548288644316e-06 -6.28682943179319e-28 7.14531744768908e-06)
(7.07940317553364e-06 6.68446123591917e-08 8.52317375105816e-23 7.07976717118397e-06 -2.70271422487366e-22 7.07958553047199e-06)
(7.0077393597945e-06 6.32892720250513e-08 -8.6166346702154e-24 7.00811656388128e-06 -2.81036002393244e-22 7.00792011541824e-06)
(6.93083367671193e-06 5.97492412527716e-08 -4.5838856321728e-23 6.93122223638333e-06 -5.41076028670372e-25 6.93101232037132e-06)
(6.84923924782698e-06 5.62405716952952e-08 2.89481044014121e-28 6.84963742901346e-06 2.03396515936671e-27 6.84941533868414e-06)
(6.76338093926037e-06 5.27766543468362e-08 5.41623633446868e-29 6.76378708122294e-06 2.1146591620405e-27 6.76355407721299e-06)
(6.67361115714343e-06 4.9369412275222e-08 -3.34906902916286e-28 6.67402361659552e-06 8.03930665546463e-27 6.67378096068607e-06)
(6.58035151038842e-06 4.60304136491232e-08 -2.02763396687741e-28 6.58076870844589e-06 -1.59696589890613e-26 6.58051762579725e-06)
(6.48406182397859e-06 4.27702967794179e-08 5.03385200493568e-28 6.48448227075796e-06 -1.12816636979617e-28 6.48422394411603e-06)
(6.3852450799429e-06 3.9598456856654e-08 -1.93970479481343e-28 6.38566743982003e-06 1.03264693005122e-26 6.38540296005638e-06)
(6.28430407678904e-06 3.6522037042522e-08 -8.41380616074326e-28 6.28472714271506e-06 -4.37390769604578e-27 6.28445753126225e-06)
(6.18155004842109e-06 3.3546347809345e-08 1.31299165797259e-28 6.18197274099018e-06 -8.86967424331372e-27 6.18169893759952e-06)
(6.07712694488252e-06 3.06748745516843e-08 -5.27960331923347e-23 6.07754823098452e-06 -3.73763240994992e-24 6.07727114343208e-06)
(5.9711201602871e-06 2.791067655056e-08 -6.84832245702377e-23 5.97153903066037e-06 3.39987358440356e-22 5.97125954313335e-06)
(5.86367708496595e-06 2.52567603869274e-08 3.64696528159373e-23 5.86409258377393e-06 3.7183509094035e-22 5.86381153956563e-06)
(5.75493619832062e-06 2.27156296322653e-08 5.05075305066306e-23 5.75534743449679e-06 4.17883481890104e-24 5.7550656307747e-06)
(5.64505352858294e-06 2.02892836661651e-08 -5.0258672065909e-28 5.6454596923421e-06 -1.24346256812652e-26 5.64517786915006e-06)
(5.53413791486212e-06 1.79789695232542e-08 -5.27694101246477e-28 5.53453826794277e-06 -5.27444950205022e-29 5.5342571149317e-06)
(5.4222018445431e-06 1.57852318313534e-08 4.64667665664706e-28 5.42259568760558e-06 -8.80381522883294e-27 5.42231585903568e-06)
(5.30914789060737e-06 1.37083898786091e-08 -5.22192576778668e-23 5.30953452487628e-06 -5.82484270401427e-24 5.30925666576396e-06)
(5.1948338590155e-06 1.17487825189314e-08 -5.79389771420164e-23 5.19521259468109e-06 3.52523515231932e-22 5.19493733035741e-06)
(5.07918142688849e-06 9.90712719106503e-09 4.42916225639892e-23 5.07955157634749e-06 3.9529321085157e-22 5.07927952381247e-06)
(4.96199846053918e-06 8.18393499719374e-09 4.88634663995069e-23 4.96235935155091e-06 6.02566798506315e-24 4.96209110404494e-06)
(4.84317677441946e-06 6.58011406696527e-09 -2.99573760369047e-29 4.84352773467405e-06 7.44490153697662e-27 4.84326388201271e-06)
(4.72214558711044e-06 5.09597885215746e-09 1.31512032664222e-29 4.72248593356683e-06 1.6848618102091e-26 4.72222705510917e-06)
(4.59894721247492e-06 3.73325398131015e-09 -1.36153871321337e-29 4.59927624639393e-06 7.69681249455637e-27 4.59902292887108e-06)
(4.47260335246339e-06 2.49275182312311e-09 -5.87686728193181e-31 4.47292031119643e-06 1.03662598450462e-21 4.47267315832592e-06)
(4.34296308339078e-06 1.3773308249566e-09 -1.35596800531495e-31 4.34326714474756e-06 1.00283454164168e-21 4.34302681116117e-06)
(4.20913052283775e-06 3.88866918139841e-10 9.22278863961703e-28 4.20942079427596e-06 1.59534180511105e-26 4.20918794592358e-06)
(4.07038771892644e-06 -4.68271926606022e-10 -8.87105852500668e-28 4.07066318359087e-06 2.90879286269711e-29 4.07043860799251e-06)
(3.92598287790175e-06 -1.1917232440285e-09 -8.95164070896363e-28 3.92624250965033e-06 8.92798724161037e-30 3.926026922013e-06)
(3.7746511454355e-06 -1.77479673832328e-09 -4.35204545872182e-23 3.77489367827601e-06 -7.94685050160819e-24 3.77468806229501e-06)
(3.61552811994901e-06 -2.21606218789199e-09 -3.99085631690981e-23 3.61575234329014e-06 1.1918732809882e-21 3.61555749268098e-06)
(3.44670797129908e-06 -2.50547454989565e-09 4.11750738169745e-23 3.44691233688712e-06 1.18133681309516e-21 3.44672950579417e-06)
(3.26728453628721e-06 -2.64604168192298e-09 3.72171254547962e-23 3.26746778560033e-06 7.2210897718632e-24 3.26729770931251e-06)
(3.07433668283848e-06 -2.62328932652233e-09 0 3.07449701548253e-06 0 3.07434135007038e-06)
(2.87286151941635e-06 -2.45850099966662e-09 0 2.87299825942199e-06 1.70970222557073e-26 2.87285715719322e-06)
(2.66444699110509e-06 -2.13732883239072e-09 -6.40544539111013e-23 2.66455865701727e-06 -1.39345238870693e-23 2.66443389195273e-06)
(2.44175834895687e-06 -1.69699291531023e-09 -5.58147872614635e-23 2.44184489753046e-06 4.09364322788398e-22 2.44173598607037e-06)
(2.19920666666318e-06 -1.1097022424219e-09 5.4119324627961e-23 2.19926702711023e-06 4.59015417933581e-22 2.19917676921539e-06)
(1.94003008010695e-06 -4.8683592569496e-10 4.58678490442147e-23 1.9400676478268e-06 1.05177731018785e-23 1.93999310526529e-06)
(1.65983316002414e-06 1.99938049952766e-10 2.58980823996076e-41 1.65984971921042e-06 -1.03799499394354e-26 1.65979394399758e-06)
(1.37370481970885e-06 7.34863078707156e-10 0 1.37371096275878e-06 0 1.37366576371232e-06)
(1.07862796142774e-06 1.16383206880129e-09 0 1.07863104270324e-06 0 1.0785987940828e-06)
(7.83375179139491e-07 1.18826937709885e-09 5.25433217955847e-26 7.83365345956127e-07 1.35930270078514e-26 7.83344413767554e-07)
(8.15700969993095e-07 1.98134023988827e-09 -4.51033298546816e-26 8.16793785822059e-07 -4.61652832088787e-25 8.16234449017624e-07)
(1.44819467038711e-06 2.16387519417097e-09 -4.16483440844357e-25 1.45451972622473e-06 1.36374016890866e-24 1.45135496647911e-06)
(1.95880263996391e-06 4.91293089304378e-10 1.9404646030518e-24 1.96595144856301e-06 -2.46375434087742e-24 1.9624219014655e-06)
(2.41357420012815e-06 -3.51723880445156e-10 1.24112799431848e-23 2.41731780903259e-06 -1.08584026967741e-23 2.41549485266987e-06)
(2.57688458658043e-06 3.25439817440029e-10 -4.4925067694566e-24 2.57381081767874e-06 3.34868018988786e-24 2.57536505441997e-06)
(2.48852027583266e-06 1.55107392421807e-09 3.50047941035443e-24 2.47992721953303e-06 -2.48196865881406e-24 2.48420104155768e-06)
(2.26667159166847e-06 2.48313723056718e-09 9.0515718546833e-25 2.25463903813252e-06 -3.51743419250199e-25 2.26060043385563e-06)
(1.9274374898874e-06 2.68488681673287e-09 -5.74348829251483e-25 1.91505489065698e-06 2.68851330079742e-25 1.92119034097501e-06)
(1.63214009971351e-06 2.61662496844409e-09 -8.47831164562384e-26 1.62073652172882e-06 -1.75783802406328e-26 1.62638224623272e-06)
(1.33465524603824e-06 2.35230717053201e-09 -7.15615146013299e-25 1.32513994652202e-06 4.78344656478271e-25 1.32984899057761e-06)
(1.17430079238067e-06 2.26168103939454e-09 1.00583202603244e-26 1.1658223430228e-06 1.67656500863212e-27 1.17000984875772e-06)
(1.09492308334348e-06 2.25878339552353e-09 -2.02331600198576e-25 1.08632029611409e-06 1.20299678171385e-25 1.0905605365876e-06)
(1.40689450579635e-06 2.87404492087881e-09 1.47623654286453e-25 1.39322295932478e-06 -9.49779931969846e-26 1.39995370642543e-06)
(2.65609812205389e-06 3.23171025789129e-09 -1.14684144010363e-25 2.61306814224769e-06 1.00479945702771e-25 2.63423818355457e-06)
(2.34995907264741e-06 -1.86904440463878e-08 4.17025899485074e-25 2.29690900320395e-06 -3.87359639943215e-25 2.32317809704837e-06)
(1.06943351082622e-06 -3.63515093407671e-09 -4.01062228214151e-27 1.06847059080553e-06 3.54440123732955e-26 1.06895116474419e-06)
(2.54386271946945e-05 3.20144326161507e-08 -5.32362509191908e-25 2.54127689786258e-05 9.13796259018534e-28 2.54219516015085e-05)
(5.18829847062716e-06 -2.35444852052996e-09 4.16605844782276e-25 5.1881090547588e-06 7.99074029398623e-25 5.188777768419e-06)
(9.3919985435318e-07 -1.78598362869601e-09 7.44103630011066e-27 9.17998785728912e-07 7.5329791956053e-29 9.28671762759557e-07)
(1.86077946809371e-06 -1.81706118561586e-09 1.63286550533741e-29 1.8506359110491e-06 1.06952136895055e-29 1.85575355874636e-06)
(1.07481257419817e-07 -9.93424743349753e-11 2.0777861548875e-24 1.07092815360617e-07 1.24495915300309e-24 1.07287281606161e-07)
(8.97170334502145e-08 -7.85175994004095e-11 2.46471872225165e-24 8.94294767987507e-08 1.46765737543379e-24 8.95737113326682e-08)
(1.82985354309887e-07 -2.20103733333293e-10 2.07482263478539e-26 1.82122196591117e-07 1.0832737464368e-26 1.82552664999117e-07)
(3.18500442533676e-07 -4.34399296878933e-10 -7.03247995661064e-26 3.16704809962428e-07 -2.87428671637245e-26 3.17602156908313e-07)
(5.74095160120191e-07 -1.07169935764292e-09 1.37902922628321e-25 5.69432617016864e-07 5.95389026201579e-26 5.71758938598299e-07)
(9.95583042901709e-07 -2.09291276605047e-09 -7.85105273419031e-26 9.85978475018139e-07 -6.42787118281248e-26 9.90781760053965e-07)
(1.66097713895534e-06 -3.343545843919e-09 -6.35842321392501e-25 1.64308169332438e-06 -4.32355553592263e-25 1.65201553765954e-06)
(2.66723728261918e-06 -2.96273684551852e-09 -2.88972112195116e-24 2.64186731282442e-06 -2.14660447657998e-24 2.6544961799467e-06)
(3.92460675064226e-06 1.01557541561085e-09 2.23843920631015e-25 3.90328785259199e-06 -6.05166542482477e-26 3.91365078885368e-06)
(4.79627015588809e-06 3.32573903515695e-09 -3.66807043352805e-24 4.80820655240676e-06 -4.37901644354263e-24 4.80169973092483e-06)
(3.95512162808555e-06 -1.0386654263446e-08 -3.17797330016203e-25 3.99492120670689e-06 1.03182437207978e-24 3.97443230012006e-06)
(1.66984956139984e-06 -1.19081891731441e-08 -1.80748638451108e-25 1.67621105236835e-06 -1.52308371724772e-24 1.67294428325126e-06)
(1.55278222721768e-06 -5.91913351763001e-09 3.6495217702607e-26 1.55120275862564e-06 -9.21452044644781e-27 1.55187386920481e-06)
(3.03456140491226e-06 5.81362506185037e-10 -1.37057686308229e-27 3.03039347890882e-06 3.04864266394091e-27 3.03233774105884e-06)
(5.37911875254613e-06 3.28109811221811e-08 1.04297656138133e-27 5.36704985012601e-06 6.93600074212115e-27 5.37293403995439e-06)
(9.01071549998817e-06 1.25583852297106e-07 7.30096660187815e-28 8.98486431872676e-06 -1.27647784834886e-26 8.9975169356782e-06)
(1.40844289653686e-05 3.14058644025631e-07 -1.10307720401463e-27 1.40408639006651e-05 -2.85004301925374e-26 1.4062210686798e-05)
(2.05007890010113e-05 6.23037714585803e-07 -1.21448312368896e-26 2.04389116603232e-05 -2.60237666982872e-26 2.04689610947231e-05)
(2.80354694447325e-05 1.05740927589988e-06 1.31823211637222e-26 2.79577533689791e-05 5.18257413772552e-26 2.79950161634057e-05)
(3.64471762917783e-05 1.61025997216397e-06 3.5577404362975e-27 3.63572000991461e-05 4.21034475030663e-26 3.63995511730841e-05)
(4.55318035829531e-05 2.2680991051684e-06 -4.24955449823631e-26 4.54332781997264e-05 -6.76013719708228e-26 4.54785980092654e-05)
(5.51341392153802e-05 3.0162327572377e-06 4.73786297591193e-26 5.50305057319197e-05 6.80603267374584e-26 5.50768143527231e-05)
(6.51244049409156e-05 3.8388621369422e-06 2.3888963203769e-27 6.50188787518457e-05 -1.13579630029404e-26 6.50643762991031e-05)
(7.53916279469123e-05 4.72009906470776e-06 1.86291076079263e-41 7.52872379292553e-05 -2.27686506608379e-27 7.53302530865019e-05)
(8.5831657441971e-05 5.64354539231389e-06 2.12296558893524e-38 8.57312578045894e-05 1.69138283376365e-26 8.57702703195592e-05)
(9.63491678098605e-05 6.5930151454468e-06 1.13739366112119e-36 9.625542582845e-05 3.30035838037056e-26 9.62890565959358e-05)
(0.000106854029086138 7.55250954430213e-06 -2.64565149915567e-38 0.000106769406144557 -6.64466006040675e-26 0.000106796437749406)
(0.000117263194661858 8.50671190060441e-06 0 0.000117189925030065 0 0.000117209301292799)
(0.000127499238889862 9.44109352807143e-06 -6.92032759452149e-22 0.000127439288060744 1.10060043289557e-22 0.000127450138808155)
(0.000137492817358228 1.03423683731618e-05 -1.17028372825627e-20 0.000137447859271621 1.01789000867682e-20 0.00013744950058357)
(0.000147182228172428 1.11986132264962e-05 -1.10998404518948e-20 0.000147153614952456 1.25300667419864e-20 0.000147145563613222)
(0.000156516056680577 1.19996293920204e-05 1.04850978764036e-21 0.000156504821658531 -1.54081897695879e-22 0.000156486782586644)
(0.000165454101259634 1.27370446198097e-05 2.51863406297287e-25 0.000165460973927353 -2.94175860553566e-26 0.000165432828286857)
(0.000173971223449258 1.34046358463745e-05 -4.40088194295604e-21 0.000173996652028906 5.6876882912467e-22 0.000173958431023844)
(0.000182069908086434 1.3999293215056e-05 -2.93578261871438e-20 0.000182114046221726 -2.98402658334182e-21 0.000182065926950221)
(0.000189803943469444 1.45228435117855e-05 -2.03929477249149e-20 0.000189866633136071 -6.03682873062807e-21 0.000189808952920782)
(0.000197027457010945 1.49631690836612e-05 5.56841402717457e-21 0.000197108225486463 -6.54411915897597e-22 0.000197041504580102)
(0.000203627361878788 1.53117082689545e-05 1.87946067155297e-25 0.000203725459928125 -4.21112551513656e-25 0.000203650354996272)
(0.000209599199484208 1.55691142886597e-05 -3.68960862950013e-26 0.000209713659479707 5.41390051603335e-25 0.00020963091788791)
(0.000214941866895417 1.57371179374366e-05 0 0.00021507154779956 9.09166579227306e-26 0.000214981985811393)
(0.000219660483630607 1.58186201893993e-05 -1.52175183864521e-20 0.000219804112793612 1.34077568630379e-21 0.000219708589810961)
(0.000223765028683206 1.58174574678855e-05 -6.18822991056289e-20 0.000223921233326574 5.31588408105025e-20 0.000223820634866301)
(0.000227270187101308 1.57382750835092e-05 -2.94962014270847e-20 0.000227437525491058 5.26374805104894e-20 0.000227332745510164)
(0.00023019483158905 1.55863619694343e-05 1.71387418058223e-20 0.000230371824116811 -1.31252242143883e-21 0.000230263748899204)
(0.000232561517734485 1.53674960297724e-05 -6.54019924579444e-26 0.000232746675683514 8.64092448780677e-25 0.000232636169355857)
(0.000234395970215291 1.50877920056836e-05 2.16314046919715e-39 0.000234587823573406 9.0453323864464e-25 0.000234475714649952)
(0.000235726358505155 1.47535441219945e-05 0 0.000235923481241438 0 0.000235810551447654)
(0.000236582642929312 1.43710861764841e-05 4.62428623264118e-26 0.000236783675993842 5.72556656551501e-25 0.000236670649582802)
(0.000236995313321809 1.39466329742974e-05 -2.41740447313357e-26 0.000237198978841166 -1.10623307253473e-24 0.000237086518741267)
(0.000236995121044742 1.34862044469152e-05 -1.11838333195155e-25 0.0002372002378175 1.08856314041994e-24 0.000237088938005824)
(0.000236611140596425 1.29954765770037e-05 1.71301949135338e-25 0.000236816619478465 -9.01651539987993e-25 0.000236707011860613)
(0.00023587163848128 1.24798271779101e-05 -1.06886369419328e-25 0.000236076484265865 3.46802138408665e-25 0.000235969037410502)
(0.00023480296023032 1.19442759545225e-05 2.5253964913949e-26 0.000235006251000379 3.06437359610984e-26 0.000234901383767461)
(0.000233431928831188 1.13936324304465e-05 7.33696883605342e-27 0.000233632810371513 -2.1801290440766e-25 0.000233530896879411)
(0.000231787618610198 1.08325194168918e-05 -3.15151140964936e-28 0.000231985328088191 1.89372372818378e-25 0.000231886686540024)
(0.00022989935270552 1.02652122281665e-05 -1.22215543253057e-20 0.000230093229568776 -4.1910519624737e-27 0.000229998120175233)
(0.000227795920771584 9.69557590063989e-06 -1.96047382895664e-20 0.000227985417460977 -1.50342570636423e-19 0.000227894038073465)
(0.000225503240244026 9.12695660376501e-06 5.29559929078744e-21 0.000225687917202753 -1.53314524439147e-19 0.000225600407916574)
(0.000223043163170139 8.56218586285978e-06 1.22840156962602e-20 0.000223222671252012 1.44827253118907e-22 0.000223139124360158)
(0.000220433189573352 8.0036380573837e-06 1.82585775955039e-39 0.000220607249153016 -3.73656987646204e-25 0.000220527720711186)
(0.000217686790890591 7.45332378273639e-06 6.86635012388885e-26 0.000217855164495646 -3.87330142307681e-25 0.000217779687628316)
(0.000214815238071284 6.91303499226098e-06 -1.00774228607579e-25 0.000214977708242081 -3.69184883568899e-25 0.00021490630675604)
(0.000211831936344441 6.38448600696848e-06 -1.39224695824774e-25 0.000211988319083262 6.96731377861666e-25 0.000211920999245958)
(0.000208751525106291 5.86923441362063e-06 2.05747826471277e-25 0.000208901680011036 7.88641328667392e-27 0.000208838429038933)
(0.00020558991839986 5.36864379331965e-06 3.29013494184014e-26 0.000205733765434147 -7.70235254332182e-25 0.000205674541077887)
(0.000202359906239045 4.88376283875887e-06 -6.77259949406898e-26 0.00020249741426234 7.94888189928677e-25 0.000202442153777864)
(0.00019907132598452 4.41538621670292e-06 -1.46476896081816e-25 0.000199202503245368 1.62918022897183e-24 0.000199151125543102)
(0.000195728797710337 3.96407398549385e-06 1.45290396947877e-20 0.00019585365977253 1.0270034587011e-21 0.000195806083001587)
(0.000192335076025113 3.53031729667012e-06 1.76801047375663e-20 0.00019245363631247 1.73449685090678e-19 0.00019240978196679)
(0.000188894863350392 3.11458379401848e-06 -1.13247879792621e-20 0.000189007144226469 1.7009160139539e-19 0.000188966931873388)
(0.00018541256440661 2.71726176523745e-06 -1.420927451141e-20 0.00018551860136046 -1.17112741876584e-21 0.000185481947152882)
(0.000181893125451186 2.33865989703035e-06 -1.75130547501465e-25 0.000181992971927038 -4.0880438861244e-24 0.000181959785991509)
(0.000178340008303476 1.97898461428285e-06 1.40759417066151e-25 0.000178433730512127 2.00159609598857e-24 0.000178403919859318)
(0.000174753626870716 1.63835957270998e-06 0 0.000174841288996078 1.63565868759343e-24 0.000174814763700384)
(0.000171130927646589 1.3168902610453e-06 1.46174543719218e-20 0.000171212578853764 1.63134119990448e-21 0.000171189259485842)
(0.000167467355114238 1.01469160880134e-06 1.60132317661509e-20 0.000167543032200272 1.71752865730779e-19 0.000167522846491388)
(0.000163760464949053 7.31921213255037e-07 -1.29235734616186e-20 0.000163830191299121 1.6506103883125e-19 0.000163813077324415)
(0.00016000406797158 4.68726733987551e-07 -1.41168913296287e-20 0.000160067858217924 -1.74637356056026e-21 0.000160053758332675)
(0.000156194813456708 2.25301505726161e-07 3.00879860965092e-25 0.000156252670782199 3.30888305065214e-24 0.000156241536486927)
(0.000152314285798867 1.83345360903399e-09 1.27980444870951e-26 0.000152366200646809 -7.13376616643052e-24 0.000152357984777984)
(0.00014836406208495 -2.01376727875669e-07 1.23604432838072e-20 0.000148409999723869 1.82399655028169e-21 0.000148404675404268)
(0.000144312661186605 -3.83981320289559e-07 1.20187454187978e-20 0.00014435254416721 -1.59717136861996e-19 0.000144350102922568)
(0.000140155438536339 -5.45473741684523e-07 -1.18190989949316e-20 0.000140189161298752 -1.64060433839157e-19 0.000140189617349299)
(0.000135863542516286 -6.85329844721952e-07 -1.12736534040642e-20 0.00013589096614759 -1.78878594832581e-21 0.000135894337145847)
(0.00013141418407827 -8.02726916035486e-07 2.50336536861886e-38 0.000131435130488844 -3.72416103628966e-24 0.000131441469251256)
(0.000126782938496093 -8.97040675908395e-07 9.2346841029048e-37 0.000126797200703401 -3.68027443811544e-24 0.000126806548627491)
(0.000121929821113996 -9.67024177438809e-07 2.31833990550789e-20 0.000121937145392907 4.22820982588275e-21 0.000121949599684159)
(0.000116826178259992 -1.01207975306703e-06 2.15353195293753e-20 0.000116826294733971 1.90506931496012e-21 0.00011684190376185)
(0.000111411807931997 -1.03040598745152e-06 -2.21872110216078e-20 0.000111404399634551 -1.31162146550517e-20 0.000111423309960269)
(0.000105655829501756 -1.02189114659033e-06 -2.03210428519046e-20 0.000105640609270555 -3.94281054481161e-21 0.000105662829611665)
(9.94653362627044e-05 -9.84042877418215e-07 2.12464015673663e-25 9.94420296197661e-05 4.37219383756191e-26 9.94677259719664e-05)
(9.29820681149209e-05 -9.2012263915913e-07 -7.03754332214896e-27 9.29505571288975e-05 1.15944669148684e-25 9.29795716218587e-05)
(8.6260591366921e-05 -8.29005327570697e-07 1.80975846435042e-20 8.62207142833321e-05 3.9370282997506e-21 8.62533016750849e-05)
(7.90802446389245e-05 -7.13868444483989e-07 1.69098320582043e-20 7.90322625975868e-05 1.99637917197952e-19 7.90678752273561e-05)
(7.12572787059003e-05 -5.70937945377866e-07 -1.51795645126689e-20 7.1202044958859e-05 1.70594513648966e-19 7.12406046970795e-05)
(6.28966403259356e-05 -4.15504551689459e-07 -1.37153067566178e-20 6.28361747388128e-05 -3.14496762958068e-21 6.28758807888779e-05)
(5.38504561216092e-05 -2.45859366186966e-07 2.3586789949533e-30 5.37880442240482e-05 -7.04037130156895e-26 5.38279923996603e-05)
(4.4606995583777e-05 -9.51983527418046e-08 9.99108730727377e-26 4.45478982649461e-05 2.40847747309133e-26 4.45841665268625e-05)
(3.50670286242686e-05 3.74800493090216e-08 0 3.50172400872948e-05 0 3.504836038127e-05)
(2.54879084992494e-05 1.11095375535688e-07 -1.51981648080704e-23 2.54459583287957e-05 -3.93178538483615e-24 2.54697037180527e-05)
(2.65134274136112e-05 2.44833328247884e-07 2.16063307296099e-23 2.66137128405774e-05 7.58938669623083e-23 2.6567703778846e-05)
(4.71737164020796e-05 2.36621190540056e-07 -3.61456334926822e-22 4.78955672381055e-05 5.39931542734241e-22 4.75319305268886e-05)
(6.3855875521234e-05 3.17112213803018e-09 7.32394833019662e-22 6.4525860187517e-05 -1.08050289299429e-21 6.41868284544665e-05)
(7.86144349628099e-05 -8.50008866744348e-08 -2.09473458932599e-21 7.86619134512275e-05 1.96874543282606e-21 7.8629537103099e-05)
(8.40426789296188e-05 5.37325856966798e-08 -2.73040696182585e-22 8.31116674335965e-05 2.98469238599452e-22 8.35747006716032e-05)
(8.13743669654828e-05 2.63875215468459e-07 -6.95734845264956e-22 7.96906511999922e-05 4.48521156852473e-22 8.05372503684106e-05)