/*--------------------------------*- C++ -*----------------------------------*\
  =========                 |
  \\      /  F ield         | OpenFOAM: The Open Source CFD Toolbox
   \\    /   O peration     | Website:  https://openfoam.org
    \\  /    A nd           | Version:  7
     \\/     M anipulation  |
\*---------------------------------------------------------------------------*/
FoamFile
{
    version     2.0;
    format      ascii;
    class       volVectorField;
    location    "20000";
    object      U;
}
// * * * * * * * * * * * * * * * * * * * * * * * * * * * * * * * * * * * * * //

dimensions      [0 1 -1 0 0 0 0];

internalField   nonuniform List<vector> 
15600
(
(-0.0259684384730273 0.000887080393175446 6.25715498237407e-23)
(0.000121500359777264 0.000237072075319319 -3.25996850554616e-18)
(-0.0242764905066373 0.0266424539452937 -3.86526917865278e-23)
(-0.0041842456115159 0.00620417383284792 4.06948410191032e-23)
(-0.00239202639160993 0.00389139213682033 0)
(-0.00167020811154411 0.00288536300107269 -6.97127088401199e-19)
(-0.00222182995357417 0.00361533793161665 7.39053887588175e-19)
(-0.00221253560320879 0.00360715669318548 0)
(-0.00302491124493387 0.00472535527644635 8.2637972724491e-22)
(-0.00325572565765552 0.00504593728469212 9.08820453859731e-19)
(-0.00335936805356595 0.0049975133314607 -1.83572315424001e-18)
(-0.00248306666507265 0.00351052938036869 -1.9027972553115e-18)
(-0.000714786376242014 0.00110772761102565 3.95584984763267e-21)
(0.00216737663003988 -0.00147663237299257 -2.19721406704779e-21)
(0.00544413756228489 -0.00252808802223859 -1.20170835119605e-18)
(0.00653278761525387 -0.000721610896473193 -1.20562815793173e-18)
(0.00430114442627508 0.000126329951543883 0)
(0.00303629144052741 7.92935711779533e-05 1.91336135391152e-21)
(0.000409280649940268 6.1127700951344e-05 -1.91349773122229e-21)
(-0.00390211187725196 5.93375011824738e-05 1.81324971193339e-21)
(-0.00906105707194583 7.51522560530861e-05 -4.65841403761888e-23)
(-0.0145853163059433 0.000102718619021509 -3.42505685339415e-21)
(-0.0199570507283461 0.000135790493619022 1.39970441052332e-22)
(-0.0249767646455776 0.000169899563791448 2.83665860740481e-21)
(-0.0295543514136152 0.000202777900754624 -2.35415771807939e-21)
(-0.0336940371747527 0.000233141193384874 1.73973050180572e-21)
(-0.037415751639457 0.000260456254267381 -4.03227985652506e-22)
(-0.0407502864594188 0.000284408710643749 -2.95481112564921e-22)
(-0.0437240316247572 0.000304928789242556 6.94962149977751e-22)
(-0.0463621214116577 0.000322013967368365 -6.93914789146015e-22)
(-0.0486855766058032 0.000335750891976787 0)
(-0.0507130586754688 0.000346232021344248 0)
(-0.0524607182397597 0.00035359670364031 0)
(-0.0539434234594109 0.00035798438049307 0)
(-0.0551748596931377 0.000359566785016044 4.88979427064806e-21)
(-0.0561682808613513 0.000358521913114377 -4.88709995148103e-21)
(-0.05693625351666 0.000355044053746689 6.60644052278826e-21)
(-0.0574907267622886 0.000349322104215379 -1.41141224584356e-20)
(-0.057843207132125 0.000341547304403105 -3.95446773531222e-16)
(-0.058005644925187 0.0003319010275939 -4.48709254627638e-16)
(-0.0579901861021694 0.000320560595042299 5.18028537903452e-21)
(-0.0578087349202428 0.000307751033749716 -5.1804710781803e-21)
(-0.0574732446604216 0.000293679665800195 6.17408913698758e-21)
(-0.0569953812303338 0.000278532914463862 -6.17545930455853e-21)
(-0.0563864768985123 0.000262483969968168 -7.19076235798897e-21)
(-0.05565744427527 0.000245697175567005 -7.41186460966772e-16)
(-0.0548188625023828 0.000228326255739394 -8.00298039977094e-16)
(-0.0538809348999101 0.000210514271679336 -8.73837196376611e-21)
(-0.0528534920396636 0.000192393351860599 -5.1283104274169e-22)
(-0.051745955419169 0.000174083921037131 9.26199690292702e-21)
(-0.0505673099248579 0.000155695517039204 0)
(-0.0493260254034796 0.000137323879902384 0)
(-0.0480300554509241 0.000119056180516788 -5.65756538077621e-21)
(-0.0466867605229559 0.00010096364170851 1.15736724463819e-20)
(-0.0453029355156317 8.31123628672342e-05 -2.8345087714044e-21)
(-0.0438848740239742 6.55542163705734e-05 -3.08453471966731e-21)
(-0.0424383893496037 4.83369356613781e-05 -3.33095043199963e-21)
(-0.0409691890139818 3.15051827655351e-05 3.33385477264999e-21)
(-0.0394827309993737 1.50923959040066e-05 0)
(-0.0379840602907497 -8.7405354093373e-07 0)
(-0.0364777298767341 -1.63769098880361e-05 -1.50294360493483e-15)
(-0.03496765556164 -3.1405156943582e-05 -1.54898676644749e-15)
(-0.033457203778149 -4.59521439627869e-05 4.04580202335721e-21)
(-0.0319492968424516 -6.00139944742269e-05 -4.04948734968415e-21)
(-0.0304465333104255 -7.35891605381736e-05 -4.27193702302724e-21)
(-0.0289515343054938 -8.66723418622726e-05 -4.48935853439191e-21)
(-0.0274669556109123 -9.92661969350265e-05 8.77308208505123e-21)
(-0.0259953617572955 -0.000111373221114333 0)
(-0.0245390378459581 -0.000123006162878765 -9.40936575125793e-21)
(-0.0230998919697876 -0.00013417427496988 9.417647726985e-21)
(-0.0216795274883293 -0.00014489284433443 1.96447053663022e-20)
(-0.0202793328936952 -0.000155170665253179 3.86272512249328e-22)
(-0.0189008880483794 -0.000165018054510031 2.03473025607614e-15)
(-0.0175458063377538 -0.000174448436170167 2.05548862222565e-15)
(-0.0162156946102321 -0.000183476851912599 -2.0851787571753e-20)
(-0.0149120668088757 -0.000192121051915256 0)
(-0.0136363157830501 -0.000200398603108647 0)
(-0.0123897647529102 -0.000208326910875166 2.23322674415437e-20)
(-0.0111739352818584 -0.000215920766997952 -2.23491415818423e-20)
(-0.0099905124891832 -0.000223199825141051 2.3036236328456e-15)
(-0.0088414458444285 -0.000230181565718052 2.30641722076919e-15)
(-0.00772882189023283 -0.000236890687176452 -4.74662071300549e-20)
(-0.00665504309718853 -0.000243346462512452 4.74982049368657e-20)
(-0.00562263066264205 -0.000249578780592885 -4.87988669597671e-20)
(-0.00463472339144735 -0.000255609475420511 4.88293565377549e-20)
(-0.00369464288193217 -0.0002614808454576 -5.00889054389586e-20)
(-0.00280702448698675 -0.000267213546981962 5.01173323425774e-20)
(-0.00197627506243283 -0.000272857747946326 -5.13387942599886e-20)
(-0.00120942421387645 -0.00027843297208938 -5.85149608604503e-22)
(-0.000512200521055158 -0.000284027808206659 -5.77961320429963e-22)
(0.000104331127136085 -0.000289634524729461 5.25630311619097e-20)
(0.000633110917653359 -0.000295395129696494 2.70036308572463e-15)
(0.00105570010862908 -0.000301288921034063 2.6678661138317e-15)
(0.00136476770971884 -0.000307607035776378 0)
(0.00152784656530089 -0.000314180058082576 0)
(0.00154254947330295 -0.000321526291073005 0)
(0.00135002936798853 -0.000329097010447602 0)
(0.000966820399749366 -0.000338005720767946 5.63059507880773e-15)
(0.000277500296653834 -0.000346767121020639 5.5375556124913e-15)
(-0.000625219302512787 -0.000357481075180802 0)
(-0.00195445788589171 -0.0003660479426948 0)
(-0.00339209296547797 -0.000377148469815344 0)
(-0.00528401574472651 -0.000381793193029856 0)
(-0.00655886560767635 -0.00037337245261685 0)
(-0.00991444741391875 -0.0016399789908222 -1.58571822782498e-17)
(-0.00988306039011685 -0.00517346873240058 3.08590404756185e-17)
(-0.00708599826827917 -0.00576454155679922 -5.5448033727506e-17)
(-0.00362605362661186 -0.00367109631998215 4.92387416263839e-17)
(0.00126498448666021 0.00190842317839644 -4.40101420176839e-17)
(0.0060371698637646 0.00857585025878848 3.95430070294122e-17)
(0.010806499393891 0.0155854493256979 -1.78243974799944e-17)
(0.0145908235891671 0.021291738682803 -3.18684482459404e-17)
(0.0178142219423564 0.0264816945480194 -1.37439756810884e-20)
(0.0207684709622054 0.031741330197002 1.1795679921999e-17)
(0.0247530553185088 0.0388404829844773 2.21195856012766e-21)
(0.0323309912805742 0.0498656444673223 -1.86872044792926e-21)
(0.0477990785617765 0.0667942873573902 -2.10277845755991e-22)
(0.0936545358744286 0.100987823957447 -3.57072066196712e-18)
(0.178887906136892 0.0879698210084065 -6.14913855477064e-18)
(0.033006439963904 0.00163198694877776 0)
(-0.0473471102257254 0.00205703125425131 -9.66501464191739e-23)
(0.000783759719542346 0.000484013759147519 5.02482702032361e-18)
(-0.0657724895823943 0.076899808461717 0)
(-0.0128457355139919 0.0189153072200963 0)
(-0.00708920815641014 0.0117048403393886 0)
(-0.00511217247486701 0.00872127586642818 1.08308224979774e-18)
(-0.00661133260958948 0.0107799448207404 0)
(-0.00677047320342539 0.0108358615742424 -1.29269654828997e-18)
(-0.0089803790119783 0.0139825626372702 1.34365632228586e-18)
(-0.00970330695656851 0.0149033937366394 -2.62835604430202e-21)
(-0.0100281512067942 0.0146776210578303 5.57619172490964e-21)
(-0.00794036592734608 0.010462899153541 -2.97514816223635e-21)
(-0.00363512432354405 0.00368280740218489 2.95842548060146e-21)
(0.00369468573069686 -0.00369398393818088 -3.37433310463909e-18)
(0.0127163125574208 -0.006986506134572 1.81555165299752e-18)
(0.0166042149259598 -0.00216349615066595 9.2479805461389e-19)
(0.0102654917372654 0.000221167022200837 -6.68139143733014e-21)
(0.00494675013373862 0.000249872790901963 -5.85820147573031e-21)
(-0.00424953986120115 0.000445260249976009 1.14716756995471e-20)
(-0.0178679388725709 0.000591648531099426 -5.56187849072647e-21)
(-0.0333585359411613 0.000668074217564154 0)
(-0.0492509263524916 0.000676301717494272 -2.4457182559856e-21)
(-0.0642649875537916 0.000644137307874986 2.41201443677964e-21)
(-0.0779878235536431 0.000593901321053489 0)
(-0.0902965670904796 0.000540201126923193 -1.47726104127735e-21)
(-0.10127347905435 0.000488262658187363 1.46264255779537e-21)
(-0.111020760170615 0.00044007683760248 0)
(-0.119650259463909 0.000395492276856704 0)
(-0.127254087841426 0.000354267390901903 0)
(-0.133914148385317 0.000315881843003147 -9.87763092539856e-33)
(-0.139698181230429 0.000279979884406777 0)
(-0.144665110273666 0.00024617532328016 0)
(-0.148865802091083 0.000214262301145993 0)
(-0.1523464348447 0.000184037962419834 2.1652624819528e-16)
(-0.155149175555445 0.00015541850720144 2.67110462430618e-16)
(-0.157313969882932 0.000128308191505186 0)
(-0.158878124664579 0.000102643122211289 -8.96728980876952e-21)
(-0.159876712325429 7.83447684990898e-05 -1.22545853252162e-21)
(-0.160343348809135 5.53788179416403e-05 1.0081314000767e-15)
(-0.160312279799709 3.37332957072434e-05 1.12514025396999e-15)
(-0.159817797027493 1.34373724146442e-05 7.00433838315868e-21)
(-0.15889309955844 -5.50291754365088e-06 -7.00200016210375e-21)
(-0.157571082873281 -2.31139025791935e-05 0)
(-0.155883400018932 -3.94299527653461e-05 0)
(-0.153860525406022 -5.45009100243484e-05 0)
(-0.151531635449876 -6.83687778873354e-05 2.75320371961277e-15)
(-0.148924807475927 -8.10757157150914e-05 2.954836316599e-15)
(-0.146066955066193 -9.26642211841727e-05 -1.11560787678763e-20)
(-0.142983844326467 -0.0001031781584955 0)
(-0.139700028487387 -0.000112665481613339 0)
(-0.136238782098033 -0.000121177134772972 0)
(-0.132621964793377 -0.000128774029579336 0)
(-0.12887000265131 -0.000135511835054419 -7.7438111768992e-21)
(-0.125001782400926 -0.000141462876759542 1.58783165528265e-20)
(-0.121034729971906 -0.000146678179042862 -1.23754145967097e-20)
(-0.11698500576216 -0.000151219630611068 4.25297685468132e-21)
(-0.112867656816358 -0.000155118082636392 0)
(-0.108697336343869 -0.000158386878603769 0)
(-0.104487950839341 -0.000161065575202003 -1.24245436203374e-21)
(-0.10025228831469 -0.000163199120622906 1.24719130167304e-21)
(-0.0960018335825506 -0.000164851879795831 2.10015348316699e-15)
(-0.0917465032705311 -0.000166089398903517 2.17412528066582e-15)
(-0.087494883404025 -0.000166967479798789 0)
(-0.0832545062583118 -0.000167527931483263 0)
(-0.0790322154720755 -0.000167792974421602 0)
(-0.0748348948479546 -0.000167749880589164 -1.24465080834009e-20)
(-0.070669449724905 -0.00016740860748885 2.52933673700757e-20)
(-0.0665424689641508 -0.000166778626008735 2.95264547838811e-22)
(-0.0624598113158403 -0.000165906588291645 -1.31969514999678e-20)
(-0.0584264174296534 -0.000164820553281244 1.99192566197648e-31)
(-0.0544465161124502 -0.000163559184808112 2.04156668720916e-31)
(-0.0505239209762968 -0.000162119241081841 2.90110164106484e-20)
(-0.0466629019370164 -0.000160487587270903 -2.9265281339067e-15)
(-0.042867793065097 -0.000158663457995249 -3.02090991870346e-15)
(-0.0391429016899364 -0.00015665057981444 -3.09920569434969e-20)
(-0.0354923038416813 -0.000154462478017051 3.1111943465138e-20)
(-0.0319198092772163 -0.000152108348784124 0)
(-0.0284291433314719 -0.000149585550810654 0)
(-0.0250245829540154 -0.00014686752546997 0)
(-0.021710869877596 -0.000143938888848818 -3.36708243483911e-15)
(-0.0184934317475915 -0.000140766070320519 -3.47843056737883e-15)
(-0.0153781224382737 -0.000137336814172235 7.0772754321406e-20)
(-0.0123716449009328 -0.00013360887806442 -7.10164110614713e-20)
(-0.0094811389225414 -0.000129574555196902 -5.28927628084e-31)
(-0.00671538776379598 -0.000125157099009166 -7.4329487565046e-20)
(-0.00408384959949549 -0.000120325085595388 -3.28526940312834e-15)
(-0.00159940221176699 -0.000114939644426404 -3.27315513371501e-15)
(0.00072533144033661 -0.000108950019148195 0)
(0.00287100308753815 -0.000102123794541257 2.83741999484014e-31)
(0.00482090634694405 -9.44742620815027e-05 0)
(0.00654491026865929 -8.55337739044556e-05 0)
(0.00802157964023414 -7.54404701009141e-05 -7.50332158407217e-15)
(0.00920129958013178 -6.3310229391314e-05 -7.59403946909879e-15)
(0.0100593206662223 -4.97230155631619e-05 0)
(0.0105092814423255 -3.28211616846192e-05 0)
(0.010533736367025 -1.44245009102914e-05 -8.43586008487422e-20)
(0.00997898477238008 9.68090512896806e-06 -8.36511415622771e-22)
(0.00886417162052911 3.46910953061772e-05 -8.28989656514346e-15)
(0.00688788568942957 6.90587619618474e-05 -8.62450717077039e-15)
(0.00423828181905531 9.87267547746168e-05 -8.56141974926561e-22)
(0.000360777167978766 0.000141790619499628 8.8646992717864e-20)
(-0.00401457079246055 0.000158211173999719 0)
(-0.0097668855168227 0.000184038305031909 0)
(-0.0145523167369496 0.000217399379791686 0)
(-0.0240174345401381 -0.00301883632572294 2.38685813455e-17)
(-0.0230243260275568 -0.0122749706439174 -4.64573797347247e-17)
(-0.0148748280547263 -0.0132558740954215 8.39931992170459e-17)
(-0.00535462304682477 -0.00696564829295764 7.50356081223443e-17)
(0.00695641930437886 0.008344384156675 6.5302736636216e-20)
(0.0187595086564857 0.0265570618925721 0)
(0.0306177163116091 0.0457830050308481 2.71638529598081e-17)
(0.0404530113394133 0.0618624927255169 2.43396922066728e-17)
(0.0490191247179735 0.0767732004878607 0)
(0.0568519047635301 0.0920477785745355 -3.61615041826428e-17)
(0.0671602693002162 0.112578422517656 0)
(0.0866057538422327 0.144077437870895 -1.10999141891608e-17)
(0.127205720470177 0.192087422366202 7.37551340520355e-18)
(0.245249511137612 0.284895122358607 0)
(0.473771453371257 0.246768767888254 1.86153477640012e-17)
(0.136076165935586 0.00939800934699792 -1.63837145807894e-18)
(-0.0359863427090068 0.00240541129299262 4.42907022034263e-23)
(0.00254421283263091 0.000878468436737179 -5.17096845153719e-18)
(-0.104197789143123 0.121718575508504 2.48761268436029e-23)
(-0.0222916043684132 0.0318093796356239 -6.72688082566488e-23)
(-0.0119909270449791 0.019543977268336 -2.04541151377298e-16)
(-0.0086802541907638 0.0147409419038867 -2.46235351987874e-16)
(-0.0110372672397105 0.0179849805541418 0)
(-0.0114084802711615 0.0182826785887351 1.34516229070506e-18)
(-0.0148972788103443 0.0232265252017005 -1.39366402314492e-18)
(-0.0161194785085675 0.0247175850566522 1.44979460850907e-18)
(-0.0166789483451572 0.0242242887230445 3.00791665186057e-21)
(-0.0136806812931543 0.0176550260400536 3.01002333946151e-18)
(-0.00750563492633336 0.00721390165750726 3.19930676474621e-21)
(0.0030927515013479 -0.00416855814628996 3.44871293771239e-18)
(0.0166522989023933 -0.00970748598981851 -1.85615160820934e-18)
(0.023520457613625 -0.00295256059703847 9.3727868422079e-19)
(0.0132316397260927 0.000699457812432009 0)
(0.00224849557887554 0.000873008291841418 0)
(-0.0149817340396064 0.00141451312816627 -5.64851561886089e-21)
(-0.0386019991407913 0.00179440645115161 5.46770349429189e-21)
(-0.0643101007066898 0.00194692040071144 5.05171705755573e-21)
(-0.0896860925920683 0.0019125821636188 -2.4078181194331e-22)
(-0.113002948574898 0.00177723420034436 -4.54531702844082e-21)
(-0.13384619760615 0.00160572007811395 0)
(-0.152212554227411 0.00143378923935821 1.35762313897038e-21)
(-0.16833417884949 0.00127318543553588 -1.33100933020722e-21)
(-0.182438068855759 0.00112684853093624 0)
(-0.194738182205703 0.00099333897792231 -2.30786921848817e-22)
(-0.205406899730043 0.000871113356468272 2.27276606128789e-22)
(-0.214591692616422 0.000758360827547814 -1.57712540247485e-21)
(-0.222414064987329 0.000653754782022462 1.55699538653203e-21)
(-0.228978530776579 0.000556095334270847 0)
(-0.234375265415341 0.000464643780273218 -3.94416997370803e-21)
(-0.238685245164534 0.000378766842628549 -1.90398092120817e-16)
(-0.241981778564311 0.000298108589621959 -2.24689551788542e-16)
(-0.244332970726238 0.000222320170766967 -5.67029078531868e-21)
(-0.245801508545773 0.000151114666285768 7.60986656235648e-21)
(-0.246445379884637 8.41676564054774e-05 -7.56536857789899e-21)
(-0.246318973857726 2.13313643337326e-05 -3.96869335428729e-16)
(-0.24547570033333 -3.72118023223841e-05 -4.34440595241619e-16)
(-0.243972978031353 -9.14452648814661e-05 0)
(-0.24186389840514 -0.000141533115829996 0)
(-0.239198402507519 -0.000187609201187346 0)
(-0.236023995175802 -0.000229816878030133 -7.45872950349604e-21)
(-0.232385829458462 -0.000268324279390669 7.44816765375953e-21)
(-0.228326703179389 -0.000303280615938421 -1.44633577116136e-15)
(-0.223887357310278 -0.00033483263098483 -1.5294247039686e-15)
(-0.219106469510347 -0.000363127153519266 1.88727716203808e-20)
(-0.214020724875393 -0.000388313759905123 -9.73305810648521e-21)
(-0.208664784885188 -0.000410551135038793 0)
(-0.203071244819851 -0.000430005693779617 0)
(-0.197270527687503 -0.0004468628331689 -6.04045489722749e-21)
(-0.191290899614589 -0.000461298547795148 6.05989331973575e-21)
(-0.185158415023733 -0.000473515287996633 0)
(-0.178897091332633 -0.000483668677960234 6.95078891017202e-21)
(-0.172529205201552 -0.000491922612105684 -6.98141419995889e-21)
(-0.166075596904313 -0.000498369800296156 -3.78397590792737e-21)
(-0.159556428734494 -0.000503073128513464 5.77297779796421e-21)
(-0.152990687787828 -0.000506157097647957 -1.98038325831974e-21)
(-0.146395750350241 -0.000507764392323015 0)
(-0.139787161065938 -0.000508077688729312 0)
(-0.133178395629863 -0.000507276501313696 0)
(-0.126581217467793 -0.000505509788878157 0)
(-0.120006079351834 -0.000502884680835495 0)
(-0.113462661707081 -0.000499452819102423 0)
(-0.106960726909166 -0.000495194783919619 0)
(-0.100509987537179 -0.00049014426788251 0)
(-0.0941196472424117 -0.000484346786167877 0)
(-0.0877978797216353 -0.000477924490520259 0)
(-0.0815516802142139 -0.000470959302234339 0)
(-0.0753871617130111 -0.000463539850841997 0)
(-0.0693100482268933 -0.000455655413511196 -2.47463300136832e-20)
(-0.0633267063344647 -0.000447273838795373 5.03318414233391e-20)
(-0.0574435718423244 -0.000438395419704871 -5.16500848593745e-20)
(-0.0516670577454428 -0.000429033123859308 -4.61559133101519e-22)
(-0.0460032762352532 -0.000419221092143774 5.42930983058441e-20)
(-0.0404580476739047 -0.000408978499899323 -2.75827699049513e-20)
(-0.0350372112901383 -0.000398286140315986 0)
(-0.0297474838787133 -0.000387069624375191 0)
(-0.0245963160061511 -0.000375275759934102 0)
(-0.0195921677125055 -0.000362814910469834 0)
(-0.0147442223171533 -0.000349641871875692 0)
(-0.0100629588857784 -0.000335655902747635 0)
(-0.00555966221383915 -0.000320821296531552 6.53615371488446e-20)
(-0.00124809430423203 -0.000304913147544379 -6.58185431607207e-20)
(0.00285674699235722 -0.000287718671722145 2.89087791364635e-15)
(0.00673484951581323 -0.000268913883988791 2.98586781817222e-15)
(0.0103660327508117 -0.00024832022580147 -6.94513683797581e-20)
(0.0137206089149277 -0.000225372729033728 6.95615768878039e-20)
(0.0167714031179063 -0.000199906605443855 7.12850758639038e-20)
(0.0194726258355533 -0.000170885793821997 7.76947091078239e-22)
(0.0217882156042849 -0.000138281923743722 3.12354562655876e-15)
(0.0236436092136097 -0.000100109576652965 3.24693370746847e-15)
(0.0249937509781488 -5.69156161501283e-05 0)
(0.0257102084358878 -4.83772531391558e-06 0)
(0.0257487625236707 5.33991639007845e-05 0)
(0.0248841140659339 0.00012616892458319 0)
(0.0231074471714365 0.000205974956901635 0)
(0.019977901311964 0.000308390674603672 0)
(0.0156846703038305 0.000408157393680547 0)
(0.00941776951824279 0.000535451950527488 0)
(0.00208477449227205 0.000612273348933512 0)
(-0.00761294013124243 0.000698917018800827 0)
(-0.016685725801007 0.000815795512449065 0)
(-0.0314513180534267 -0.00351373812593042 -2.35813679605536e-17)
(-0.02871154644309 -0.0156517663623659 1.78222403480865e-19)
(-0.0164205626329363 -0.0155105310521685 -1.58357515687224e-19)
(-0.00234264922125956 -0.00506713466078609 -7.29710079759178e-17)
(0.0154139155632056 0.0178960959815014 -6.56636033251219e-17)
(0.0326974641795512 0.0452182384461977 -5.80234332922057e-20)
(0.0503592571148047 0.0742662242631074 -2.7066353685518e-17)
(0.0655229180249991 0.0993415877159558 4.80583534235313e-20)
(0.0790473990634159 0.123039071761903 2.07954343252094e-20)
(0.0915716985040379 0.147512057450949 1.84448208722956e-17)
(0.108003421125744 0.180080068762489 -1.49737306145487e-17)
(0.138597561309601 0.229188174237051 4.80848997931369e-20)
(0.202314704626343 0.302996153189785 -7.54682337016137e-18)
(0.380407408990203 0.438132540555265 -4.93510626170194e-18)
(0.720905317933353 0.376457260538246 -9.41464619287037e-18)
(0.271619437956518 0.0221039967231302 1.62463929050628e-18)
(0.00986670952007858 0.00258346500042713 8.91688295653714e-23)
(0.00660801549876035 0.000957559020709169 5.29534549377937e-18)
(-0.138746967142351 0.161362718837266 -2.46587806387421e-18)
(-0.0324331096008973 0.0448209884968811 -2.30024298520989e-22)
(-0.0170748563724895 0.0273946279848232 2.17478516099145e-16)
(-0.0123831222165747 0.0209286655553869 2.52244906364645e-16)
(-0.015490428204943 0.0252235768278647 -1.24148576415951e-18)
(-0.0161416276555167 0.0259198589987295 0)
(-0.0207689786441582 0.0324359138304008 1.44051937770938e-18)
(-0.0224941164017433 0.0344455094539539 -1.5034285573282e-18)
(-0.0233003980469799 0.0336045899807148 -3.02893850230258e-18)
(-0.0197342940561413 0.0250489795323949 -6.15965307315177e-18)
(-0.012423027460315 0.0116590585764993 0)
(0.000148548975469599 -0.0029336745487362 -6.59734749484316e-21)
(0.0168442430540307 -0.0106885864995504 1.85014742018284e-18)
(0.0268333823492186 -0.00313261870885328 -9.53754998648384e-19)
(0.0125699022309149 0.00156846708003394 6.35540175280404e-21)
(-0.00568765458183745 0.00203586373948917 -3.32987189165162e-22)
(-0.0322075066400103 0.00306579012232779 -5.59569662585068e-21)
(-0.065914057092857 0.0037329637452487 5.00754446203044e-21)
(-0.100774786287615 0.00392356624818903 -9.34008741144954e-21)
(-0.133631116081166 0.00376676379098528 2.16174898679473e-22)
(-0.162735685227473 0.0034404325731598 3.39916090872057e-22)
(-0.187954407864628 0.00306877943117142 3.46679162084374e-21)
(-0.209583236748968 0.00271149491329873 0)
(-0.228093684207468 0.00238549825228134 0)
(-0.243890354605189 0.00209230684007034 0)
(-0.257319342654452 0.00182738612115055 0)
(-0.268654127458305 0.00158652521787963 0)
(-0.278121229334144 0.00136568957161797 0)
(-0.285905518321326 0.00116189135676399 6.37800911186014e-17)
(-0.292163158609736 0.000972632948653452 8.99343953627512e-17)
(-0.297027210158629 0.000796274052700845 -1.89755532226875e-32)
(-0.300614463484226 0.000631472067778565 0)
(-0.303028381485931 0.000477361125016906 -1.65223299426906e-16)
(-0.304362300588478 0.000333128569326512 -1.96020148370165e-16)
(-0.304700038550227 0.000198052982528565 0)
(-0.304117075903122 7.1442684437016e-05 0)
(-0.30268230382241 -4.66851092966083e-05 0)
(-0.300472073964496 -0.000156125332018737 0)
(-0.297553269005223 -0.00025721145998508 0)
(-0.293987583797159 -0.000350327619815015 0)
(-0.289832686439827 -0.000435832525197908 0)
(-0.285142579713212 -0.0005140553668268 -5.06681909181492e-21)
(-0.27996787973511 -0.000585350348467353 5.03424082127047e-21)
(-0.274356025071653 -0.000650034014824231 0)
(-0.268351675764719 -0.000708411271471867 0)
(-0.261996813548215 -0.000760782341228923 0)
(-0.255330894212887 -0.000807447704490285 0)
(-0.248390887332795 -0.000848718952465875 0)
(-0.241211299150915 -0.000884917595167699 0)
(-0.233824132891789 -0.000916389187693533 0)
(-0.226258976019902 -0.000943463260548991 0)
(-0.218543000667815 -0.000966497947398537 0)
(-0.21070124515075 -0.00098577493826754 0)
(-0.202756927258033 -0.00100157191403058 0)
(-0.19473184041956 -0.00101405351476938 0)
(-0.186646989268383 -0.00102334894220236 -1.28865688578623e-21)
(-0.178522006649152 -0.00102968945657453 1.29498195950139e-21)
(-0.170374771899249 -0.00103334044615981 0)
(-0.162221213024142 -0.0010346255806312 -7.21015427815764e-22)
(-0.154075166568394 -0.00103385585763189 -7.68675428766644e-22)
(-0.14594879826819 -0.00103128316768498 1.50424975428428e-21)
(-0.137853051723077 -0.00102708136749746 3.20058808194761e-21)
(-0.129798232704743 -0.00102132461836706 -3.22442547930968e-21)
(-0.121794822900861 -0.00101398510556275 0)
(-0.113853202089986 -0.00100512496035603 0)
(-0.105983175608603 -0.000994840438083243 0)
(-0.0981934376251496 -0.000983341193518192 1.50080351650861e-20)
(-0.0904915396483957 -0.0009707733039122 -1.51434388282167e-20)
(-0.0828842080585839 -0.000957273127235779 -1.59265685436281e-20)
(-0.0753779485103663 -0.000942811874434036 1.60784474686658e-20)
(-0.0679800439461883 -0.000927329845061438 0)
(-0.060697861640906 -0.000910826265525709 0)
(-0.0535388063754229 -0.000893323886257867 0)
(-0.0465100107883481 -0.000874878375798077 -1.83265869629111e-20)
(-0.0396184033771502 -0.000855514032144426 1.85230120096515e-20)
(-0.0328710952461462 -0.000835177234065957 3.86672609323732e-20)
(-0.0262763213842771 -0.000813724364110939 -3.90989031322566e-20)
(-0.0198432517312792 -0.000791041173364244 0)
(-0.0135822862690902 -0.00076696369573916 0)
(-0.00750478826750671 -0.000741398809397473 0)
(-0.00162375688735052 -0.000714143694272665 0)
(0.0040468058649497 -0.000684966468097145 0)
(0.00948965802994444 -0.000653479480397878 0)
(0.0146860870890461 -0.000619338909333795 0)
(0.0196114834355542 -0.000581959558267861 0)
(0.024240257458844 -0.000540896719877054 0)
(0.0285362086993189 -0.000495165457763319 0)
(0.0324642847227275 -0.000444204742139258 5.0363069133612e-20)
(0.0359690556790326 -0.000386288516025115 -5.08817334842494e-20)
(0.0390025402740011 -0.000320816673576057 5.25823296208205e-20)
(0.041475214202859 -0.000244604426880559 -5.32700303073879e-20)
(0.0433231020626903 -0.000157422084610422 0)
(0.044393032965605 -5.32697220338488e-05 0)
(0.0446066283479724 6.57109635218664e-05 0)
(0.0436924828460899 0.000211578349843158 0)
(0.0415926021183888 0.000377108849275349 -1.24040221094015e-19)
(0.0377826020390876 0.000583612580695599 1.2732674311357e-19)
(0.0323609297163508 0.000800142552419182 1.3388514278922e-19)
(0.024352057351199 0.00106210086778602 -1.38853051225464e-19)
(0.0145661792975284 0.00126133164020103 0)
(0.00139690399078954 0.00146040033240708 0)
(-0.0121154064232415 0.00170408720841167 0)
(-0.031238700823182 -0.00281709561730888 2.10443890485576e-17)
(-0.0263356767569079 -0.01502457509734 7.63132041787451e-17)
(-0.0115538457093851 -0.0126482095734838 0)
(0.00524345160161303 0.00145870186807857 0)
(0.0262062256790885 0.0297688165768956 5.61094468678003e-17)
(0.0471966966185714 0.0637089619397713 0)
(0.0691751970608465 0.100245293689255 -4.78985464349197e-20)
(0.0888469716050285 0.133021680550901 2.3097143159436e-17)
(0.106888679451239 0.164708012575844 -4.07034147126849e-20)
(0.123873279175233 0.197731161487804 1.81006793485596e-20)
(0.14603075595465 0.241075669034734 1.50449921765989e-17)
(0.186616404021781 0.305089102502318 2.29457177357648e-17)
(0.270585008833554 0.399605596498635 7.46504975290111e-18)
(0.495120018213224 0.562027227451582 4.88074392091151e-18)
(0.920710598701523 0.479608068778567 0)
(0.427698296816955 0.0379374394723139 0)
(0.0885302367195368 0.00302040756399587 1.97523331373844e-21)
(0.015005316654308 2.94978600209784e-05 -5.34265345290737e-18)
(-0.169099562266076 0.195969609412358 2.55649100724121e-18)
(-0.0431860420484272 0.0579161589100052 -7.37642220511944e-23)
(-0.0223345328210942 0.0352374947164471 -1.02155738869347e-18)
(-0.0162193640803686 0.0272691825408134 -1.136653093824e-21)
(-0.0199649258430761 0.0324875696828403 1.29095857694798e-18)
(-0.0209630592354443 0.0337187536967964 1.44234502037231e-18)
(-0.0265816483238771 0.0415803283299913 -1.49017228180839e-18)
(-0.0287957995900189 0.04403381938971 1.5462715972337e-18)
(-0.0298553000242287 0.0427778135328205 3.08966290566968e-18)
(-0.0260554174644873 0.0326065288681551 3.08777372931683e-18)
(-0.0183269194515027 0.0169691318793774 -3.08922652566844e-18)
(-0.0050694453571962 -5.27270443590322e-05 3.23694664265791e-18)
(0.0131579275033807 -0.00993364207872112 2.16158919790855e-21)
(0.0261008016052046 -0.00268831977363925 7.07883064721279e-21)
(0.0075927921973894 0.00288277210474491 -6.74726780275852e-21)
(-0.0192674518319888 0.00385946546294996 0)
(-0.0554043690529147 0.00546115247763674 4.88734277481092e-21)
(-0.0977088151563722 0.00636861085838787 -4.44052764662614e-21)
(-0.138727984189479 0.00646061345410297 0)
(-0.175212691965014 0.0060297603372925 3.37872994924513e-21)
(-0.206067489581213 0.00538469003397963 -3.12600006126005e-21)
(-0.231818825517007 0.00471651649484611 -4.54839694445596e-33)
(-0.253233072766881 0.00410271255806978 1.69173791972113e-21)
(-0.271069269206111 0.00355827598771912 -1.59237428297761e-21)
(-0.285908347208269 0.00307792352546081 4.00710762465691e-22)
(-0.298205112914929 0.0026505763639636 -3.8074872904598e-22)
(-0.308303679232441 0.00226700686505072 0)
(-0.31647652982501 0.00191936507771076 0)
(-0.322939504620743 0.00160184426056487 -4.428832724077e-17)