/*--------------------------------*- C++ -*----------------------------------*\
  =========                 |
  \\      /  F ield         | OpenFOAM: The Open Source CFD Toolbox
   \\    /   O peration     | Website:  https://openfoam.org
    \\  /    A nd           | Version:  7
     \\/     M anipulation  |
\*---------------------------------------------------------------------------*/
FoamFile
{
    version     2.0;
    format      ascii;
    class       volScalarField;
    location    "20000";
    object      walldist;
}
// * * * * * * * * * * * * * * * * * * * * * * * * * * * * * * * * * * * * * //

dimensions      [0 1 0 0 0 0 0];

internalField   nonuniform List<scalar> 
15600
(
0.000784980671634864
0.000732286104276311
0.000619673297615967
0.000653187411433334
0.000753835686649981
0.000892477075436618
0.00105152834894606
0.00120805013880638
0.00135877996974327
0.00150441096327499
0.00166516813077755
0.00185924635023732
0.00210384503225014
0.00240158615761064
0.00269729970803128
0.00279827161927602
0.00273763134254549
0.0027376313425455
0.0027376313425455
0.00273763134254552
0.00273763134254542
0.00273763134254563
0.00273763134254553
0.00273763134254555
0.0027376313425455
0.0027376313425456
0.00273763134254552
0.00273763134254547
0.0027376313425456
0.00273763134254545
0.00273763134254552
0.00273763134254561
0.00273763134254558
0.00273763134254547
0.00273763134254551
0.00273763134254574
0.0027376313425455
0.00273763134254549
0.00273763134254555
0.00273763134254552
0.00273763134254555
0.00273763134254564
0.00273763134254561
0.00273763134254567
0.00273763134254561
0.00273763134254555
0.00273763134254552
0.00273763134254558
0.00273763134254561
0.00273763134254547
0.00273763134254552
0.00273763134254555
0.00273763134254547
0.00273763134254547
0.00273763134254549
0.00273763134254556
0.0027376313425455
0.00273763134254555
0.0027376313425455
0.00273763134254555
0.00273763134254555
0.0027376313425455
0.00273763134254555
0.0027376313425455
0.00273763134254571
0.00273763134254556
0.00273763134254552
0.00273763134254558
0.00273763134254556
0.00273763134254554
0.00273763134254545
0.00273763134254566
0.00273763134254556
0.00273763134254557
0.00273763134254542
0.00273763134254551
0.00273763134254571
0.00273763134254562
0.00273763134254564
0.00273763134254558
0.00273763134254561
0.0027376313425456
0.0027376313425455
0.00273763134254556
0.00273763134254567
0.00273763134254558
0.00273763134254546
0.0027376313425456
0.00273763134254566
0.0027376313425455
0.0027376313425455
0.00273763134254559
0.00273763134254551
0.00273763134254561
0.00273763134254543
0.00273763134254543
0.00273763134254549
0.00273763134254562
0.00273763134254553
0.00273763134254554
0.0027376313425456
0.00273763134254556
0.00273763134254548
0.00273763134254549
0.00279790336214953
0.00269849723374021
0.00240307798160063
0.00210518303524057
0.00186030837169149
0.00166604641770668
0.00150516305173951
0.00135952800070143
0.00120882892473069
0.00105233108586332
0.000893259216613149
0.000754463657924192
0.000653606693048154
0.000619600082653183
0.000731666594128002
0.000785024925820156
0.00238447114138954
0.0022618936409044
0.00197614141426481
0.00223488686859944
0.00278348871714393
0.00343205944616995
0.00408176843188231
0.00468783510579816
0.00526064879936976
0.00581176265561263
0.00636065855583295
0.0069094534027806
0.00744796379559726
0.00794832069145233
0.00835381648604818
0.00856296306451215
0.00858109662087796
0.00856911575783066
0.00855739732620371
0.00854594240555754
0.00853475205690482
0.00852382732226211
0.00851316922419599
0.00850277876537995
0.00849265692815548
0.00848280467409659
0.00847322294357737
0.00846391265534916
0.00845487470613112
0.00844610997018922
0.00843761929893864
0.00842940352055121
0.00842146343956359
0.00841379983649952
0.00840641346750162
0.00839930506397336
0.00839247533222085
0.00838592495311781
0.00837965458177638
0.00837366484722188
0.00836795635208894
0.00836252967232363
0.00835738535689686
0.00835252392753263
0.00834794587844825
0.00834365167610413
0.00833964175897048
0.00833591653730572
0.00833247639294889
0.00832932167912424
0.00832645272026181
0.00832386981183314
0.00832157322019676
0.00831956318246335
0.00831783990637351
0.00831640357019054
0.00831525432260814
0.00831439228267352
0.00831381753972686
0.00831353015335319
0.00831353015335324
0.00831381753972689
0.00831439228267357
0.00831525432260804
0.00831640357019057
0.00831783990637361
0.00831956318246347
0.00832157322019687
0.0083238698118336
0.00832645272026191
0.00832932167912386
0.00833247639294857
0.00833591653730567
0.0083396417589701
0.00834365167610375
0.00834794587844871
0.00835252392753315
0.0083573853568969
0.00836252967232345
0.00836795635208862
0.00837366484722177
0.00837965458177608
0.00838592495311809
0.00839247533222069
0.00839930506397277
0.00840641346750122
0.00841379983649922
0.00842146343956362
0.00842940352055097
0.00843761929893957
0.00844610997019039
0.00845487470613099
0.0084639126553491
0.00847322294357612
0.00848280467409658
0.00849265692815524
0.00850277876537983
0.00851316922419502
0.00852382732226145
0.008534752056904
0.00854594240555613
0.00855739732620405
0.00856911575783057
0.00858109662087642
0.00856339020633461
0.00835541256896635
0.00795054325945275
0.00745048821424701
0.00691207007919942
0.0063633059439163
0.00581439646453588
0.00526334721318779
0.00469066869866965
0.0040848051321819
0.00343528534529208
0.00278652184692291
0.00223716473638667
0.00197631534924536
0.00226028678273312
0.0023846224875119
0.00404374495236815
0.00397051255933318
0.00382324719099934
0.00442484587588766
0.0053540926623725
0.0063740958547652
0.00738457409100389
0.00834353347248366
0.0092646645046365
0.0101615503554203
0.0110530332702693
0.0119361692052776
0.0127907071195314
0.0135712310220611
0.0141924665646318
0.0145112579009067
0.0145472751307634
0.0145269643338163
0.0145070984289665
0.0144876792463601
0.0144687085847004
0.0144501882104866
0.0144321198572463
0.0144145052247803
0.0143973459784238
0.0143806437483028
0.0143644001286046
0.0143486166768642
0.0143332949132594
0.0143184363199079
0.0143040423401903
0.0142901143780776
0.0142766537974785
0.0142636619215925
0.014251140032285
0.0142390893694802
0.0142275111305601
0.0142164064697893
0.0142057764977577
0.0141956222808348
0.0141859448406487
0.0141767451535827
0.0141680241502918
0.0141597827152385
0.0141520216862537
0.0141447418541148
0.014137943962147
0.0141316287058489
0.0141257967325404
0.0141204486410326
0.0141155849813223
0.0141112062543122
0.0141073129115524
0.0141039053550103
0.0141009839368614
0.0140985489593105
0.0140966006744334
0.0140951392840478
0.0140941649396084
0.0140936777421287
0.0140936777421288
0.0140941649396084
0.0140951392840478
0.0140966006744333
0.0140985489593105
0.0141009839368615
0.0141039053550104
0.0141073129115526
0.0141112062543125
0.0141155849813223
0.0141204486410324
0.0141257967325403
0.0141316287058489
0.0141379439621469
0.014144741854115
0.0141520216862544
0.0141597827152387
0.0141680241502916
0.0141767451535827
0.0141859448406488
0.0141956222808345
0.0142057764977577
0.0142164064697895
0.0142275111305603
0.01423908936948
0.014251140032285
0.0142636619215924
0.0142766537974785
0.0142901143780773
0.014304042340191
0.0143184363199083
0.0143332949132597
0.0143486166768643
0.0143644001286037
0.0143806437483029
0.0143973459784238
0.0144145052247804
0.014432119857245
0.0144501882104872
0.0144687085847007
0.0144876792463587
0.0145070984289673
0.0145269643338158
0.0145472751307614
0.014511975905838
0.0141948926841518
0.0135746725456678
0.0127946727463091
0.011940346611557
0.011057298552363
0.0101658241500415
0.00926901106031091
0.00834802779029704
0.00738929750511535
0.00637904964462161
0.0053589020305766
0.00442891204539881
0.00382468787308537
0.00396918559750959
0.00404405212967061
0.00576404775944893
0.00577181627553431
0.00584020151671594
0.00677564823988332
0.00806563064775153
0.00945099212310637
0.0108251453445519
0.0121444531788847
0.0134234577066711
0.0146767475430082
0.0159218940286926
0.0171504585795611
0.0183316118079789
0.0194016557739308
0.0202456782187261
0.0206775118111767
0.020732011719116
0.0207030658391118
0.0206747539959345
0.0206470787978127
0.0206200428081649
0.0205936485445111
0.0205678984773839
0.0205427950292519
0.0205183405734615
0.0204945374331833
0.0204713878803694
0.0204488941347367
0.0204270583627614
0.0204058826766808
0.0203853691335252
0.020365519734161
0.0203463364223571
0.0203278210838684
0.0203099755455443
0.0202928015744569
0.0202763008770525
0.0202604750983305
0.0202453258210429
0.0202308545649241
0.0202170627859452
0.0202039518755963
0.0201915231601972
0.0201797779002383
0.0201687172897515
0.0201583424557113
0.020148654457466
0.0201396542862035
0.02013134286445
0.0201237210455994
0.0201167896134786
0.0201105492819477
0.0201050006945323
0.0201001444240944
0.0200959809725371
0.0200925107705461
0.020089734177367
0.0200876514806193
0.0200862628961488
0.0200855685679142
0.0200855685679143
0.0200862628961487
0.0200876514806193
0.0200897341773668
0.0200925107705461
0.0200959809725372
0.0201001444240946
0.0201050006945325
0.020110549281948
0.0201167896134789
0.0201237210455994
0.0201313428644499
0.0201396542862035
0.020148654457466
0.0201583424557117
0.0201687172897525
0.0201797779002385
0.0201915231601972
0.0202039518755964
0.0202170627859452
0.0202308545649242
0.020245325821043
0.0202604750983304
0.0202763008770527
0.0202928015744562
0.0203099755455436
0.020327821083868
0.0203463364223562
0.0203655197341596
0.0203853691335247
0.0204058826766813
0.0204270583627616
0.0204488941347368
0.0204713878803686
0.0204945374331835
0.0205183405734625
0.0205427950292525
0.0205678984773828
0.0205936485445106
0.0206200428081639
0.0206470787978114
0.020674753995935
0.0207030658391104
0.0207320117191139
0.0206785301120725
0.0202489610144828
0.0194063568114605
0.0183370669458507
0.0171562488891197
0.0159278302165961
0.0146827133387303
0.0134295008294014
0.0121506495803973
0.0108315821407264
0.00945766940531206
0.00807215401931438
0.00678137275014145
0.00584303264540802
0.00577111586702014
0.00576452695973797
0.00754745335385505
0.00764861438036431
0.00795765730637262
0.0092331643453536
0.0108892235799485
0.0126484568326049
0.0143968456956298
0.0160881401626391
0.0177371742932682
0.0193593014012806
0.0209706087525229
0.0225568902004223
0.0240763070457094
0.0254461798825234
0.026520864969724
0.0270696721320911
0.0271433127695576
0.0271054154788851
0.0270683482986783
0.0270321146437506
0.0269967178702505
0.0269621612742301
0.026928448090225
0.0268955814898458
0.0268635645803864
0.0268324004034482
0.0268020919335795
0.0267726420769362
0.0267440536699686
0.0267163294781158
0.0266894721945371
0.0266634844388612
0.0266383687559597
0.0266141276147513
0.0265907634070303
0.0265682784463313
0.0265466749668122
0.0265259551221824
0.0265061209846551
0.0264871745439375
0.0264691177062538
0.0264519522934071
0.0264356800418778
0.0264203026019583
0.0264058215369307
0.0263922383222815
0.0263795543449594
0.0263677709026739
0.0263568892032387
0.0263469103639568
0.0263378354110508
0.0263296652791395
0.0263224008107566
0.0263160427559197
0.0263105917717438
0.0263060484221019
0.0263024131773355
0.0262996864140097
0.0262978684147194
0.0262969593679424
0.0262969593679424
0.0262978684147194
0.0262996864140097
0.0263024131773355
0.026306048422102
0.0263105917717439
0.02631604275592
0.0263224008107568
0.0263296652791399
0.026337835411051
0.0263469103639564
0.0263568892032382
0.0263677709026736
0.0263795543449593
0.0263922383222817
0.0264058215369315
0.0264203026019587
0.0264356800418779
0.026451952293407
0.0264691177062538
0.0264871745439374
0.0265061209846552
0.0265259551221821
0.026546674966812
0.0265682784463304
0.0265907634070296
0.0266141276147502
0.026638368755959
0.0266634844388602
0.026689472194537
0.0267163294781161
0.0267440536699684
0.0267726420769365
0.0268020919335792
0.0268324004034482
0.0268635645803863
0.0268955814898452
0.0269284480902236
0.0269621612742291
0.0269967178702495
0.0270321146437509
0.027068348298679
0.0271054154788842
0.0271433127695556
0.0270710013142232
0.0265250345550078
0.0254521852219023
0.0240833048095248
0.02256435091295
0.0209782751004534
0.0193670186956761
0.0177449725276761
0.016096095318823
0.0144050488975055
0.0126569033506485
0.0108974936556315
0.00924056360877282
0.00796193741089199
0.00764866217840114
0.00754811443586319
0.00939622864354566
0.00959838702788316
0.0101633938951026
0.0117889716778622
0.0138215217945658
0.0159664062453302
0.0181016098499676
0.0201778574891675
0.0222100646303775
0.0242142678242682
0.0262049473207918
0.0281618876092951
0.0300318181276442
0.0317123689479991
0.033026035445107
0.0336960041653167
0.0337894779600186
0.0337423013431195
0.0336961580930575
0.0336510524607786
0.0336069886242016
0.0335639706864308
0.0335220026739939
0.0334810885350843
0.0334412321378311
0.0334024372685848
0.0333647076302261
0.033328046840498
0.0332924584303674
0.0332579458424045
0.0332245124292003
0.0331921614518123
0.0331608960782357
0.0331307193819149
0.0331016343402866
0.0330736438333642
0.0330467506423504
0.0330209574482996
0.0329962668308159
0.032972681266795
0.0329502031292101
0.032928834685941
0.0329085780986526
0.0328894354217199
0.0328714086012008
0.0328544994738623
0.032838709766253
0.0328240410938331
0.0328104949601555
0.0327980727560995
0.0327867757591631
0.0327766051328106
0.0327675619258741
0.0327596470720165
0.0327528613892504
0.032747205579516
0.0327426802283196
0.0327392858044304
0.0327370226596376
0.0327358910285691
0.0327358910285691
0.0327370226596376
0.0327392858044303
0.0327426802283196
0.0327472055795162
0.0327528613892504
0.0327596470720167
0.0327675619258743
0.0327766051328108
0.0327867757591629
0.0327980727560991
0.0328104949601548
0.032824041093833
0.0328387097662528
0.0328544994738625
0.0328714086012015
0.0328894354217202
0.0329085780986527
0.0329288346859409
0.0329502031292099
0.0329726812667948
0.0329962668308156
0.0330209574482989
0.0330467506423502
0.0330736438333638
0.0331016343402859
0.0331307193819147
0.0331608960782357
0.0331921614518121
0.0332245124292007
0.0332579458424048
0.0332924584303673
0.0333280468404986
0.0333647076302258
0.0334024372685847
0.0334412321378309
0.0334810885350838
0.0335220026739929
0.0335639706864302
0.0336069886242012
0.0336510524607787
0.0336961580930584
0.0337423013431187
0.033789477960017
0.0336976554249502
0.0330311237195146
0.0317197257534289
0.0300404143766338
0.0281710792113679
0.0262144063454047
0.0242237996884717
0.0222196807048506
0.0201876334024761
0.0181116401107251
0.0159766798473889
0.0138315910030433
0.0117980904575814
0.0101691769675677
0.0095992524052834
0.00939707991484545
0.011312750891585
0.0116218378136069
0.0124553125483819
0.0144425467532641
0.0168639255971703
0.0194076422305121
0.0219432597861604
0.0244182221188515
0.0268474237997631
0.0292475558023212
0.0316313979333173
0.0339724893575962
0.0362056984851014
0.0382082358740132
0.0397695668194451
0.0405650822561632
0.0406791110067366
0.0406223151356067
0.0405667633335439
0.0405124607182545
0.0404594123195295
0.0404076230770932
0.0403570978384766
0.0403078413569048
0.0402598582892142
0.0402131531937875
0.0401677305285175
0.0401235946488002
0.0400807498055628
0.0400392001433119
0.0399989496982276
0.0399600023962922
0.0399223620514519
0.0398860323638223
0.0398510169179364
0.0398173191810378
0.0397849425014139
0.039753890106782
0.0397241651027255
0.039695770471175
0.0396687090689499
0.0396429836263486
0.0396185967457967
0.0395955509005536
0.0395738484334763
0.0395534915558454
0.039534482346252
0.0395168227495455
0.0395005145758519
0.0394855594996494
0.0394719590589158
0.0394597146543443
0.0394488275486227
0.0394392988657868
0.0394311295906406
0.0394243205682492
0.0394188725035032
0.0394147859607529
0.0394120613635172
0.0394106989942641
0.0394106989942641
0.0394120613635171
0.039414785960753
0.0394188725035033
0.0394243205682493
0.0394311295906408
0.0394392988657872
0.0394488275486231
0.0394597146543445
0.0394719590589159
0.0394855594996489
0.0395005145758517
0.0395168227495457
0.0395344823462519
0.0395534915558458
0.0395738484334766
0.0395955509005536
0.0396185967457967
0.0396429836263486
0.0396687090689496
0.0396957704711749
0.039724165102725
0.0397538901067818
0.0397849425014141
0.0398173191810378
0.039851016917936
0.0398860323638216
0.0399223620514514
0.0399600023962917
0.0399989496982288
0.0400392001433128
0.0400807498055628
0.0401235946488009
0.0401677305285168
0.0402131531937874
0.0402598582892143
0.0403078413569048
0.0403570978384761
0.040407623077093
0.0404594123195284
0.0405124607182536
0.0405667633335441
0.0406223151356058
0.0406791110067357
0.0405670672866796
0.0397756071156
0.0382169933194477
0.0362159514277652
0.0339834748826982
0.0316427148486792
0.0292589681334973
0.0268589234859948
0.0244298842315117
0.0219551819675627
0.0194198063801563
0.0168758542206054
0.0144534400712239
0.0124626534641076
0.0116235724739943
0.01131380021998
0.0132994936359001
0.0137207622474531
0.0148342777667541
0.0171956968764095
0.0200193330166485
0.0229759575612501
0.0259263305288
0.0288144158766275
0.031655028874332
0.0344655087311681
0.0372568529168842
0.0399961172385433
0.0426058682128751
0.0449421439603817
0.0467601683930044
0.047685796959018
0.0478211308018232
0.0477543632959675
0.0476890582800268
0.0476252217702233
0.0475628596794237
0.0475019778146194
0.047442581874421
0.0473846774465764
0.0473282700055204
0.047273364909951
0.0472199674004306
0.0471680825970322
0.0471177154970159
0.0470688709725383
0.0470215537684122
0.0469757684999014
0.0469315196505656
0.0468888115701495
0.0468476484725217
0.046808034433668
0.0467699733897339
0.0467334691351267
0.0466985253206749
0.046665145451847
0.0466333328870327
0.0466030908358885
0.0465744223577467
0.0465473303600962
0.0465218175971293
0.0464978866683602
0.0464755400173169
0.0464547799303067
0.0464356085352578
0.0464180278006364
0.0464020395344431
0.0463876453832901
0.0463748468315551
0.0463636452006201
0.0463540416481908
0.0463460371677007
0.0463396325877975
0.0463348285719143
0.0463316256179272
0.0463300240578969
0.0463300240578969
0.0463316256179273
0.0463348285719144
0.0463396325877975
0.0463460371677008
0.0463540416481907
0.0463636452006202
0.0463748468315553
0.0463876453832904
0.0464020395344433
0.0464180278006361
0.0464356085352574
0.0464547799303067
0.046475540017317
0.0464978866683603
0.0465218175971295
0.0465473303600963
0.046574422357747
0.0466030908358884
0.0466333328870325
0.0466651454518463
0.0466985253206741
0.0467334691351263
0.0467699733897342
0.0468080344336682
0.046847648472521
0.0468888115701495
0.0469315196505657
0.0469757684999012
0.0470215537684133
0.0470688709725397
0.0471177154970163
0.0471680825970323
0.04721996740043
0.0472733649099512
0.0473282700055205
0.047384677446576
0.0474425818744199
0.0475019778146188
0.0475628596794227
0.0476252217702226
0.0476890582800284
0.0477543632959679
0.0478211308018221
0.0476881279232426
0.0467671953889285
0.044952353153003
0.0426178383310195
0.0400089621825099
0.037270095513466
0.0344788700766747
0.0316684806920705
0.0288280325530628
0.0259402127459118
0.0229900795513817
0.0200331860238851
0.0172084252958196
0.0148432332121177
0.0137234107952497
0.0133007488262197
0.0153590248445037
0.0158974511358908
0.0173023269984587
0.0200511772148368
0.0232913035841535
0.0266756326027431
0.0300557517979217
0.0333719698645398
0.0366389853789387
0.0398747911854811
0.0430885251678351
0.0462405164137655
0.0492405746180956
0.0519227864014078
0.0540068789894416
0.0550673653879979
0.0552247829588082
0.0551476785290764
0.0550722630114801
0.0549985433536712
0.0549265263839448
0.0548562188083281
0.0547876272076886
0.0547207580348672
0.0546556176118507
0.0545922121269671
0.0545305476321226
0.0544706300400771
0.0544124651217646
0.054356058503649
0.0543014156651326
0.0542485419360127
0.0541974424939926
0.0541481223622429
0.0541005864070219
0.0540548393353589
0.0540108856927908
0.0539687298611748
0.05392837605656
0.0538898283271295
0.0538530905512182
0.0538181664353999
0.0537850595126528
0.0537537731406018
0.0537243104998421
0.0536966745923445
0.0536708682399427
0.0536468940829097
0.0536247545786186
0.053604452000293
0.0535859884358476
0.0535693657868222
0.0535545857674062
0.053541649903557
0.053530559532216
0.0535213158006197
0.0535139196657067
0.0535083718936229
0.0535046730593252
0.0535028235462838
0.0535028235462838
0.0535046730593253
0.053508371893623
0.0535139196657067
0.0535213158006197
0.0535305595322159
0.0535416499035571
0.0535545857674064
0.0535693657868225
0.0535859884358475
0.0536044520002925
0.0536247545786185
0.0536468940829095
0.0536708682399424
0.0536966745923441
0.0537243104998424
0.0537537731406023
0.0537850595126531
0.0538181664353998
0.0538530905512176
0.0538898283271291
0.0539283760565596
0.0539687298611748
0.054010885692791
0.0540548393353583
0.0541005864070218
0.0541481223622428
0.0541974424939923
0.0542485419360123
0.0543014156651331
0.0543560585036499
0.0544124651217647
0.0544706300400774
0.0545305476321211
0.054592212126967
0.0546556176118514
0.0547207580348674
0.0547876272076878
0.0548562188083268
0.0549265263839429
0.0549985433536711
0.0550722630114821
0.055147678529077
0.0552247829588063
0.0550700549163243
0.0540149286998076
0.0519345003907835
0.0492543246840116
0.0462552887528486
0.0431037638184148
0.0398901727276843
0.0366544605350235
0.0333876122456529
0.0300716651105326
0.0266917829481725
0.023307149544649
0.0200658052261339
0.0173129557206278
0.0159010551934927
0.0153604937995006
0.0174940083810718
0.0181544799126391
0.019862080056701
0.023012236215953
0.0266837783632374
0.0305112646157154
0.0343367400316615
0.0380966923668568
0.0418056773813438
0.0454823537326569
0.04913392398575
0.0527137401687147
0.0561183847472076
0.0591591860551648
0.06151907355229
0.0627193427216864
0.0628996517811161
0.0628118317568253
0.0627259353613749
0.0626419705079675
0.0625599449738605
0.062479866397052
0.0624017422729866
0.06232557995129
0.0622513866325463
0.0621791693651074
0.0621089350419438
0.0620406903975416
0.0619744420048513
0.0619101962722735
0.0618479594407118
0.0617877375806733
0.0617295365894323
0.061673362188255
0.0616192199196888
0.0615671151449219
0.0615170530412086
0.0614690385993738
0.0614230766213933
0.0613791717180472
0.0613373283066618
0.0612975506089319
0.0612598426488316
0.0612242082506127
0.0611906510368937
0.0611591744268443
0.0611297816344632
0.0611024756669548
0.0610772593232065
0.061054135192363
0.0610331056525074
0.0610141728694463
0.0609973387955975
0.0609826051689898
0.060969973512366
0.0609594451323995
0.0609510211190194
0.060944702344847
0.0609404894647439
0.0609383829154732
0.0609383829154733
0.060940489464744
0.060944702344847
0.0609510211190194
0.0609594451323995
0.060969973512366
0.0609826051689901
0.0609973387955978
0.0610141728694465
0.0610331056525074
0.0610541351923627
0.0610772593232062
0.0611024756669544
0.0611297816344628
0.0611591744268443
0.0611906510368943
0.0612242082506134
0.0612598426488319
0.0612975506089314
0.0613373283066609
0.0613791717180472
0.0614230766213931
0.0614690385993737
0.0615170530412081
0.0615671151449215
0.0616192199196888
0.061673362188255
0.0617295365894316
0.0617877375806727
0.061847959440712
0.0619101962722741
0.0619744420048512
0.0620406903975419
0.0621089350419428
0.0621791693651076
0.062251386632547
0.0623255799512902
0.0624017422729853
0.0624798663970515
0.0625599449738589
0.0626419705079663
0.0627259353613759
0.0628118317568251
0.0628996517811141
0.0627224039200887
0.0615281833497091
0.0591724598751326
0.0561339798764084
0.0527305104166466
0.049151231698543
0.0454998293333399
0.0418232497930865
0.038114434355657
0.0343547583581299
0.0305295168389834
0.0267016890314168
0.0230288316017869
0.0198744429756319
0.0181590800090051
0.0174956991829759
0.0197072066572507
0.0204946226079182
0.0225165070130316
0.0260824379163469
0.0302009701161418
0.034487701354697
0.0387747576256881
0.0429946431901868
0.047161751433935
0.0512954234342478
0.0554008506095851
0.0594241496090448
0.0632481887496327
0.0666607022213555
0.069306473096684
0.0706516343893855
0.0708556726689554
0.070756744507691
0.0706599832903059
0.0705653979309229
0.0704729971905273
0.0703827896732285
0.0702947838225504
0.0702089879177556
0.0701254100702119
0.0700440582197995
0.0699649401313635
0.0698880633912189
0.069813435403712
0.0697410633878267
0.0696709543738619
0.0696031152001687
0.0695375525099535
0.0694742727481507
0.0694132821583707
0.0693545867799257
0.0692981924449269
0.0692441047754779
0.0691923291809426
0.0691428708553082
0.0690957347746379
0.0690509256946187
0.0690084481482063
0.0689683064433723
0.0689305046609517
0.0688950466525963
0.0688619360388359
0.0688311762072488
0.0688027703107462
0.0687767212659676
0.068753031751794
0.0687317042079794
0.0687127408338983
0.0686961435874176
0.068681914183889
0.0686700540952633
0.0686605645493326
0.0686534465290932
0.0686487007722387
0.0686463277707776
0.0686463277707776
0.0686487007722388
0.0686534465290931
0.0686605645493324
0.0686700540952635
0.0686819141838891
0.0686961435874178
0.0687127408338984
0.0687317042079796
0.0687530317517942
0.0687767212659675
0.0688027703107459
0.0688311762072486
0.0688619360388356
0.0688950466525963
0.0689305046609521
0.0689683064433727
0.0690084481482064
0.0690509256946181
0.0690957347746376
0.0691428708553084
0.0691923291809428
0.0692441047754776
0.0692981924449266
0.0693545867799244
0.0694132821583702
0.0694742727481502
0.069537552509953
0.0696031152001684
0.0696709543738626
0.0697410633878278
0.0698134354037125
0.0698880633912195
0.069964940131363
0.0700440582197999
0.0701254100702131
0.0702089879177559
0.0702947838225495
0.0703827896732275
0.0704729971905267
0.0705653979309224
0.0706599832903069
0.070756744507691
0.0708556726689544
0.0706550808520233
0.0693166817468487
0.0666755929473312
0.0632656964704113
0.0594429908923835
0.0554203031032154
0.051315069705704
0.0471814977898497
0.0430145614934739
0.038794957749216
0.0345081319298918
0.0302210202785161
0.0261010714922631
0.022530667303818
0.0205002591573097
0.0197091276155357
0.0220014838282195
0.0229208135058985
0.0252688257644132
0.0292655844215147
0.0338473161858559
0.0386100138425662
0.0433754978075817
0.0480721259200049
0.0527141137080985
0.0573215044569748
0.0618974015958002
0.0663804193906965
0.0706392077106944
0.0744370404204155
0.0773791562503191
0.0788745088061957
0.0791031449806864
0.0789927017601448
0.078884677711837
0.0787790827874715
0.0786759267677972
0.0785752192584272
0.0784769696856966
0.0783811872925574
0.0782878811345262
0.0781970600756716
0.0781087327846532
0.0780229077308189
0.0779395931803667
0.077858797192558
0.0777805276160061
0.0777047920850334
0.0776315980161027
0.0775609526043288
0.0774928628200663
0.077427335405592
0.0773643768718645
0.0773039934953905
0.0772461913151743
0.0771909761297727
0.0771383534944542
0.0770883287184595
0.0770409068623721
0.0769960927356036
0.0769538908939909
0.0769143056375111
0.0768773410081166
0.0768430007876942
0.0768112884961484
0.0767822073896104
0.0767557604587776
0.0767319504273869
0.0767107797508165
0.076692250614825
0.0766763649344282
0.0766631243529095
0.0766525302409733
0.0766445836960353
0.0766392855416556
0.0766366363271107
0.0766366363271108
0.0766392855416554
0.0766445836960353
0.0766525302409733
0.0766631243529096
0.0766763649344283
0.0766922506148253
0.0767107797508164
0.0767319504273871
0.0767557604587777
0.0767822073896103
0.0768112884961483
0.0768430007876941
0.0768773410081165
0.0769143056375108
0.0769538908939909
0.0769960927356039
0.0770409068623722
0.0770883287184594
0.077138353494454
0.077190976129773
0.0772461913151741
0.0773039934953899
0.0773643768718636
0.0774273354055905
0.0774928628200656
0.0775609526043288
0.0776315980161027
0.0777047920850332
0.0777805276160072
0.077858797192559
0.0779395931803669
0.078022907730819
0.0781087327846519
0.0781970600756725
0.0782878811345272
0.0783811872925576
0.0784769696856957
0.0785752192584269
0.0786759267677964
0.0787790827874708
0.0788846777118369
0.0789927017601439
0.0791031449806846
0.0788783546305508
0.0773905039547064
0.0744536072354709
0.0706586980432984
0.0664014075346171
0.0619190773865653
0.0573434008475721
0.0527361135477319
0.0480943001179572
0.0433979594267671
0.0386327022127829
0.03386958362664
0.0292863299444544
0.0252848489341
0.0229275273686845
0.0220036435113971
0.0243798093027481
0.0254361294733047
0.0281224534058137
0.0325656799974266
0.0376274578406339
0.0428834859509844
0.0481448806753152
0.053335688087848
0.0584699330361674
0.0635683832812229
0.0686319758307831
0.072565272745644
0.0783010036858385
0.0824982637461762
0.0857475717589018
0.0873986106199422
0.0876527453653074
0.0875303652565288
0.0874106657881702
0.0872936579875386
0.0871793526925014
0.0870677605468621
0.0869588919957701
0.0868527572811727
0.0867493664373206
0.0866487292863256
0.0865508554337708
0.0864557542643863
0.0863634349377934
0.0862739063843118
0.0861871773008472
0.0861032561468513
0.0860221511403718
0.0859438702541824
0.085868421212006
0.085795811484835
0.0857260482873454
0.0856591385744171
0.0855950890377609
0.0855339061026515
0.0854755959247804
0.085420164387219
0.0853676170975074
0.0853179593848666
0.0852711962975364
0.0852273326002426
0.085186372771798
0.0851483210028426
0.0851131811937172
0.0850809569524818
0.0850516515930737
0.0850252681336154
0.0850018092948663
0.0849812774988261
0.084963674867488
0.0849490032217447
0.0849372640804482
0.0849284586596252
0.084922587871847
0.0849196523257577
0.0849196523257576
0.084922587871847
0.0849284586596252
0.0849372640804481
0.0849490032217448
0.0849636748674882
0.0849812774988263
0.0850018092948664
0.0850252681336157
0.085051651593074
0.0850809569524818
0.0851131811937173
0.0851483210028427
0.0851863727717979
0.0852273326002423
0.0852711962975369
0.0853179593848673
0.0853676170975076
0.0854201643872189
0.0854755959247802
0.0855339061026515
0.0855950890377604
0.0856591385744165
0.0857260482873452
0.0857958114848344
0.0858684212120056
0.0859438702541825
0.0860221511403718
0.086103256146851
0.0861871773008479
0.0862739063843132
0.0863634349377935
0.0864557542643863
0.0865508554337703
0.0866487292863262
0.0867493664373214